 Q-Chem 5.1, Q-Chem, Inc., Pleasanton, CA (2018)
 Q-Chem 5.1.1 for Intel X86 EM64T Linux

User input:
--------------------------------------------------------------
$rem
threads 8
jobtype	sp
method PBEh-3c
basis def2-mSVP
mem_static	1024
mem_total	10000
sym_ignore	true
cis_n_roots             6
cis_singlets            true
cis_triplets		true
rpa                     false
calc_soc 		true
cis_moments             true
cis_relaxed_density	true
$end

$molecule
read gsopt.mol
$end

--------------------------------------------------------------

             Standard Nuclear Orientation (Angstroms)
    I     Atom           X                Y                Z
 ----------------------------------------------------------------
    1      C       0.0000000000     0.0000000000     0.0000000000
    2      C       0.0000000000     0.0000000000     1.3949920000
    3      H       0.9420073259     0.0000000000     1.9321543489
    4      C      -1.1956782512    -0.0066795618     2.0829691793
    5      C      -2.4249550962    -0.0197691090     1.3880874605
    6      C      -2.4332641544    -0.0293183766     0.0044353601
    7      H      -3.3716297224    -0.0491323021    -0.5381391868
    8      C      -1.2264953248    -0.0205346402    -0.7052743258
    9      C      -1.4699970837    -0.0117238864     3.5173478739
   10      C      -0.7020871081    -0.0083669042     4.6524312521
   11      H       0.3802941274     0.0035058635     4.6116844494
   12      C      -2.8698282993    -0.0283117354     3.6446868066
   13      C      -3.5362162204    -0.0435209730     4.8652208571
   14      C      -3.5009236551    -0.0338480075     2.3855613685
   15      C      -4.8697305533    -0.0561267629     2.3513339918
   16      H      -5.4187619356    -0.0642657177     1.4181508893
   17      C      -1.3530274471    -0.0215685055     5.9080479042
   18      H      -0.7481382592    -0.0184758029     6.8055738855
   19      C      -2.7230212959    -0.0386417698     6.0246974272
   20      H      -3.1796323265    -0.0494226743     7.0068742024
   21      C      -4.9491849397    -0.0650944353     4.7990457466
   22      H      -5.5353658708    -0.0781726661     5.7097515026
   23      C      -5.5789964997    -0.0712488143     3.5769468171
   24      H      -6.6604229688    -0.0894468762     3.5453844340
   25      B       1.3514618285     0.0203776882    -0.7626050956
   26      C       1.3440044568     0.1027797666    -2.3147784568
   27      C       2.5538615712     0.1878199202    -3.0035678023
   28      H       3.4858425665     0.2119929916    -2.4494255639
   29      C       2.5598499126     0.2366956741    -4.3825789380
   30      C       1.3520603025     0.1787397584    -5.1118804625
   31      C       0.1480000739     0.0770492081    -4.4360112693
   32      H      -0.7856259213     0.0145555950    -4.9844247387
   33      C       0.1259332974     0.0526853890    -3.0356540243
   34      C       3.6698979897     0.3332820715    -5.3228138631
   35      C       5.0317579897     0.4177468540    -5.2037120023
   36      H       5.5232107982     0.4232974683    -4.2383848255
   37      C       3.0951865130     0.3317765834    -6.6055383377
   38      C       3.8302703578     0.4124006836    -7.7819148700
   39      C       1.6909831958     0.2390154927    -6.5382005929
   40      C       0.9891165534     0.2276436898    -7.7133875783
   41      H      -0.0911864902     0.1594010365    -7.7344378800
   42      C       5.8053914622     0.4997780627    -6.3843214126
   43      H       6.8819480356     0.5662213190    -6.2954023282
   44      C       5.2365795154     0.4983775447    -7.6364712012
   45      H       5.8685286583     0.5633951257    -8.5136365003
   46      C       3.0786871706     0.3985637851    -8.9804850539
   47      H       3.5812829521     0.4585689852    -9.9378927732
   48      C       1.7074567094     0.3089230061    -8.9308080370
   49      H       1.1498100537     0.3001870716    -9.8580148721
   50      B      -1.2262116125    -0.0566847344    -2.2653850849
   51      C      -2.5907833297    -0.2327109579    -3.0269466970
   52      C      -3.2487879491     0.8533501212    -3.6184501819
   53      C      -4.4748156511     0.6738516364    -4.2466944254
   54      H      -4.9641524050     1.5232268162    -4.7096686449
   55      C      -5.0866761927    -0.5740636164    -4.2800497715
   56      C      -4.4354331518    -1.6534604373    -3.6918204196
   57      H      -4.8977919632    -2.6335427269    -3.7088442359
   58      C      -3.1983559505    -1.4961790888    -3.0835209041
   59      N      -6.3387788949    -0.7431925149    -4.8980340907
   60      C      -7.3467196806     0.2214353629    -4.7346511110
   61      C      -8.1631807883     0.5777889209    -5.8071001076
   62      H      -8.0132465809     0.1114667248    -6.7723521748
   63      C      -9.1607760576     1.5236589476    -5.6403031384
   64      H      -9.7859690589     1.7881904873    -6.4831696774
   65      C      -9.3489608488     2.1434017993    -4.4136313419
   66      H     -10.1230552503     2.8885623966    -4.2892985969
   67      C      -8.5319045148     1.7958200578    -3.3478208919
   68      H      -8.6707764016     2.2652826948    -2.3824451499
   69      C      -7.5455236343     0.8362502577    -3.4990936570
   70      H      -6.9216257034     0.5621321887    -2.6580476109
   71      C      -6.5980749472    -1.9086726781    -5.6394194294
   72      C      -7.8039508489    -2.5907360063    -5.4913052299
   73      H      -8.5483229741    -2.2179570050    -4.7995549881
   74      C      -8.0489016890    -3.7412889774    -6.2225663376
   75      H      -8.9899785213    -4.2602468172    -6.0947401482
   76      C      -7.0933756709    -4.2401464687    -7.0953539280
   77      H      -7.2842790412    -5.1443924290    -7.6574275611
   78      C      -5.8890057350    -3.5662493395    -7.2383121126
   79      H      -5.1355796355    -3.9402781415    -7.9194479865
   80      C      -5.6437881525    -2.4044822618    -6.5267801973
   81      H      -4.7052894000    -1.8794021626    -6.6513190423
   82      C      -2.5016530168    -2.7144603850    -2.5329568311
   83      H      -3.2445316896    -3.4547448118    -2.2260051020
   84      H      -1.9438364030    -2.4608633443    -1.6275546258
   85      C      -2.6748445100     2.2454056937    -3.5390370700
   86      H      -2.9665627371     2.8125493952    -4.4265362892
   87      H      -1.5822787498     2.2102746103    -3.5542297727
   88      C      -3.1379379930     2.9929452036    -2.2902463531
   89      H      -2.8224258925     2.4816200722    -1.3804575070
   90      H      -2.7236453320     4.0012752397    -2.2624575610
   91      H      -4.2251036517     3.0765035067    -2.2638702626
   92      C      -1.5519978797    -3.3463533550    -3.5492099246
   93      H      -0.7693654163    -2.6495743195    -3.8500559988
   94      H      -2.0875783905    -3.6524999099    -4.4482866187
   95      H      -1.0654041487    -4.2285129046    -3.1312987600
   96      C       2.7100119945    -0.0752640666     0.0248544652
   97      C       3.4605870279     1.0649266195     0.3400796112
   98      C       4.6581976410     0.9487734909     1.0331244509
   99      H       5.2188299710     1.8424794936     1.2841608639
  100      C       5.1508370278    -0.2957205138     1.4071067837
  101      C       4.4093239165    -1.4291964474     1.0931491367
  102      H       4.7842064613    -2.4083188877     1.3698446003
  103      C       3.1995856828    -1.3272809842     0.4217900951
  104      N       6.3757617254    -0.4077202102     2.0899262881
  105      C       7.4658204034     0.4049427681     1.7381780303
  106      C       7.7633190077     0.6621992986     0.4004517366
  107      H       7.1482544380     0.2291006316    -0.3774136213
  108      C       8.8392157256     1.4674909583     0.0657101240
  109      H       9.0546614366     1.6576666728    -0.9778174602
  110      C       9.6489627622     2.0122000170     1.0515209409
  111      H      10.4931624756     2.6341353652     0.7858625900
  112      C       9.3616626108     1.7488070849     2.3827864699
  113      H       9.9792434557     2.1715031741     3.1647785902
  114      C       8.2758850578     0.9620428359     2.7276759520
  115      H       8.0542575203     0.7749288956     3.7704704677
  116      C       6.5215179376    -1.3518098624     3.1200184704
  117      C       5.5164337126    -1.5249558046     4.0700590494
  118      H       4.6190132855    -0.9227598930     4.0142703619
  119      C       5.6627427846    -2.4630432957     5.0781559318
  120      H       4.8720921382    -2.5869040610     5.8068093647
  121      C       6.8172722730    -3.2266452673     5.1702915261
  122      H       6.9314055876    -3.9529751764     5.9637235929
  123      C       7.8236534151    -3.0473094699     4.2327909619
  124      H       8.7279146139    -3.6395890249     4.2877238122
  125      C       7.6768045441    -2.1269343820     3.2086342085
  126      H       8.4620194028    -2.0053857018     2.4736090638
  127      C       2.4791594447    -2.5980900941     0.0526199056
  128      H       2.5576799480    -3.3154778700     0.8737041582
  129      H       1.4094662535    -2.4082560848    -0.0726716873
  130      C       2.9585147189     2.4479377251     0.0138981608
  131      H       3.7948298737     3.0741805776    -0.3082957053
  132      H       2.2680158675     2.4167941866    -0.8336952229
  133      C       3.0382953074    -3.2244722770    -1.2228860839
  134      H       2.9539482841    -2.5406181519    -2.0676561799
  135      H       2.5019282350    -4.1385984936    -1.4794559051
  136      H       4.0930314486    -3.4766828873    -1.1063217834
  137      C       2.2679307767     3.1058052041     1.2065255076
  138      H       1.4044598470     2.5250984968     1.5313304371
  139      H       1.9186925447     4.1074134538     0.9540923697
  140      H       2.9480362613     3.1921864850     2.0546645942
 ----------------------------------------------------------------

   15   -3084.7835036809      6.51e-09  Convergence criterion met
 Total energy in the final basis set =    -3084.7835036809

         TDDFT/TDA Excitation Energies
 ---------------------------------------------------

 Excited state   1: excitation energy (eV) =    2.3494
 Total energy for state  1:                 -3084.69716536 au
    Multiplicity: Triplet
    Trans. Mom.:  0.0000 X   0.0000 Y   0.0000 Z
    Strength   :     0.0000000000
    D(263) --> V(  2) amplitude = -0.2619
    D(267) --> V(  1) amplitude =  0.8120
    D(268) --> V(  1) amplitude =  0.4011

 Excited state   2: excitation energy (eV) =    2.4741
 Total energy for state  2:                 -3084.69258321 au
    Multiplicity: Triplet
    Trans. Mom.:  0.0000 X   0.0000 Y   0.0000 Z
    Strength   :     0.0000000000
    D(266) --> V(  1) amplitude =  0.2432
    D(268) --> V(  1) amplitude =  0.2329
    D(270) --> V(  1) amplitude =  0.8286

 Excited state   3: excitation energy (eV) =    2.5099
 Total energy for state  3:                 -3084.69126524 au
    Multiplicity: Triplet
    Trans. Mom.:  0.0000 X   0.0000 Y   0.0000 Z
    Strength   :     0.0000000000
    D(266) --> V(  2) amplitude = -0.4705
    D(267) --> V(  1) amplitude = -0.3227
    D(268) --> V(  1) amplitude =  0.6453
    D(270) --> V(  1) amplitude = -0.2946

 Excited state   4: excitation energy (eV) =    2.5299
 Total energy for state  4:                 -3084.69053304 au
    Multiplicity: Singlet
    Trans. Mom.:  0.1618 X   0.0714 Y  -0.0256 Z
    Strength   :     0.0019793189
    D(270) --> V(  1) amplitude =  0.9532

 Excited state   5: excitation energy (eV) =    2.5383
 Total energy for state  5:                 -3084.69022241 au
    Multiplicity: Triplet
    Trans. Mom.:  0.0000 X   0.0000 Y   0.0000 Z
    Strength   :     0.0000000000
    D(269) --> V(  1) amplitude =  0.9225

 Excited state   6: excitation energy (eV) =    2.5631
 Total energy for state  6:                 -3084.68931101 au
    Multiplicity: Triplet
    Trans. Mom.:  0.0000 X   0.0000 Y   0.0000 Z
    Strength   :     0.0000000000
    D(266) --> V(  1) amplitude = -0.6535
    D(266) --> V(  4) amplitude = -0.2330
    D(268) --> V(  2) amplitude =  0.4987
    D(270) --> V(  1) amplitude =  0.3126

 Excited state   7: excitation energy (eV) =    2.5685
 Total energy for state  7:                 -3084.68911486 au
    Multiplicity: Singlet
    Trans. Mom.:  0.6711 X   0.0134 Y   0.3794 Z
    Strength   :     0.0374082822
    D(269) --> V(  1) amplitude =  0.9595

 Excited state   8: excitation energy (eV) =    2.7797
 Total energy for state  8:                 -3084.68135061 au
    Multiplicity: Triplet
    Trans. Mom.:  0.0000 X   0.0000 Y   0.0000 Z
    Strength   :     0.0000000000
    D(263) --> V(  1) amplitude =  0.6529
    D(267) --> V(  2) amplitude = -0.5382

 Excited state   9: excitation energy (eV) =    3.0291
 Total energy for state  9:                 -3084.67218504 au
    Multiplicity: Singlet
    Trans. Mom.:  0.0591 X   0.0116 Y  -0.1353 Z
    Strength   :     0.0016276042
    D(267) --> V(  1) amplitude =  0.8800
    D(268) --> V(  1) amplitude =  0.3917

 Excited state  10: excitation energy (eV) =    3.3158
 Total energy for state 10:                 -3084.66165029 au
    Multiplicity: Singlet
    Trans. Mom.:  1.6713 X   0.0889 Y  -2.8747 Z
    Strength   :     0.8988700530
    D(267) --> V(  1) amplitude = -0.3838
    D(268) --> V(  1) amplitude =  0.8623

 Excited state  11: excitation energy (eV) =    3.5852
 Total energy for state 11:                 -3084.65174870 au
    Multiplicity: Singlet
    Trans. Mom.: -0.2024 X  -0.1333 Y  -0.0587 Z
    Strength   :     0.0054630978
    D(266) --> V(  1) amplitude = -0.9128

 Excited state  12: excitation energy (eV) =    3.6385
 Total energy for state 12:                 -3084.64979279 au
    Multiplicity: Singlet
    Trans. Mom.: -0.0463 X   0.0378 Y   0.0902 Z
    Strength   :     0.0010445460
    D(269) --> V(  2) amplitude = -0.2788
    D(270) --> V(  2) amplitude =  0.9481

 ---------------------------------------------------

                    Orbital Energies (a.u.)
 --------------------------------------------------------------

 Alpha MOs
 -- Occupied --
-14.668 -14.668 -10.489 -10.489 -10.489 -10.488 -10.483 -10.483
-10.465 -10.464 -10.464 -10.464 -10.464 -10.464 -10.463 -10.463
-10.462 -10.462 -10.462 -10.462 -10.462 -10.461 -10.460 -10.460
-10.460 -10.459 -10.459 -10.459 -10.459 -10.459 -10.454 -10.453
-10.451 -10.451 -10.448 -10.448 -10.448 -10.448 -10.448 -10.447
-10.447 -10.447 -10.447 -10.447 -10.447 -10.447 -10.446 -10.446
-10.444 -10.444 -10.443 -10.443 -10.443 -10.443 -10.443 -10.443
-10.442 -10.442 -10.442 -10.441 -10.434 -10.434 -10.433 -10.433
-10.433 -10.433 -10.433 -10.432 -10.432 -10.432 -10.432 -10.431
-10.420 -10.419 -10.419 -10.419 -10.418 -10.418  -6.949  -6.947
 -1.078  -1.078  -1.016  -1.015  -0.963  -0.960  -0.959  -0.959
 -0.959  -0.958  -0.939  -0.939  -0.933  -0.933  -0.908  -0.900
 -0.888  -0.887  -0.867  -0.865  -0.854  -0.853  -0.850  -0.850
 -0.847  -0.846  -0.839  -0.839  -0.837  -0.836  -0.824  -0.821
 -0.819  -0.813  -0.812  -0.804  -0.798  -0.798  -0.790  -0.789
 -0.734  -0.730  -0.727  -0.720  -0.716  -0.715  -0.710  -0.709
 -0.698  -0.698  -0.697  -0.697  -0.689  -0.681  -0.681  -0.680
 -0.679  -0.673  -0.667  -0.665  -0.649  -0.647  -0.638  -0.636
 -0.630  -0.629  -0.604  -0.604  -0.595  -0.594  -0.592  -0.589
 -0.586  -0.584  -0.584  -0.575  -0.574  -0.562  -0.561  -0.554
 -0.553  -0.543  -0.543  -0.541  -0.541  -0.537  -0.528  -0.524
 -0.523  -0.522  -0.516  -0.511  -0.510  -0.507  -0.502  -0.502
 -0.501  -0.499  -0.497  -0.496  -0.496  -0.496  -0.494  -0.490
 -0.488  -0.487  -0.484  -0.483  -0.483  -0.483  -0.483  -0.482
 -0.481  -0.481  -0.478  -0.477  -0.475  -0.468  -0.466  -0.465
 -0.462  -0.455  -0.454  -0.450  -0.442  -0.441  -0.435  -0.434
 -0.434  -0.432  -0.430  -0.427  -0.426  -0.426  -0.425  -0.424
 -0.422  -0.422  -0.420  -0.416  -0.412  -0.411  -0.406  -0.405
 -0.404  -0.402  -0.399  -0.397  -0.397  -0.397  -0.396  -0.395
 -0.394  -0.394  -0.392  -0.391  -0.390  -0.388  -0.387  -0.384
 -0.378  -0.370  -0.367  -0.364  -0.355  -0.354  -0.350  -0.349
 -0.341  -0.339  -0.317  -0.312  -0.303  -0.302  -0.298  -0.297
 -0.295  -0.294  -0.294  -0.293  -0.285  -0.283  -0.279  -0.272
 -0.272  -0.261  -0.256  -0.255  -0.219  -0.218

          Ground-State Mulliken Net Atomic Charges

     Atom                 Charge (a.u.)
  ----------------------------------------
      1 C                    -0.152859
      2 C                    -0.385954
      3 H                     0.233096
      4 C                     0.087805
      5 C                     0.112147
      6 C                    -0.392393
      7 H                     0.234876
      8 C                    -0.152613
      9 C                     0.197022
     10 C                    -0.378322
     11 H                     0.217221
     12 C                    -0.064582
     13 C                     0.252171
     14 C                     0.198331
     15 C                    -0.386241
     16 H                     0.217877
     17 C                    -0.205097
     18 H                     0.226176
     19 C                    -0.332379
     20 H                     0.220096
     21 C                    -0.336752
     22 H                     0.220499
     23 C                    -0.202688
     24 H                     0.226119
     25 B                     0.661887
     26 C                    -0.152975
     27 C                    -0.384362
     28 H                     0.231893
     29 C                     0.086332
     30 C                     0.114187
     31 C                    -0.397349
     32 H                     0.232332
     33 C                    -0.151101
     34 C                     0.196843
     35 C                    -0.376257
     36 H                     0.216739
     37 C                    -0.063725
     38 C                     0.253440
     39 C                     0.197356
     40 C                    -0.386565
     41 H                     0.218960
     42 C                    -0.205524
     43 H                     0.225972
     44 C                    -0.332755
     45 H                     0.220185
     46 C                    -0.337382
     47 H                     0.220558
     48 C                    -0.202664
     49 H                     0.226358
     50 B                     0.661214
     51 C                    -0.222355
     52 C                     0.080601
     53 C                    -0.353950
     54 H                     0.234061
     55 C                     0.309930
     56 C                    -0.361983
     57 H                     0.234994
     58 C                     0.074812
     59 N                    -0.675178
     60 C                     0.294683
     61 C                    -0.278290
     62 H                     0.244617
     63 C                    -0.214046
     64 H                     0.220211
     65 C                    -0.237758
     66 H                     0.217560
     67 C                    -0.213722
     68 H                     0.218768
     69 C                    -0.276625
     70 H                     0.240763
     71 C                     0.286072
     72 C                    -0.275477
     73 H                     0.244241
     74 C                    -0.215013
     75 H                     0.220448
     76 C                    -0.236473
     77 H                     0.218068
     78 C                    -0.214523
     79 H                     0.219871
     80 C                    -0.272083
     81 H                     0.242213
     82 C                    -0.552305
     83 H                     0.231840
     84 H                     0.256272
     85 C                    -0.548966
     86 H                     0.230283
     87 H                     0.251617
     88 C                    -0.645557
     89 H                     0.240513
     90 H                     0.219715
     91 H                     0.217232
     92 C                    -0.644303
     93 H                     0.242274
     94 H                     0.218108
     95 H                     0.217506
     96 C                    -0.233971
     97 C                     0.081106
     98 C                    -0.354030
     99 H                     0.233621
    100 C                     0.315193
    101 C                    -0.357457
    102 H                     0.234355
    103 C                     0.075800
    104 N                    -0.675850
    105 C                     0.291763
    106 C                    -0.274086
    107 H                     0.239770
    108 C                    -0.213201
    109 H                     0.217347
    110 C                    -0.237684
    111 H                     0.217728
    112 C                    -0.213419
    113 H                     0.220428
    114 C                    -0.278035
    115 H                     0.245196
    116 C                     0.286659
    117 C                    -0.271009
    118 H                     0.239900
    119 C                    -0.214121
    120 H                     0.218603
    121 C                    -0.236734
    122 H                     0.218037
    123 C                    -0.214215
    124 H                     0.220624
    125 C                    -0.276015
    126 H                     0.244967
    127 C                    -0.556264
    128 H                     0.234119
    129 H                     0.256236
    130 C                    -0.549752
    131 H                     0.232064
    132 H                     0.251522
    133 C                    -0.641212
    134 H                     0.240607
    135 H                     0.217898
    136 H                     0.216355
    137 C                    -0.640497
    138 H                     0.235759
    139 H                     0.219863
    140 H                     0.216215
  ----------------------------------------
  Sum of atomic charges =    -0.000000

                    Cartesian Multipole Moments
 -----------------------------------------------------------------
    Charge (ESU x 10^10)
                -0.0000
    Dipole Moment (Debye)
         X       0.1390      Y      -0.0157      Z       0.0514
       Tot       0.1491
    Quadrupole Moments (Debye-Ang)
        XX    -419.8401     XY       2.3801     YY    -461.3957
        XZ     -11.8868     YZ      -1.8270     ZZ    -408.3397

 Total job time:  21109.51s(wall), 80897.40s(cpu)
        *  Thank you very much for using Q-Chem.  Have a nice day.  *
