 Q-Chem 5.1, Q-Chem, Inc., Pleasanton, CA (2018)
 Q-Chem 5.1.1 for Intel X86 EM64T Linux

User input:
--------------------------------------------------------------
$rem
threads 8
jobtype	opt
method PBEh-3c
basis def2-mSVP
mem_static	512
mem_total	6096
sym_ignore	true
$end

$molecule
read incoords_2.mol
$end

--------------------------------------------------------------

   15   -3084.7239383405      5.58e-09  Convergence criterion met
 Total energy in the final basis set =    -3084.7239383405
   12   -3084.7616548308      5.13e-09  Convergence criterion met
 Total energy in the final basis set =    -3084.7616548308
   11   -3084.7744143369      8.59e-09  Convergence criterion met
 Total energy in the final basis set =    -3084.7744143369
   11   -3084.7787078063      8.40e-09  Convergence criterion met
 Total energy in the final basis set =    -3084.7787078063
   11   -3084.7794994790      9.25e-09  Convergence criterion met
 Total energy in the final basis set =    -3084.7794994790
   11   -3084.7801296221      9.82e-09  Convergence criterion met
 Total energy in the final basis set =    -3084.7801296221
   11   -3084.7807243120      7.59e-09  Convergence criterion met
 Total energy in the final basis set =    -3084.7807243120
   11   -3084.7811886422      6.49e-09  Convergence criterion met
    7   -3084.7825724597      9.17e-09  Convergence criterion met
 Total energy in the final basis set =    -3084.7825724597
    7   -3084.7825758575      9.70e-09  Convergence criterion met
 Total energy in the final basis set =    -3084.7825758575
    8   -3084.7825778990      6.37e-09  Convergence criterion met
 Total energy in the final basis set =    -3084.7825778990
    8   -3084.7825820939      6.16e-09  Convergence criterion met
 Total energy in the final basis set =    -3084.7825820939
    9   -3084.7825869144      4.25e-09  Convergence criterion met
 Total energy in the final basis set =    -3084.7825869144
    8   -3084.7825892152      8.69e-09  Convergence criterion met
 Total energy in the final basis set =    -3084.7825892152

             Standard Nuclear Orientation (Angstroms)
    I     Atom           X                Y                Z
 ----------------------------------------------------------------
    1      N       0.0529551758     0.1807863966    -0.0905430582
    2      C      -0.2618557669     0.4730487163     1.2468455836
    3      C       0.7512420967     0.7441653399     2.1655148438
    4      H       1.7848930486     0.7212414609     1.8455270928
    5      C       0.4379048335     1.0428511266     3.4809086028
    6      H       1.2362313319     1.2513911511     4.1812717856
    7      C      -0.8819159245     1.0584726916     3.9076947695
    8      H      -1.1216592959     1.2838574799     4.9380504623
    9      C      -1.8905286884     0.7828904331     2.9960240929
   10      H      -2.9258901209     0.8000700163     3.3112622836
   11      C      -1.5888644861     0.5029098758     1.6741733343
   12      H      -2.3836419864     0.3041673448     0.9667275945
   13      C       1.0338141543     0.9366221363    -0.7568206751
   14      C       1.9651809936     0.3074727199    -1.5809248264
   15      H       1.9368466468    -0.7687724356    -1.6927113735
   16      C       2.9121828649     1.0538987253    -2.2608847165
   17      H       3.6251614520     0.5509562641    -2.9012948009
   18      C       2.9606210070     2.4328777728    -2.1146074115
   19      H       3.7052795719     3.0129745367    -2.6427998315
   20      C       2.0425927798     3.0591660467    -1.2847512968
   21      H       2.0633322348     4.1348128941    -1.1671786541
   22      C       1.0788841191     2.3219155546    -0.6164631867
   23      H       0.3541208125     2.8201204161     0.0145152314
   24      C      -0.6653089754    -0.8028459972    -0.7935775928
   25      C      -1.0331952096    -1.9922518054    -0.1729839633
   26      H      -0.7475372541    -2.1693184959     0.8576186144
   27      C      -1.7660945680    -2.9554149906    -0.8527265213
   28      C      -1.0201158441    -0.6076465060    -2.1243364633
   29      H      -0.7457005207     0.3149014752    -2.6228656504
   30      C      -1.7248957746    -1.5748185930    -2.8277094970
   31      C      -2.1228402309    -2.7607938708    -2.1944081149
   32      C      -2.1257067961    -1.2791635926    -4.2521269193
   33      H      -2.1485236920    -2.1996846406    -4.8408253348
   34      H      -1.3637257606    -0.6494082074    -4.7181404311
   35      C      -3.4813241390    -0.5808569905    -4.3510410102
   36      C      -2.0975020645    -4.2460727272    -0.1478112607
   37      H      -3.0478254275    -4.6468193898    -0.5116906987
   38      H      -2.2445074197    -4.0550106760     0.9181516589
   39      C      -1.0078988606    -5.3011678046    -0.3263307989
   40      H      -0.0508276424    -4.9455564978     0.0564910338
   41      H      -1.2618435802    -6.2194809200     0.2041726137
   42      H      -0.8715782745    -5.5548985815    -1.3777245308
   43      B      -3.0147657803    -3.7969073713    -2.9694233114
   44      C      -4.5586052307    -3.7941371751    -2.7358994478
   45      C      -5.1286303192    -2.9719251809    -1.7563323470
   46      H      -4.4881982562    -2.3470765197    -1.1444645892
   47      C      -6.5008556824    -2.9459154349    -1.5834869953
   48      C      -7.3279971036    -3.7353076070    -2.4125098209
   49      C      -6.7802770244    -4.5352282949    -3.3936222513
   50      H      -7.4202564797    -5.1212789786    -4.0441404824
   51      C      -5.3959395452    -4.5801375310    -3.5623649806
   52      C      -7.3707113177    -2.1950731344    -0.6710431636
   53      C      -7.1845599961    -1.2807380413     0.3312204442
   54      H      -6.1970558917    -0.9500440333     0.6275785797
   55      C      -8.6909309628    -2.5662757091    -0.9920519166
   56      C      -9.8286545524    -2.0691769759    -0.3655777472
   57      C      -8.7208685558    -3.4994169237    -2.0429345462
   58      C      -9.9335526780    -3.9581502576    -2.4866774373
   59      H     -10.0138958421    -4.6749461919    -3.2947808653
   60      C      -8.3224286063    -0.7563066443     0.9912589345
   61      H      -8.1710703814    -0.0333027320     1.7819460294
   62      C      -9.6057614323    -1.1272295084     0.6660750922
   63      H     -10.4447029271    -0.6963385481     1.1986434459
   64      C     -11.0706288380    -2.5588359869    -0.8383789559
   65      H     -11.9949682641    -2.2118019280    -0.3929149699
   66      C     -11.1076482000    -3.4724757626    -1.8653341530
   67      H     -12.0662831017    -3.8339672426    -2.2143159522
   68      C      -2.3977898576    -4.7810988756    -4.0095131306
   69      C      -1.0088160123    -4.8707129275    -4.1664216081
   70      H      -0.3628214427    -4.2469209030    -3.5583255865
   71      C      -0.4686600733    -5.7432806684    -5.0960369735
   72      C      -1.3257858307    -6.5312355437    -5.8950131784
   73      C      -2.6960604622    -6.4387858974    -5.7627075896
   74      H      -3.3490541057    -7.0304407415    -6.3946946021
   75      C      -3.2477681434    -5.5752895899    -4.8164671126
   76      C       0.9116349918    -6.0563145739    -5.4830253065
   77      C       2.1565501295    -5.6396217408    -5.0951798074
   78      H       2.2959481228    -4.8995968303    -4.3173355221
   79      C       0.8245865181    -7.0236889045    -6.5036054329
   80      C       1.9130610108    -7.5926454697    -7.1534976313
   81      C      -0.5131390835    -7.3456014679    -6.7907066786
   82      C      -0.7808404423    -8.2715965765    -7.7637657155
   83      H      -1.7941048948    -8.5535896164    -8.0229773250
   84      C       3.2876174326    -6.1996365005    -5.7368847039
   85      H       4.2702382151    -5.8683210512    -5.4279247291
   86      C       3.1865997326    -7.1430611730    -6.7321162587
   87      H       4.0829033189    -7.5405482128    -7.1919892063
   88      C       1.6143607021    -8.5483461680    -8.1553211276
   89      H       2.4167483360    -9.0302508728    -8.7002542438
   90      C       0.3076246095    -8.8678555570    -8.4411751358
   91      H       0.1012400898    -9.6000788032    -9.2109582046
   92      B      -4.7933956536    -5.4671437394    -4.6844247806
   93      C      -5.7295329620    -6.2151936866    -5.7037404981
   94      C      -6.2572823832    -5.5261461482    -6.8053499126
   95      C      -7.0421183645    -6.1881738141    -7.7385425502
   96      H      -7.4222508777    -5.6448013245    -8.5964368857
   97      C      -7.3366574429    -7.5395078490    -7.5961403990
   98      C      -6.8366733003    -8.2189071652    -6.4922263870
   99      H      -7.0732933884    -9.2687870062    -6.3586835067
  100      C      -6.0353741836    -7.5749195648    -5.5590226298
  101      N      -8.1258532416    -8.2053311350    -8.5516562762
  102      C      -9.2455117880    -7.5645953022    -9.1072762851
  103      C      -9.4969805831    -7.6448436854   -10.4759975607
  104      H      -8.8178407990    -8.1957596070   -11.1139299175
  105      C     -10.6116710557    -7.0275986667   -11.0182713887
  106      H     -10.7938334582    -7.1015902516   -12.0826232664
  107      C     -11.4798504886    -6.3049816235   -10.2131713122
  108      H     -12.3454513193    -5.8175459257   -10.6412822455
  109      C     -11.2252055491    -6.2151607976    -8.8523978915
  110      H     -11.8981393637    -5.6608669190    -8.2110408697
  111      C     -10.1241256559    -6.8464216497    -8.2982664309
  112      H      -9.9403464297    -6.7853754849    -7.2334493089
  113      C      -7.7981236349    -9.5065735979    -8.9650060685
  114      C      -8.7995620833   -10.4593590632    -9.1520968578
  115      H      -9.8327885645   -10.1962746548    -8.9653250995
  116      C      -8.4786735667   -11.7371800982    -9.5777919788
  117      H      -9.2694569931   -12.4626921310    -9.7189195429
  118      C      -7.1580751839   -12.0957745718    -9.8050505743
  119      H      -6.9104776418   -13.0974092979   -10.1298663568
  120      C      -6.1593727544   -11.1531327191    -9.6097660784
  121      H      -5.1248423459   -11.4152262118    -9.7903072528
  122      C      -6.4724054880    -9.8667211240    -9.2032914516
  123      H      -5.6875114379    -9.1337588142    -9.0696360192
  124      C      -5.5795058925    -8.3537364425    -4.3522091633
  125      H      -5.3094033015    -9.3701575460    -4.6508599847
  126      H      -4.6697897197    -7.9152687530    -3.9325449875
  127      C      -6.6557094809    -8.4153098791    -3.2704813382
  128      C      -5.9118077739    -4.0818726777    -7.0622507187
  129      H      -6.7675789218    -3.5776116399    -7.5184466155
  130      H      -5.7277589627    -3.5580467393    -6.1203881328
  131      C      -4.6955007799    -3.9375233426    -7.9743689752
  132      H      -3.8143180868    -4.4064300875    -7.5360030266
  133      H      -4.8739190085    -4.4099471893    -8.9410132305
  134      H      -4.4609287259    -2.8875138677    -8.1525771549
  135      H      -6.9244218572    -7.4162738377    -2.9264709063
  136      H      -6.3111295698    -8.9830402217    -2.4056960166
  137      H      -7.5618984555    -8.8926146078    -3.6451462059
  138      H      -3.7316525446    -0.3643191458    -5.3903793248
  139      H      -3.4763736917     0.3620300154    -3.8036577085
  140      H      -4.2815859566    -1.1966158804    -3.9399916869
 ----------------------------------------------------------------

    7   -3084.7825904539      9.64e-09  Convergence criterion met
 Total energy in the final basis set =    -3084.7825904539
 Final energy is   -3084.78259045391
 **  OPTIMIZATION CONVERGED  **

                    Orbital Energies (a.u.)
 --------------------------------------------------------------

 Alpha MOs
 -- Occupied --
-14.668 -14.668 -10.489 -10.489 -10.488 -10.488 -10.483 -10.483
-10.465 -10.465 -10.464 -10.464 -10.464 -10.464 -10.463 -10.463
-10.462 -10.462 -10.462 -10.462 -10.462 -10.461 -10.460 -10.460
-10.460 -10.460 -10.459 -10.459 -10.459 -10.459 -10.454 -10.453
-10.451 -10.451 -10.449 -10.448 -10.448 -10.448 -10.448 -10.448
-10.448 -10.447 -10.447 -10.447 -10.447 -10.447 -10.446 -10.446
-10.444 -10.444 -10.444 -10.444 -10.444 -10.443 -10.443 -10.443
-10.443 -10.442 -10.442 -10.442 -10.434 -10.434 -10.433 -10.433
-10.433 -10.433 -10.433 -10.432 -10.432 -10.432 -10.431 -10.431
-10.420 -10.420 -10.419 -10.419 -10.418 -10.417  -6.949  -6.947
 -1.078  -1.078  -1.016  -1.015  -0.963  -0.960  -0.960  -0.959
 -0.959  -0.958  -0.939  -0.939  -0.933  -0.933  -0.908  -0.900
 -0.888  -0.887  -0.867  -0.865  -0.854  -0.853  -0.850  -0.850
 -0.847  -0.847  -0.839  -0.839  -0.837  -0.836  -0.824  -0.821
 -0.819  -0.814  -0.812  -0.804  -0.798  -0.798  -0.790  -0.790
 -0.735  -0.730  -0.727  -0.720  -0.716  -0.715  -0.710  -0.709
 -0.698  -0.698  -0.697  -0.697  -0.689  -0.681  -0.681  -0.680
 -0.679  -0.673  -0.667  -0.665  -0.649  -0.647  -0.638  -0.636
 -0.630  -0.630  -0.604  -0.604  -0.595  -0.594  -0.593  -0.589
 -0.586  -0.585  -0.584  -0.575  -0.574  -0.562  -0.561  -0.554
 -0.553  -0.543  -0.543  -0.542  -0.541  -0.537  -0.528  -0.525
 -0.523  -0.523  -0.516  -0.511  -0.510  -0.507  -0.502  -0.502
 -0.501  -0.497  -0.497  -0.496  -0.496  -0.496  -0.495  -0.490
 -0.488  -0.487  -0.486  -0.484  -0.483  -0.483  -0.482  -0.482
 -0.481  -0.481  -0.478  -0.478  -0.475  -0.468  -0.466  -0.465
 -0.462  -0.454  -0.454  -0.451  -0.441  -0.441  -0.435  -0.434
 -0.434  -0.433  -0.431  -0.427  -0.426  -0.426  -0.424  -0.422
 -0.422  -0.422  -0.420  -0.417  -0.412  -0.412  -0.406  -0.405
 -0.405  -0.403  -0.399  -0.397  -0.397  -0.397  -0.396  -0.395
 -0.394  -0.394  -0.392  -0.391  -0.390  -0.388  -0.387  -0.385
 -0.378  -0.371  -0.367  -0.362  -0.356  -0.355  -0.350  -0.349
 -0.341  -0.339  -0.317  -0.312  -0.303  -0.303  -0.298  -0.298
 -0.295  -0.294  -0.294  -0.293  -0.285  -0.283  -0.279  -0.272
 -0.272  -0.261  -0.256  -0.255  -0.219  -0.218

          Ground-State Mulliken Net Atomic Charges

     Atom                 Charge (a.u.)
  ----------------------------------------
      1 N                    -0.675668
      2 C                     0.294250
      3 C                    -0.277690
      4 H                     0.244372
      5 C                    -0.213894
      6 H                     0.220373
      7 C                    -0.237579
      8 H                     0.217529
      9 C                    -0.213028
     10 H                     0.216565
     11 C                    -0.276122
     12 H                     0.241177
     13 C                     0.282792
     14 C                    -0.268728
     15 H                     0.241319
     16 C                    -0.214647
     17 H                     0.219168
     18 C                    -0.235794
     19 H                     0.218341
     20 C                    -0.215266
     21 H                     0.220863
     22 C                    -0.273693
     23 H                     0.244209
     24 C                     0.315201
     25 C                    -0.354754
     26 H                     0.233750
     27 C                     0.080653
     28 C                    -0.362659
     29 H                     0.235149
     30 C                     0.073126
     31 C                    -0.220918
     32 C                    -0.556965
     33 H                     0.257106
     34 H                     0.233266
     35 C                    -0.645438
     36 C                    -0.547724
     37 H                     0.251394
     38 H                     0.230906
     39 C                    -0.642016
     40 H                     0.216925
     41 H                     0.219624
     42 H                     0.237119
     43 B                     0.662551
     44 C                    -0.157766
     45 C                    -0.388362
     46 H                     0.231403
     47 C                     0.113433
     48 C                     0.086874
     49 C                    -0.385198
     50 H                     0.232131
     51 C                    -0.151214
     52 C                     0.198706
     53 C                    -0.384851
     54 H                     0.216180
     55 C                    -0.064150
     56 C                     0.251970
     57 C                     0.197525
     58 C                    -0.378226
     59 H                     0.217338
     60 C                    -0.202381
     61 H                     0.225387
     62 C                    -0.336632
     63 H                     0.220478
     64 C                    -0.332617
     65 H                     0.220138
     66 C                    -0.205128
     67 H                     0.226144
     68 C                    -0.150194
     69 C                    -0.398605
     70 H                     0.232137
     71 C                     0.113626
     72 C                     0.086817
     73 C                    -0.381689
     74 H                     0.231598
     75 C                    -0.156423
     76 C                     0.197105
     77 C                    -0.386867
     78 H                     0.218054
     79 C                    -0.063590
     80 C                     0.253381
     81 C                     0.197185
     82 C                    -0.375644
     83 H                     0.216624
     84 C                    -0.202426
     85 H                     0.225970
     86 C                    -0.337573
     87 H                     0.220531
     88 C                    -0.332777
     89 H                     0.220189
     90 C                    -0.205552
     91 H                     0.225853
     92 B                     0.659970
     93 C                    -0.231743
     94 C                     0.074377
     95 C                    -0.356165
     96 H                     0.233286
     97 C                     0.313797
     98 C                    -0.351873
     99 H                     0.232714
    100 C                     0.081011
    101 N                    -0.676308
    102 C                     0.287295
    103 C                    -0.275500
    104 H                     0.244629
    105 C                    -0.214552
    106 H                     0.220596
    107 C                    -0.236382
    108 H                     0.218029
    109 C                    -0.214413
    110 H                     0.218464
    111 C                    -0.270548
    112 H                     0.239495
    113 C                     0.292955
    114 C                    -0.278060
    115 H                     0.245105
    116 C                    -0.213487
    117 H                     0.220360
    118 C                    -0.237642
    119 H                     0.217589
    120 C                    -0.213271
    121 H                     0.216745
    122 C                    -0.273904
    123 H                     0.239278
    124 C                    -0.549257
    125 H                     0.231972
    126 H                     0.252155
    127 C                    -0.639702
    128 C                    -0.556061
    129 H                     0.233966
    130 H                     0.257181
    131 C                    -0.643081
    132 H                     0.241991
    133 H                     0.217052
    134 H                     0.217382
    135 H                     0.234556
    136 H                     0.219991
    137 H                     0.216396
    138 H                     0.216865
    139 H                     0.218080
    140 H                     0.244611
  ----------------------------------------
  Sum of atomic charges =    -0.000000

                    Cartesian Multipole Moments
 -----------------------------------------------------------------
    Charge (ESU x 10^10)
                -0.0000
    Dipole Moment (Debye)
         X       0.0031      Y       0.0423      Z      -0.1325
       Tot       0.1391
    Quadrupole Moments (Debye-Ang)
        XX    -408.3586     XY      -7.4554     YY    -442.7666
        XZ     -11.7871     YZ      24.6260     ZZ    -437.3770

 Total job time:  52123.05s(wall), 405553.23s(cpu)
        *  Thank you very much for using Q-Chem.  Have a nice day.  *
