 Q-Chem 5.1, Q-Chem, Inc., Pleasanton, CA (2018)
 Q-Chem 5.1.1 for Intel X86 EM64T Linux

User input:
--------------------------------------------------------------
$rem
threads 8
jobtype	opt
method PBEh-3c
basis def2-mSVP
mem_static	512
mem_total	6096
sym_ignore	true
$end

$molecule
read incoords_1.mol
$end

--------------------------------------------------------------

   15   -3084.7252967740      5.81e-09  Convergence criterion met
 Total energy in the final basis set =    -3084.7252967740
   12   -3084.7628259119      5.14e-09  Convergence criterion met
 Total energy in the final basis set =    -3084.7628259119
   11   -3084.7750190067      9.02e-09  Convergence criterion met
 Total energy in the final basis set =    -3084.7750190067
   12   -3084.7792154374      5.97e-09  Convergence criterion met
 Total energy in the final basis set =    -3084.7792154374
   12   -3084.7798725821      5.18e-09  Convergence criterion met
 Total energy in the final basis set =    -3084.7798725821
   11   -3084.7805347739      8.28e-09  Convergence criterion met
 Total energy in the final basis set =    -3084.7805347739
   11   -3084.7810197207      7.33e-09  Convergence criterion met
 Total energy in the final basis set =    -3084.7810197207
   11   -3084.7814410422      8.62e-09  Convergence criterion met
    9   -3084.7833856132      8.35e-09  Convergence criterion met
 Total energy in the final basis set =    -3084.7833856132
    9   -3084.7833686911      4.74e-09  Convergence criterion met
 Total energy in the final basis set =    -3084.7833686911
    9   -3084.7833580044      5.00e-09  Convergence criterion met
 Total energy in the final basis set =    -3084.7833580044
    9   -3084.7833443859      8.41e-09  Convergence criterion met
 Total energy in the final basis set =    -3084.7833443859
    8   -3084.7833340180      8.18e-09  Convergence criterion met
 Total energy in the final basis set =    -3084.7833340180
    8   -3084.7833323175      6.23e-09  Convergence criterion met
 Total energy in the final basis set =    -3084.7833323175

             Standard Nuclear Orientation (Angstroms)
    I     Atom           X                Y                Z
 ----------------------------------------------------------------
    1      N      -0.0190896191     0.1618871923     0.0871391451
    2      C      -0.0720491264     0.1426920041     1.4906958955
    3      C       1.0782891064     0.3739994066     2.2436644197
    4      H       2.0182170669     0.5629504238     1.7411889254
    5      C       1.0206821260     0.3617897175     3.6272183042
    6      H       1.9229738447     0.5438627424     4.1964162786
    7      C      -0.1736523594     0.1001307141     4.2824418435
    8      H      -0.2131251356     0.0821430660     5.3632115299
    9      C      -1.3173171299    -0.1383890862     3.5344549347
   10      H      -2.2583795487    -0.3371168452     4.0309822657
   11      C      -1.2742834273    -0.1076849408     2.1510492869
   12      H      -2.1747734051    -0.2819343343     1.5761559438
   13      C       0.7272909061     1.1535403638    -0.5722331729
   14      C       1.5125266936     0.8249091222    -1.6764551656
   15      H       1.5542729533    -0.2020355346    -2.0165149451
   16      C       2.2279011639     1.8059449329    -2.3412254824
   17      H       2.8287420254     1.5347363527    -3.1996727501
   18      C       2.1911107063     3.1229464740    -1.9062148740
   19      H       2.7561406819     3.8861009579    -2.4242573883
   20      C       1.4205410380     3.4493806281    -0.8001814083
   21      H       1.3758543234     4.4737454026    -0.4538261459
   22      C       0.6853980185     2.4778435184    -0.1412460625
   23      H       0.0731113836     2.7444308930     0.7105800261
   24      C      -0.7513053939    -0.7748454517    -0.6643012318
   25      C      -0.8254454053    -2.1038838385    -0.2631299910
   26      H      -0.3060637001    -2.4228776250     0.6333737825
   27      C      -1.5652401932    -3.0300621517    -0.9876655527
   28      C      -1.4140231954    -0.3893278850    -1.8250817639
   29      H      -1.3666602251     0.6426807813    -2.1527120963
   30      C      -2.1353313354    -1.3077254482    -2.5743395112
   31      C      -2.2319551448    -2.6440358347    -2.1576446070
   32      C      -2.7668383091    -0.8528736770    -3.8654760534
   33      H      -3.0118214544     0.2100331957    -3.7997445652
   34      H      -3.7177026912    -1.3669238583    -4.0292860393
   35      C      -1.8547713908    -1.0853503117    -5.0688013830
   36      C      -1.6795903658    -4.4369383419    -0.4574213059
   37      H      -0.7604642595    -4.7050938441     0.0695570859
   38      H      -1.7692124903    -5.1501856896    -1.2810780294
   39      C      -2.8679224542    -4.6055882631     0.4871278232
   40      H      -3.8107246169    -4.3933322344    -0.0176383842
   41      H      -2.9210188358    -5.6252986412     0.8698947783
   42      H      -2.7892698982    -3.9309822173     1.3405492921
   43      B      -3.1177143998    -3.6540162768    -2.9751943210
   44      C      -4.6700196078    -3.5954482900    -2.8263101830
   45      C      -5.2613938446    -2.7349304932    -1.8936569075
   46      H      -4.6320862649    -2.1158549147    -1.2643506164
   47      C      -6.6392561923    -2.6722211209    -1.7831273635
   48      C      -7.4480140792    -3.4746287173    -2.6175171758
   49      C      -6.8772423625    -4.3249220549    -3.5417595659
   50      H      -7.5017875738    -4.9321867736    -4.1875876284
   51      C      -5.4887526415    -4.4008835937    -3.6527934002
   52      C      -7.5296077876    -1.8805226634    -0.9267700194
   53      C      -7.3652393744    -0.9411045661     0.0559690184
   54      H      -6.3841313172    -0.6149550827     0.3775043193
   55      C      -8.8430066344    -2.2424610966    -1.2841129258
   56      C      -9.9944775416    -1.7145392660    -0.7101603199
   57      C      -8.8496017384    -3.2074567020    -2.3062471046
   58      C     -10.0526216224    -3.6669930679    -2.7749479638
   59      H     -10.1151799582    -4.4093056927    -3.5613373339
   60      C      -8.5176733484    -0.3839975410     0.6617277907
   61      H      -8.3833223464     0.3583829510     1.4373772575
   62      C      -9.7940864811    -0.7475389308     0.3027952849
   63      H     -10.6447964284    -0.2922509293     0.7949020322
   64      C     -11.2260765618    -2.2044654836    -1.2089900840
   65      H     -12.1602561681    -1.8345248926    -0.8043497493
   66      C     -11.2404573900    -3.1490748302    -2.2081341617
   67      H     -12.1914754208    -3.5111994055    -2.5767584147
   68      C      -2.4785288963    -4.6900098392    -3.9507619344
   69      C      -1.0864635202    -4.7990854493    -4.0618405835
   70      H      -0.4523930373    -4.1521538070    -3.4653895384
   71      C      -0.5272149610    -5.7242318243    -4.9268529836
   72      C      -1.3675545496    -6.5432301068    -5.7123883169
   73      C      -2.7402493540    -6.4281608640    -5.6313745661
   74      H      -3.3804005014    -7.0454971229    -6.2521387281
   75      C      -3.3115719192    -5.5106347884    -4.7498116940
   76      C       0.8609597950    -6.0752221206    -5.2472726592
   77      C       2.0974828238    -5.6566027214    -4.8354716843
   78      H       2.2205639485    -4.8776183138    -4.0937245717
   79      C       0.7952907670    -7.0959044075    -6.2162007620
   80      C       1.8971695393    -7.7159302602    -6.7925190091
   81      C      -0.5362729260    -7.4154958019    -6.5331819042
   82      C      -0.7835880635    -8.3913150150    -7.4619410208
   83      H      -1.7912325522    -8.6749054851    -7.7405836727
   84      C       3.2418206361    -6.2680320072    -5.4023740010
   85      H       4.2177947213    -5.9352966380    -5.0744698230
   86      C       3.1616758779    -7.2631785532    -6.3479085537
   87      H       4.0675015434    -7.6990299156    -6.7508292236
   88      C       1.6194145250    -8.7214606758    -7.7506475367
   89      H       2.4330992700    -9.2440318304    -8.2383383854
   90      C       0.3188444749    -9.0386534678    -8.0658209832
   91      H       0.1285431604    -9.8100882422    -8.8006474143
   92      B      -4.8583741668    -5.3705742483    -4.6875659582
   93      C      -5.7731336747    -6.1753556927    -5.6827749917
   94      C      -6.2324355934    -5.5641117451    -6.8575971405
   95      C      -7.0175236091    -6.2700505538    -7.7575212473
   96      H      -7.3423873638    -5.7884779770    -8.6731247937
   97      C      -7.3849291176    -7.5872839068    -7.5063492533
   98      C      -6.9482862611    -8.1896766322    -6.3325576203
   99      H      -7.2391557350    -9.2118453395    -6.1166778999
  100      C      -6.1425717932    -7.5035803546    -5.4335750977
  101      N      -8.1830143601    -8.2954467247    -8.4232967875
  102      C      -9.2354097883    -7.6437836921    -9.0877047725
  103      C      -9.4446855682    -7.8497433212   -10.4504740774
  104      H      -8.7863129124    -8.5096957631   -11.0005708847
  105      C     -10.4909464170    -7.2165756049   -11.1000809739
  106      H     -10.6401871733    -7.3891724598   -12.1581157845
  107      C     -11.3305546698    -6.3536727489   -10.4113664030
  108      H     -12.1413317502    -5.8536176803   -10.9239097568
  109      C     -11.1180090939    -6.1399450584    -9.0572397742
  110      H     -11.7695532115    -5.4749670308    -8.5052438658
  111      C     -10.0875372116    -6.7856244897    -8.3947446492
  112      H      -9.9379586974    -6.6249866112    -7.3350572234
  113      C      -7.9255596386    -9.6485933646    -8.6973193651
  114      C      -8.9799546766   -10.5516328210    -8.8331244574
  115      H      -9.9993563016   -10.2075365762    -8.7149354616
  116      C      -8.7292804361   -11.8824725896    -9.1210243236
  117      H      -9.5606486342   -12.5679405565    -9.2237367721
  118      C      -7.4279529121   -12.3427293190    -9.2584811902
  119      H      -7.2353930735   -13.3848445197    -9.4751997484
  120      C      -6.3770847144   -11.4488135054    -9.1142169033
  121      H      -5.3563203525   -11.7910236530    -9.2258704221
  122      C      -6.6188602661   -10.1115818007    -8.8469042097
  123      H      -5.7919846902    -9.4199414462    -8.7527528769
  124      C      -5.7506706920    -8.1988288456    -4.1552040593
  125      H      -5.5010261679    -9.2418623140    -4.3677398639
  126      H      -4.8415754563    -7.7555167340    -3.7390381840
  127      C      -6.8626476046    -8.1508980883    -3.1096102681
  128      C      -5.8140066419    -4.1631709138    -7.2216548997
  129      H      -6.6487840542    -3.6441202913    -7.6999048707
  130      H      -5.5845750803    -3.5867601978    -6.3210499420
  131      C      -4.6065543668    -4.1499419366    -8.1564211892
  132      H      -3.7481143996    -4.6416926099    -7.6985248171
  133      H      -4.8267441068    -4.6708646464    -9.0890633919
  134      H      -4.3127780222    -3.1294580999    -8.4043184452
  135      H      -7.1116632063    -7.1228500783    -2.8461545576
  136      H      -6.5640659113    -8.6650078674    -2.1955816278
  137      H      -7.7705222155    -8.6277664410    -3.4806982345
  138      H      -2.3294968159    -0.7428549152    -5.9891067282
  139      H      -1.6202667908    -2.1428032331    -5.1925915892
  140      H      -0.9130592469    -0.5473481435    -4.9563572120
 ----------------------------------------------------------------

    8   -3084.7833290647      6.38e-09  Convergence criterion met
 Total energy in the final basis set =    -3084.7833290647
 Final energy is   -3084.78332906468
 **  OPTIMIZATION CONVERGED  **

                    Orbital Energies (a.u.)
 --------------------------------------------------------------

 Alpha MOs
 -- Occupied --
-14.668 -14.668 -10.489 -10.489 -10.489 -10.488 -10.483 -10.483
-10.465 -10.464 -10.464 -10.464 -10.464 -10.464 -10.463 -10.463
-10.462 -10.462 -10.462 -10.462 -10.462 -10.461 -10.460 -10.460
-10.460 -10.459 -10.459 -10.459 -10.459 -10.459 -10.454 -10.453
-10.451 -10.451 -10.448 -10.448 -10.448 -10.448 -10.448 -10.447
-10.447 -10.447 -10.447 -10.447 -10.447 -10.447 -10.446 -10.446
-10.444 -10.444 -10.443 -10.443 -10.443 -10.443 -10.443 -10.443
-10.442 -10.442 -10.442 -10.441 -10.434 -10.434 -10.433 -10.433
-10.433 -10.433 -10.433 -10.432 -10.432 -10.432 -10.432 -10.431
-10.420 -10.419 -10.419 -10.419 -10.418 -10.418  -6.949  -6.947
 -1.078  -1.078  -1.016  -1.015  -0.963  -0.960  -0.959  -0.959
 -0.959  -0.958  -0.939  -0.939  -0.933  -0.933  -0.908  -0.900
 -0.888  -0.887  -0.867  -0.865  -0.854  -0.853  -0.850  -0.850
 -0.847  -0.846  -0.839  -0.839  -0.837  -0.836  -0.824  -0.821
 -0.819  -0.813  -0.812  -0.804  -0.798  -0.798  -0.790  -0.789
 -0.734  -0.730  -0.727  -0.720  -0.716  -0.715  -0.710  -0.709
 -0.698  -0.698  -0.697  -0.697  -0.689  -0.681  -0.681  -0.680
 -0.679  -0.673  -0.667  -0.665  -0.649  -0.647  -0.638  -0.636
 -0.630  -0.629  -0.604  -0.604  -0.595  -0.594  -0.592  -0.589
 -0.586  -0.584  -0.584  -0.575  -0.574  -0.562  -0.561  -0.554
 -0.553  -0.543  -0.543  -0.541  -0.541  -0.537  -0.528  -0.524
 -0.523  -0.522  -0.516  -0.511  -0.510  -0.507  -0.502  -0.502
 -0.501  -0.499  -0.497  -0.496  -0.496  -0.496  -0.494  -0.490
 -0.488  -0.487  -0.484  -0.483  -0.483  -0.483  -0.483  -0.482
 -0.481  -0.481  -0.478  -0.477  -0.475  -0.468  -0.466  -0.465
 -0.462  -0.455  -0.454  -0.450  -0.442  -0.441  -0.435  -0.434
 -0.434  -0.432  -0.430  -0.427  -0.426  -0.426  -0.425  -0.424
 -0.422  -0.422  -0.420  -0.416  -0.412  -0.411  -0.406  -0.405
 -0.404  -0.402  -0.399  -0.397  -0.397  -0.397  -0.396  -0.395
 -0.394  -0.394  -0.392  -0.391  -0.390  -0.388  -0.387  -0.384
 -0.378  -0.370  -0.367  -0.364  -0.355  -0.354  -0.350  -0.349
 -0.341  -0.339  -0.317  -0.312  -0.303  -0.302  -0.298  -0.297
 -0.295  -0.294  -0.294  -0.293  -0.285  -0.283  -0.279  -0.272
 -0.272  -0.261  -0.256  -0.255  -0.219  -0.218

          Ground-State Mulliken Net Atomic Charges

     Atom                 Charge (a.u.)
  ----------------------------------------
      1 N                    -0.674973
      2 C                     0.294620
      3 C                    -0.278275
      4 H                     0.244665
      5 C                    -0.214115
      6 H                     0.220219
      7 C                    -0.237670
      8 H                     0.217563
      9 C                    -0.213758
     10 H                     0.218799
     11 C                    -0.276805
     12 H                     0.240747
     13 C                     0.285906
     14 C                    -0.272104
     15 H                     0.242262
     16 C                    -0.214427
     17 H                     0.219847
     18 C                    -0.236513
     19 H                     0.218078
     20 C                    -0.214927
     21 H                     0.220437
     22 C                    -0.275461
     23 H                     0.244216
     24 C                     0.310180
     25 C                    -0.354330
     26 H                     0.234050
     27 C                     0.081012
     28 C                    -0.362034
     29 H                     0.234926
     30 C                     0.075447
     31 C                    -0.222731
     32 C                    -0.552399
     33 H                     0.231854
     34 H                     0.256250
     35 C                    -0.644217
     36 C                    -0.549413
     37 H                     0.230366
     38 H                     0.251683
     39 C                    -0.645376
     40 H                     0.240532
     41 H                     0.219700
     42 H                     0.217250
     43 B                     0.661108
     44 C                    -0.153295
     45 C                    -0.392117
     46 H                     0.234816
     47 C                     0.111811
     48 C                     0.088512
     49 C                    -0.386208
     50 H                     0.233046
     51 C                    -0.152690
     52 C                     0.198121
     53 C                    -0.386030
     54 H                     0.217893
     55 C                    -0.064183
     56 C                     0.252046
     57 C                     0.197515
     58 C                    -0.378547
     59 H                     0.217221
     60 C                    -0.202727
     61 H                     0.226140
     62 C                    -0.336648
     63 H                     0.220489
     64 C                    -0.332675
     65 H                     0.220155
     66 C                    -0.205104
     67 H                     0.226151
     68 C                    -0.151214
     69 C                    -0.397498
     70 H                     0.232238
     71 C                     0.114769
     72 C                     0.085890
     73 C                    -0.384197
     74 H                     0.231924
     75 C                    -0.152985
     76 C                     0.197387
     77 C                    -0.386821
     78 H                     0.218966
     79 C                    -0.063485
     80 C                     0.253349
     81 C                     0.197206
     82 C                    -0.376047
     83 H                     0.216834
     84 C                    -0.202661
     85 H                     0.226348
     86 C                    -0.337566
     87 H                     0.220563
     88 C                    -0.332788
     89 H                     0.220218
     90 C                    -0.205608
     91 H                     0.226003
     92 B                     0.661002
     93 C                    -0.234146
     94 C                     0.076030
     95 C                    -0.357695
     96 H                     0.234411
     97 C                     0.315783
     98 C                    -0.354391
     99 H                     0.233614
    100 C                     0.081301
    101 N                    -0.676510
    102 C                     0.287255
    103 C                    -0.276330
    104 H                     0.245015
    105 C                    -0.214220
    106 H                     0.220618
    107 C                    -0.236769
    108 H                     0.218012
    109 C                    -0.214093
    110 H                     0.218605
    111 C                    -0.270933
    112 H                     0.239827
    113 C                     0.292202
    114 C                    -0.278195
    115 H                     0.245207
    116 C                    -0.213394
    117 H                     0.220411
    118 C                    -0.237758
    119 H                     0.217727
    120 C                    -0.213141
    121 H                     0.217341
    122 C                    -0.274164
    123 H                     0.239755
    124 C                    -0.549815
    125 H                     0.232102
    126 H                     0.251608
    127 C                    -0.640477
    128 C                    -0.555982
    129 H                     0.234060
    130 H                     0.256157
    131 C                    -0.641446
    132 H                     0.240668
    133 H                     0.216392
    134 H                     0.217937
    135 H                     0.235750
    136 H                     0.219871
    137 H                     0.216204
    138 H                     0.217509
    139 H                     0.242258
    140 H                     0.218121
  ----------------------------------------
  Sum of atomic charges =    -0.000000

                    Cartesian Multipole Moments
 -----------------------------------------------------------------
    Charge (ESU x 10^10)
                -0.0000
    Dipole Moment (Debye)
         X      -0.0634      Y      -0.0762      Z      -0.1072
       Tot       0.1460
    Quadrupole Moments (Debye-Ang)
        XX    -409.9716     XY      -8.6093     YY    -438.2098
        XZ      -7.9885     YZ      22.8356     ZZ    -439.2527

 Total job time:  31780.53s(wall), 238273.18s(cpu)
        *  Thank you very much for using Q-Chem.  Have a nice day.  *
