 Q-Chem 5.1, Q-Chem, Inc., Pleasanton, CA (2018)
 Q-Chem 5.1.1 for Intel X86 EM64T Linux

User input:
--------------------------------------------------------------
$rem
threads 8
jobtype	sp
method PBEh-3c
basis def2-mSVP
mem_static	1024
mem_total	10000
sym_ignore	true
cis_n_roots             6
cis_singlets            true
cis_triplets		true
rpa                     false
calc_soc 		true
cis_moments             true
cis_relaxed_density	true
$end

$molecule
read s1opt.mol
$end

--------------------------------------------------------------

             Standard Nuclear Orientation (Angstroms)
    I     Atom           X                Y                Z
 ----------------------------------------------------------------
    1      C       0.0000000000     0.0000000000     0.0000000000
    2      C       0.0000000000     0.0000000000     1.4084650000
    3      H       0.9490504414     0.0000000000     1.9342337529
    4      C      -1.1795627616     0.0105754204     2.1168100788
    5      C      -2.4198249660     0.0287763489     1.4143348184
    6      C      -2.4449756416     0.0364377635     0.0444931067
    7      H      -3.4034965173     0.0551866966    -0.4663174067
    8      C      -1.2472960101     0.0224271909    -0.6969596439
    9      C      -3.5035583233     0.0486393266     2.3892576382
   10      C      -4.8751507177     0.0693658895     2.3216301624
   11      H      -5.3999718923     0.0705551803     1.3738229308
   12      C      -2.8888086819     0.0438543306     3.6561613349
   13      C      -3.5927232460     0.0603179085     4.8577513953
   14      C      -1.4816331522     0.0194216253     3.5476839127
   15      C      -0.7499449417     0.0095296785     4.7089991668
   16      H       0.3324896283    -0.0112248873     4.6999911775
   17      C      -5.6125732506     0.0866959796     3.5260249303
   18      H      -6.6941050523     0.1024393320     3.4728430821
   19      C      -5.0054419938     0.0826901624     4.7605635749
   20      H      -5.6099650573     0.0960965606     5.6593890261
   21      C      -1.4372367041     0.0267875430     5.9448238822
   22      H      -0.8541369261     0.0196086747     6.8568363178
   23      C      -2.8097120466     0.0513841424     6.0358881446
   24      H      -3.2888726792     0.0630296336     7.0072211080
   25      B      -1.2582200408     0.0523303251    -2.2215212790
   26      C       0.0457309435    -0.0084449541    -3.0135313531
   27      C       0.0491010720    -0.0063133165    -4.4219697080
   28      H      -0.8892519378     0.0321632686    -4.9677560445
   29      C       1.2271599829    -0.0564176255    -5.1212829813
   30      C       2.4770314565    -0.0957638583    -4.4372997352
   31      C       2.4944763496    -0.0731580942    -3.0604547951
   32      H       3.4399447141    -0.0851579398    -2.5277708294
   33      C       1.2964460831    -0.0333791832    -2.3199756257
   34      C       1.4828608049    -0.0825961838    -6.5544669497
   35      C       0.6985646933    -0.0646772089    -7.6808689421
   36      H      -0.3822752451    -0.0171479483    -7.6226833281
   37      C       2.8821452800    -0.1428603061    -6.7018041457
   38      C       3.5290007475    -0.1902743957    -7.9326579457
   39      C       3.5313052137    -0.1525068943    -5.4481948021
   40      C       4.9020038316    -0.2136344011    -5.4364763079
   41      H       5.4637905450    -0.2267461013    -4.5110526604
   42      C       1.3301197840    -0.1102092550    -8.9427620152
   43      H       0.7140048422    -0.0963642306    -9.8332152299
   44      C       2.6981125946    -0.1719327172    -9.0795650727
   45      H       3.1392550528    -0.2066120686   -10.0682269238
   46      C       5.5878432818    -0.2631988435    -6.6720398825
   47      H       6.6690599455    -0.3128674517    -6.6569555491
   48      C       4.9418298334    -0.2523367023    -7.8867497722
   49      H       5.5144442491    -0.2925084477    -8.8051101567
   50      B       1.3247281414     0.0138797798    -0.7821619138
   51      C       2.6886921697     0.1563628783    -0.0028700157
   52      C       3.3204228211    -0.9407399265     0.5999930329
   53      C       4.5192114505    -0.7746423094     1.2834527429
   54      H       5.0097196282    -1.6331459373     1.7292592300
   55      C       5.0929031508     0.4837715195     1.4096431877
   56      C       4.4600431348     1.5765574257     0.8335466234
   57      H       4.8973230973     2.5633880063     0.9376008721
   58      C       3.2792317927     1.4222953154     0.1206972806
   59      N       6.3033289293     0.6582374921     2.1162462379
   60      C       6.4481412574     0.1074196912     3.3948831704
   61      C       7.6817155264    -0.3880045353     3.8186523208
   62      H       8.5329167809    -0.3471702259     3.1514231677
   63      C       7.8173467804    -0.9356655970     5.0827187285
   64      H       8.7817490757    -1.3170804669     5.3929337263
   65      C       6.7295273193    -1.0188348865     5.9399521213
   66      H       6.8379620359    -1.4569657152     6.9229994125
   67      C       5.5002895374    -0.5346005043     5.5171684662
   68      H       4.6415723661    -0.5865267509     6.1742810944
   69      C       5.3578214477     0.0324031353     4.2624630034
   70      H       4.3962769478     0.4159237197     3.9466514973
   71      C       7.2849924640     1.5041288944     1.5813080245
   72      C       7.9484850042     2.4311670686     2.3845014534
   73      H       7.7101583880     2.4968487250     3.4383677352
   74      C       8.9021291986     3.2740926316     1.8384443350
   75      H       9.4044990288     3.9888754194     2.4775836392
   76      C       9.1968631582     3.2251728133     0.4842101563
   77      H       9.9345212573     3.8923350623     0.0588266754
   78      C       8.5293064263     2.3116384597    -0.3192102365
   79      H       8.7477891997     2.2597600961    -1.3781554703
   80      C       7.5886168474     1.4519406936     0.2204776079
   81      H       7.0742107113     0.7422104975    -0.4145458611
   82      C       2.7410978166    -2.3256588743     0.4659948480
   83      H       1.6494815045    -2.2738355143     0.4633296303
   84      H       3.0144792942    -2.9224757460     1.3402727061
   85      C       2.6209946616     2.6537076279    -0.4519857308
   86      H       2.0965297243     2.4037854746    -1.3769174127
   87      H       3.3905349664     3.3798028622    -0.7278034988
   88      C       3.2112345038    -3.0380003783    -0.7997981179
   89      H       2.9001500534    -2.4986490384    -1.6943687204
   90      H       4.2984626672    -3.1224279820    -0.8221326955
   91      H       2.7950026208    -4.0446647223    -0.8596342881
   92      C       1.6417780266     3.3067808524     0.5219476970
   93      H       0.8274441855     2.6293683875     0.7771899496
   94      H       2.1398099891     3.5923324126     1.4494628624
   95      H       1.2028075498     4.2071503210     0.0883215474
   96      C      -2.6380488043     0.2379362569    -2.9774091838
   97      C      -3.4714954717    -0.8655292793    -3.3105169105
   98      C      -4.6548044144    -0.6691867892    -3.9792134013
   99      H      -5.3021003799    -1.5112918003    -4.1899491339
  100      C      -5.0660174164     0.6303139169    -4.3384093198
  101      N      -6.2445881055     0.8255785766    -5.0099078418
  102      C      -4.2535891737     1.7303251019    -4.0021295396
  103      H      -4.5430981981     2.7245128911    -4.3195285659
  104      C      -3.0696106751     1.5466230284    -3.3326117107
  105      C      -6.7620420395    -0.1619255475    -5.8714182748
  106      C      -8.1200943720    -0.4697177947    -5.8293257819
  107      H      -8.7645957111     0.0206411601    -5.1117160715
  108      C      -8.6322044295    -1.4136985059    -6.6996193065
  109      H      -9.6844477402    -1.6596407110    -6.6606990377
  110      C      -7.8005896763    -2.0496947378    -7.6120851526
  111      H      -8.2068557928    -2.7853880972    -8.2924319204
  112      C      -6.4490510446    -1.7368361795    -7.6537362180
  113      H      -5.8014070255    -2.2187206869    -8.3728765646
  114      C      -5.9243887021    -0.7923240697    -6.7898511812
  115      H      -4.8769428119    -0.5252839003    -6.8402182547
  116      C      -6.9621681422     2.0322889274    -4.8823077233
  117      C      -7.4711217363     2.6577249014    -6.0193547569
  118      H      -7.2975923038     2.2306719505    -6.9982916204
  119      C      -8.1778569557     3.8387144086    -5.8893796676
  120      H      -8.5610597144     4.3306642619    -6.7728142420
  121      C      -8.3844309225     4.3985538582    -4.6354092163
  122      H      -8.9373817638     5.3229259466    -4.5400409484
  123      C      -7.8826254072     3.7694086043    -3.5048472526
  124      H      -8.0517926779     4.1948569060    -2.5253995919
  125      C      -7.1748510450     2.5865341959    -3.6208403913
  126      H      -6.7991351571     2.0848169253    -2.7387191759
  127      C      -3.0681742843    -2.2667497499    -2.9500474379
  128      H      -2.4849919810    -2.2598016078    -2.0290124271
  129      H      -3.9632174694    -2.8607870357    -2.7486106598
  130      C      -2.2549950303     2.7584230298    -2.9756943461
  131      H      -1.2024975540     2.4910793562    -2.8902878492
  132      H      -2.3242579248     3.4915866093    -3.7836638491
  133      C      -2.2602020938    -2.9226292215    -4.0681290810
  134      H      -1.3423030000    -2.3713489721    -4.2659651992
  135      H      -1.9822244113    -3.9388914878    -3.7912460149
  136      H      -2.8343290050    -2.9727126524    -4.9949044473
  137      C      -2.7344511062     3.3909752561    -1.6699364859
  138      H      -2.6625627182     2.6880154913    -0.8412518392
  139      H      -2.1232035998     4.2579097729    -1.4215676476
  140      H      -3.7711479623     3.7241772739    -1.7450578682
 ----------------------------------------------------------------

   15   -3084.7758919944      7.12e-09  Convergence criterion met
 Total energy in the final basis set =    -3084.7758919944

         TDDFT/TDA Excitation Energies
 ---------------------------------------------------

 Excited state   1: excitation energy (eV) =    2.1227
 Total energy for state  1:                 -3084.69788337 au
    Multiplicity: Triplet
    Trans. Mom.:  0.0000 X   0.0000 Y   0.0000 Z
    Strength   :     0.0000000000
    D(270) --> V(  1) amplitude =  0.9452

 Excited state   2: excitation energy (eV) =    2.1513
 Total energy for state  2:                 -3084.69683402 au
    Multiplicity: Singlet
    Trans. Mom.: -0.1450 X   0.0271 Y  -0.1917 Z
    Strength   :     0.0030842552
    D(270) --> V(  1) amplitude =  0.9728

 Excited state   3: excitation energy (eV) =    2.2004
 Total energy for state  3:                 -3084.69502716 au
    Multiplicity: Triplet
    Trans. Mom.:  0.0000 X   0.0000 Y   0.0000 Z
    Strength   :     0.0000000000
    D(267) --> V(  1) amplitude =  0.6909
    D(268) --> V(  1) amplitude =  0.5749

 Excited state   4: excitation energy (eV) =    2.4101
 Total energy for state  4:                 -3084.68732304 au
    Multiplicity: Triplet
    Trans. Mom.:  0.0000 X   0.0000 Y   0.0000 Z
    Strength   :     0.0000000000
    D(266) --> V(  2) amplitude = -0.2513
    D(267) --> V(  1) amplitude =  0.3080
    D(268) --> V(  1) amplitude = -0.3060
    D(269) --> V(  1) amplitude =  0.7792

 Excited state   5: excitation energy (eV) =    2.4337
 Total energy for state  5:                 -3084.68645647 au
    Multiplicity: Triplet
    Trans. Mom.:  0.0000 X   0.0000 Y   0.0000 Z
    Strength   :     0.0000000000
    D(266) --> V(  2) amplitude =  0.4092
    D(267) --> V(  1) amplitude = -0.4047
    D(268) --> V(  1) amplitude =  0.5350
    D(269) --> V(  1) amplitude =  0.4655

 Excited state   6: excitation energy (eV) =    2.4546
 Total energy for state  6:                 -3084.68568604 au
    Multiplicity: Singlet
    Trans. Mom.:  0.5371 X   0.0469 Y   0.2119 Z
    Strength   :     0.0201776463
    D(269) --> V(  1) amplitude =  0.9739

 Excited state   7: excitation energy (eV) =    2.4947
 Total energy for state  7:                 -3084.68421169 au
    Multiplicity: Triplet
    Trans. Mom.:  0.0000 X   0.0000 Y   0.0000 Z
    Strength   :     0.0000000000
    D(266) --> V(  1) amplitude = -0.6909
    D(266) --> V(  4) amplitude =  0.2214
    D(267) --> V(  2) amplitude =  0.3393
    D(268) --> V(  2) amplitude = -0.3977
    D(269) --> V(  1) amplitude =  0.3038

 Excited state   8: excitation energy (eV) =    2.7019
 Total energy for state  8:                 -3084.67659960 au
    Multiplicity: Triplet
    Trans. Mom.:  0.0000 X   0.0000 Y   0.0000 Z
    Strength   :     0.0000000000
    D(261) --> V(  1) amplitude =  0.3012
    D(262) --> V(  1) amplitude = -0.2547
    D(263) --> V(  1) amplitude = -0.5829
    D(267) --> V(  2) amplitude = -0.4430
    D(268) --> V(  2) amplitude = -0.3451

 Excited state   9: excitation energy (eV) =    2.8747
 Total energy for state  9:                 -3084.67024785 au
    Multiplicity: Singlet
    Trans. Mom.: -0.0028 X  -0.0061 Y   0.0427 Z
    Strength   :     0.0001317951
    D(267) --> V(  1) amplitude =  0.7514
    D(268) --> V(  1) amplitude =  0.6083

 Excited state  10: excitation energy (eV) =    3.2039
 Total energy for state 10:                 -3084.65815083 au
    Multiplicity: Singlet
    Trans. Mom.: -1.6589 X   0.0655 Y   2.9830 Z
    Strength   :     0.9147802461
    D(267) --> V(  1) amplitude = -0.5976
    D(268) --> V(  1) amplitude =  0.7378

 Excited state  11: excitation energy (eV) =    3.3751
 Total energy for state 11:                 -3084.65185859 au
    Multiplicity: Singlet
    Trans. Mom.:  0.1009 X   0.0135 Y   0.0896 Z
    Strength   :     0.0015205573
    D(270) --> V(  2) amplitude =  0.9933

 Excited state  12: excitation energy (eV) =    3.4920
 Total energy for state 12:                 -3084.64756365 au
    Multiplicity: Singlet
    Trans. Mom.:  0.0091 X  -0.1227 Y  -0.0294 Z
    Strength   :     0.0013696433
    D(266) --> V(  1) amplitude = -0.9278

 ---------------------------------------------------

                    Orbital Energies (a.u.)
 --------------------------------------------------------------

 Alpha MOs
 -- Occupied --
-14.668 -14.666 -10.489 -10.489 -10.488 -10.487 -10.482 -10.481
-10.466 -10.465 -10.465 -10.465 -10.465 -10.465 -10.464 -10.464
-10.463 -10.463 -10.463 -10.462 -10.462 -10.462 -10.461 -10.461
-10.460 -10.460 -10.460 -10.460 -10.460 -10.460 -10.454 -10.453
-10.452 -10.452 -10.449 -10.449 -10.449 -10.449 -10.448 -10.448
-10.447 -10.447 -10.446 -10.446 -10.446 -10.446 -10.445 -10.445
-10.445 -10.445 -10.444 -10.444 -10.444 -10.444 -10.442 -10.442
-10.441 -10.441 -10.440 -10.439 -10.434 -10.434 -10.434 -10.433
-10.433 -10.432 -10.432 -10.431 -10.430 -10.429 -10.427 -10.426
-10.421 -10.419 -10.417 -10.417 -10.416 -10.416  -6.945  -6.940
 -1.084  -1.077  -1.015  -1.015  -0.962  -0.961  -0.958  -0.958
 -0.957  -0.956  -0.937  -0.937  -0.934  -0.933  -0.907  -0.898
 -0.887  -0.886  -0.866  -0.863  -0.855  -0.854  -0.851  -0.849
 -0.847  -0.847  -0.842  -0.840  -0.838  -0.834  -0.824  -0.820
 -0.818  -0.813  -0.812  -0.803  -0.799  -0.796  -0.789  -0.784
 -0.735  -0.731  -0.728  -0.720  -0.715  -0.714  -0.710  -0.709
 -0.697  -0.697  -0.697  -0.695  -0.689  -0.684  -0.680  -0.680
 -0.678  -0.674  -0.667  -0.666  -0.647  -0.645  -0.637  -0.635
 -0.629  -0.627  -0.604  -0.603  -0.597  -0.593  -0.593  -0.590
 -0.584  -0.584  -0.583  -0.576  -0.576  -0.561  -0.560  -0.553
 -0.552  -0.544  -0.542  -0.541  -0.540  -0.536  -0.528  -0.525
 -0.524  -0.521  -0.516  -0.513  -0.509  -0.507  -0.504  -0.501
 -0.500  -0.498  -0.496  -0.496  -0.495  -0.494  -0.493  -0.489
 -0.488  -0.487  -0.486  -0.485  -0.484  -0.483  -0.483  -0.482
 -0.480  -0.479  -0.478  -0.477  -0.474  -0.467  -0.466  -0.462
 -0.461  -0.455  -0.454  -0.450  -0.442  -0.442  -0.434  -0.433
 -0.433  -0.432  -0.429  -0.427  -0.426  -0.425  -0.424  -0.424
 -0.422  -0.421  -0.419  -0.415  -0.413  -0.410  -0.406  -0.404
 -0.402  -0.402  -0.399  -0.399  -0.398  -0.396  -0.396  -0.395
 -0.395  -0.394  -0.392  -0.391  -0.390  -0.386  -0.386  -0.382
 -0.378  -0.371  -0.366  -0.359  -0.356  -0.354  -0.350  -0.348
 -0.343  -0.334  -0.318  -0.313  -0.306  -0.300  -0.299  -0.296
 -0.296  -0.295  -0.295  -0.292  -0.283  -0.280  -0.279  -0.272
 -0.271  -0.261  -0.254  -0.254  -0.218  -0.212

          Ground-State Mulliken Net Atomic Charges

     Atom                 Charge (a.u.)
  ----------------------------------------
      1 C                    -0.144953
      2 C                    -0.395588
      3 H                     0.232145
      4 C                     0.117094
      5 C                     0.090410
      6 C                    -0.390216
      7 H                     0.234998
      8 C                    -0.140401
      9 C                     0.200911
     10 C                    -0.377191
     11 H                     0.219463
     12 C                    -0.068426
     13 C                     0.250872
     14 C                     0.198639
     15 C                    -0.383212
     16 H                     0.217333
     17 C                    -0.204916
     18 H                     0.226770
     19 C                    -0.331343
     20 H                     0.220693
     21 C                    -0.202266
     22 H                     0.225764
     23 C                    -0.335006
     24 H                     0.221101
     25 B                     0.634900
     26 C                    -0.145423
     27 C                    -0.390857
     28 H                     0.235458
     29 C                     0.091057
     30 C                     0.118380
     31 C                    -0.400004
     32 H                     0.233509
     33 C                    -0.147190
     34 C                     0.198226
     35 C                    -0.375056
     36 H                     0.218461
     37 C                    -0.067933
     38 C                     0.252774
     39 C                     0.197447
     40 C                    -0.383916
     41 H                     0.218260
     42 C                    -0.204981
     43 H                     0.226586
     44 C                    -0.331799
     45 H                     0.220578
     46 C                    -0.202470
     47 H                     0.226002
     48 C                    -0.336029
     49 H                     0.221197
     50 B                     0.649850
     51 C                    -0.221073
     52 C                     0.079568
     53 C                    -0.343438
     54 H                     0.230121
     55 C                     0.289803
     56 C                    -0.348830
     57 H                     0.232681
     58 C                     0.069786
     59 N                    -0.673030
     60 C                     0.305214
     61 C                    -0.280492
     62 H                     0.245243
     63 C                    -0.213584
     64 H                     0.219299
     65 C                    -0.239508
     66 H                     0.216255
     67 C                    -0.211736
     68 H                     0.215176
     69 C                    -0.284066
     70 H                     0.241489
     71 C                     0.292513
     72 C                    -0.281140
     73 H                     0.245812
     74 C                    -0.214064
     75 H                     0.219868
     76 C                    -0.238283
     77 H                     0.217044
     78 C                    -0.212205
     79 H                     0.217236
     80 C                    -0.272967
     81 H                     0.239405
     82 C                    -0.547777
     83 H                     0.250542
     84 H                     0.231355
     85 C                    -0.556164
     86 H                     0.257012
     87 H                     0.233887
     88 C                    -0.645799
     89 H                     0.241416
     90 H                     0.216175
     91 H                     0.219950
     92 C                    -0.645287
     93 H                     0.246167
     94 H                     0.216390
     95 H                     0.217317
     96 C                    -0.250894
     97 C                     0.096599
     98 C                    -0.377185
     99 H                     0.238012
    100 C                     0.325112
    101 N                    -0.659714
    102 C                    -0.380807
    103 H                     0.240312
    104 C                     0.083410
    105 C                     0.266704
    106 C                    -0.268491
    107 H                     0.244717
    108 C                    -0.215914
    109 H                     0.221602
    110 C                    -0.234828
    111 H                     0.218236
    112 C                    -0.217306
    113 H                     0.220396
    114 C                    -0.261399
    115 H                     0.245158
    116 C                     0.266196
    117 C                    -0.266891
    118 H                     0.244788
    119 C                    -0.215928
    120 H                     0.221507
    121 C                    -0.235039
    122 H                     0.218240
    123 C                    -0.217108
    124 H                     0.221231
    125 C                    -0.263355
    126 H                     0.246433
    127 C                    -0.544382
    128 H                     0.248194
    129 H                     0.229382
    130 C                    -0.552359
    131 H                     0.256073
    132 H                     0.231666
    133 C                    -0.646610
    134 H                     0.242153
    135 H                     0.218634
    136 H                     0.215136
    137 C                    -0.643527
    138 H                     0.243047
    139 H                     0.216679
    140 H                     0.215137
  ----------------------------------------
  Sum of atomic charges =    -0.000000

                    Cartesian Multipole Moments
 -----------------------------------------------------------------
    Charge (ESU x 10^10)
                -0.0000
    Dipole Moment (Debye)
         X      -1.0483      Y       0.1078      Z      -0.6862
       Tot       1.2575
    Quadrupole Moments (Debye-Ang)
        XX    -419.9844     XY      -1.2794     YY    -462.5120
        XZ      -9.8792     YZ       1.3128     ZZ    -401.0661

 Total job time:  20659.59s(wall), 79883.62s(cpu)
        *  Thank you very much for using Q-Chem.  Have a nice day.  *
