 Q-Chem 5.1, Q-Chem, Inc., Pleasanton, CA (2018)
 Q-Chem 5.1.1 for Intel X86 EM64T Linux

User input:
--------------------------------------------------------------
$rem
threads 8
jobtype	opt
method PBEh-3c
basis def2-mSVP
mem_static	1024
mem_total	10000
sym_ignore	true
cis_n_roots             2
cis_singlets            true
cis_triplets		false
rpa                     false
cis_state_deriv         1
$end

$molecule
read gsopt_2.mol
$end

--------------------------------------------------------------

   15   -3084.7830352443      6.31e-09  Convergence criterion met
 Total energy in the final basis set =    -3084.7830352443
   12   -3084.7800552937      6.73e-09  Convergence criterion met
 Total energy in the final basis set =    -3084.7800552937
   12   -3084.7768939731      5.30e-09  Convergence criterion met
 Total energy in the final basis set =    -3084.7768939731
   12   -3084.7740880161      6.36e-09  Convergence criterion met
 Total energy in the final basis set =    -3084.7740880161
   11   -3084.7773910753      8.09e-09  Convergence criterion met
 Total energy in the final basis set =    -3084.7773910753
   11   -3084.7772696742      9.27e-09  Convergence criterion met
 Total energy in the final basis set =    -3084.7772696742
   11   -3084.7768873861      8.04e-09  Convergence criterion met
 Total energy in the final basis set =    -3084.7768873861
   10   -3084.7766481012      8.26e-09  Convergence criterion met
 Total energy in the final basis set =    -3084.7766481012
   10   -3084.7767436308      6.27e-09  Convergence criterion met
 Total energy in the final basis set =    -3084.7767436308
   10   -3084.7767946986      6.02e-09  Convergence criterion met
 Total energy in the final basis set =    -3084.7767946986
    9   -3084.7766803097      7.21e-09  Convergence criterion met
 Total energy in the final basis set =    -3084.7766803097
    9   -3084.7765448641      7.99e-09  Convergence criterion met
 Total energy in the final basis set =    -3084.7765448641
    9   -3084.7765900644      4.47e-09  Convergence criterion met
 Total energy in the final basis set =    -3084.7765900644

             Standard Nuclear Orientation (Angstroms)
    I     Atom           X                Y                Z
 ----------------------------------------------------------------
    1      C       0.0464273113    -0.0710715355     0.1458730899
    2      C       0.0529848548    -0.0799752586     1.5544003311
    3      H       1.0037547290    -0.0229633004     2.0745526028
    4      C      -1.1223891199    -0.1555927423     2.2685362685
    5      C      -2.3615758374    -0.2405974033     1.5694740823
    6      C      -2.3917905905    -0.2421523966     0.1985306129
    7      H      -3.3486471285    -0.3065240452    -0.3112960695
    8      C      -1.2013100029    -0.1517385327    -0.5483869053
    9      C      -1.4213330087    -0.1656840370     3.6991885766
   10      C      -0.6876030248    -0.1032572395     4.8570291432
   11      H       0.3923554792    -0.0280222642     4.8437719414
   12      C      -2.8254426633    -0.2592740077     3.8121281205
   13      C      -3.5260006626    -0.2933788225     5.0137014645
   14      C      -3.4395687167    -0.3095292999     2.5457763702
   15      C      -4.8075020694    -0.4017309557     2.4767018540
   16      H      -5.3290590475    -0.4451759348     1.5280776879
   17      C      -1.3715297691    -0.1359269080     6.0941081456
   18      H      -0.7880014163    -0.0847940175     7.0043664669
   19      C      -2.7411191030    -0.2278797132     6.1891602280
   20      H      -3.2163418061    -0.2483869716     7.1621096374
   21      C      -4.9359113733    -0.3873763185     4.9159367105
   22      H      -5.5400646086    -0.4180994076     5.8144192398
   23      C      -5.5423928220    -0.4396284519     3.6816408090
   24      H      -6.6216542686    -0.5119798459     3.6302371838
   25      B       1.3629422138     0.0157380043    -0.6465631051
   26      C       1.3174116251     0.1158704711    -2.1814377890
   27      C       2.5078623853     0.2218442572    -2.9268945865
   28      H       3.4564531207     0.2520256056    -2.4012097977
   29      C       2.4806979516     0.2741529329    -4.3014076301
   30      C       1.2299804380     0.2032691278    -4.9816486677
   31      C       0.0601504174     0.0860603305    -4.2783432863
   32      H      -0.8783086123     0.0149529442    -4.8202940565
   33      C       0.0672601724     0.0496617764    -2.8704645165
   34      C       3.5297266644     0.3799325929    -5.3148433910
   35      C       4.8985080054     0.4828367941    -5.3086888755
   36      H       5.4641324505     0.5002175722    -4.3857119164
   37      C       2.8758840830     0.3694244803    -6.5657761701
   38      C       3.5182051015     0.4551643188    -7.7986409197
   39      C       1.4794828664     0.2648223932    -6.4166493767
   40      C       0.6952924553     0.2464223941    -7.5442000209
   41      H      -0.3840786573     0.1725123791    -7.4873296695
   42      C       5.5786629712     0.5694979377    -6.5455028952
   43      H       6.6581161962     0.6498067191    -6.5333410654
   44      C       4.9286114487     0.5577804227    -7.7579116399
   45      H       5.4954072724     0.6283256131    -8.6782281808
   46      C       2.6872905934     0.4325274312    -8.9453666600
   47      H       3.1264226603     0.4961789800    -9.9336094010
   48      C       1.3221862234     0.3312240998    -8.8069082833
   49      H       0.7039840879     0.3178280006    -9.6959886424
   50      B      -1.2223482248    -0.1280676873    -2.0748320726
   51      C      -2.5809814869    -0.3745374318    -2.8535138280
   52      C      -3.5018174614     0.6759064002    -3.1154857167
   53      C      -4.6821349917     0.4204514145    -3.7718239620
   54      H      -5.3712190289     1.2296636441    -3.9799752238
   55      C      -4.9734977529    -0.8766178565    -4.2364167671
   56      C      -4.0569643943    -1.9185697445    -4.0047056381
   57      H      -4.2976774390    -2.9228990054    -4.3306528508
   58      C      -2.8959191367    -1.6851488418    -3.3095198203
   59      N      -6.1420355372    -1.1274188954    -4.9133152224
   60      C      -7.3112768496    -0.3956279961    -4.6326855669
   61      C      -8.1032654799     0.0711684092    -5.6802349671
   62      H      -7.8006936813    -0.0992515526    -6.7050570101
   63      C      -9.2659783201     0.7640904748    -5.3999857173
   64      H      -9.8753283531     1.1340043075    -6.2130592868
   65      C      -9.6449179197     0.9935085549    -4.0837313351
   66      H     -10.5561550062     1.5347047414    -3.8694495038
   67      C      -8.8556135435     0.5234463992    -3.0432990535
   68      H      -9.1548006067     0.6875654750    -2.0174075419
   69      C      -7.6910441338    -0.1735859809    -3.3099521037
   70      H      -7.0886874712    -0.5654521576    -2.5009952868
   71      C      -6.2033858163    -2.1301776756    -5.8997470245
   72      C      -7.2927853128    -2.9998290902    -5.9444745563
   73      H      -8.0810820918    -2.9221446266    -5.2072445671
   74      C      -7.3467281727    -3.9754294341    -6.9225319310
   75      H      -8.1853943079    -4.6575881931    -6.9483305271
   76      C      -6.3261616153    -4.0902616014    -7.8574346945
   77      H      -6.3735890237    -4.8562533448    -8.6191771585
   78      C      -5.2470029227    -3.2187821157    -7.8143121257
   79      H      -4.4564582723    -3.2953319404    -8.5478659598
   80      C      -5.1818782570    -2.2367038902    -6.8430895219
   81      H      -4.3520305812    -1.5426485613    -6.8235302516
   82      C      -3.1822108787     2.0925445723    -2.7296395306
   83      H      -4.1092553555     2.6226370840    -2.4976759830
   84      H      -2.5813347552     2.1011353268    -1.8199848959
   85      C      -2.0016510691    -2.8529489492    -2.9991441055
   86      H      -2.0499146680    -3.5720647771    -3.8208782839
   87      H      -0.9649136174    -2.5232654667    -2.9370886763
   88      C      -2.4380206927     2.8275503406    -3.8433230061
   89      H      -1.4841984285     2.3500970587    -4.0614748517
   90      H      -3.0243420856     2.8517461993    -4.7632194519
   91      H      -2.2326166176     3.8563335303    -3.5498195485
   92      C      -2.4022155683    -3.5419291936    -1.6954635432
   93      H      -2.3378630920    -2.8573202301    -0.8510260571
   94      H      -3.4229320623    -3.9243699679    -1.7450362989
   95      H      -1.7402096664    -4.3826925088    -1.4905316436
   96      C       2.7560114685    -0.0785473212     0.0870166912
   97      C       3.5425770742     1.0537804797     0.3440390057
   98      C       4.7686192394     0.9284730057     0.9866319317
   99      H       5.3597228406     1.8126688862     1.1990426763
  100      C       5.2496069124    -0.3211689783     1.3547141365
  101      C       4.4856495171    -1.4473402766     1.0818351297
  102      H       4.8609135860    -2.4269081939     1.3566133828
  103      C       3.2453279690    -1.3363538958     0.4690899335
  104      N       6.4996692681    -0.4530065295     1.9988626408
  105      C       7.6298395076     0.1727952068     1.4602346058
  106      C       7.7778606065     0.3034039272     0.0789267013
  107      H       7.0177631881    -0.0955845596    -0.5802389652
  108      C       8.8861385237     0.9441133129    -0.4480402604
  109      H       8.9811188187     1.0379610027    -1.5223157919
  110      C       9.8746043373     1.4487969765     0.3839690427
  111      H      10.7415034869     1.9444870702    -0.0318282081
  112      C       9.7339128252     1.3112966228     1.7575184633
  113      H      10.4910484136     1.7078808950     2.4217685516
  114      C       8.6206938194     0.6893048770     2.2959005307
  115      H       8.5123420466     0.6059780257     3.3695152209
  116      C       6.6090468046    -1.3261902964     3.0902263675
  117      C       5.6125836058    -1.3519459462     4.0665743604
  118      H       4.7670699135    -0.6811769147     3.9842861642
  119      C       5.6942722543    -2.2389831865     5.1255456901
  120      H       4.9090099388    -2.2476420338     5.8705697282
  121      C       6.7736176555    -3.1031712072     5.2433394807
  122      H       6.8356933519    -3.7919845617     6.0751184654
  123      C       7.7688501521    -3.0747238189     4.2780175972
  124      H       8.6117365116    -3.7503459404     4.3476497372
  125      C       7.6866796219    -2.2038884956     3.2040592333
  126      H       8.4580045792    -2.2094742125     2.4445824481
  127      C       3.0440178599     2.4297881129    -0.0155751933
  128      H       3.8953239669     3.0858723070    -0.2157687063
  129      H       2.4686480566     2.3873768889    -0.9435666146
  130      C       2.4798621925    -2.6013273243     0.1667065755
  131      H       2.7131809796    -3.3540289214     0.9246254686
  132      H       1.4059108983    -2.4188168921     0.2428761960
  133      C       2.1787596348     3.0444901692     1.0816630282
  134      H       1.2864720529     2.4452282015     1.2629437625
  135      H       1.8518063323     4.0480239897     0.8056420958
  136      H       2.7283600207     3.1168564953     2.0210158854
  137      C       2.7974015853    -3.1675634538    -1.2162086720
  138      H       2.5239423693    -2.4655722919    -2.0035481281
  139      H       2.2503413697    -4.0955260731    -1.3919557227
  140      H       3.8616960720    -3.3834144243    -1.3188337419
 ----------------------------------------------------------------

    8   -3084.7766228032      7.57e-09  Convergence criterion met
 Total energy in the final basis set =    -3084.7766228032

         TDDFT/TDA Excitation Energies
 ---------------------------------------------------

 Excited state   1: excitation energy (eV) =    2.1745
 Total energy for state  1:                 -3084.69671284 au
    Multiplicity: Singlet
    Trans. Mom.:  0.4483 X   0.0706 Y   0.3601 Z
    Strength   :     0.0178784990
    D(270) --> V(  1) amplitude =  0.9728

 Excited state   2: excitation energy (eV) =    2.4594
 Total energy for state  2:                 -3084.68624191 au
    Multiplicity: Singlet
    Trans. Mom.:  0.4741 X  -0.0477 Y   0.3427 Z
    Strength   :     0.0207528054
    D(269) --> V(  1) amplitude =  0.9742

 ---------------------------------------------------

 Final energy is   -3084.69671283852
 **  OPTIMIZATION CONVERGED  **

                    Orbital Energies (a.u.)
 --------------------------------------------------------------

 Alpha MOs
 -- Occupied --
-14.668 -14.666 -10.490 -10.489 -10.488 -10.488 -10.482 -10.481
-10.466 -10.466 -10.465 -10.465 -10.465 -10.465 -10.464 -10.464
-10.463 -10.463 -10.463 -10.463 -10.463 -10.463 -10.461 -10.461
-10.461 -10.460 -10.460 -10.460 -10.460 -10.460 -10.454 -10.453
-10.452 -10.452 -10.449 -10.449 -10.449 -10.448 -10.448 -10.448
-10.448 -10.448 -10.446 -10.446 -10.446 -10.446 -10.445 -10.445
-10.445 -10.445 -10.445 -10.445 -10.444 -10.443 -10.442 -10.442
-10.441 -10.441 -10.440 -10.439 -10.434 -10.434 -10.434 -10.433
-10.433 -10.433 -10.432 -10.431 -10.431 -10.429 -10.428 -10.428
-10.421 -10.419 -10.417 -10.417 -10.417 -10.416  -6.945  -6.940
 -1.084  -1.077  -1.015  -1.015  -0.962  -0.961  -0.958  -0.958
 -0.958  -0.956  -0.938  -0.937  -0.934  -0.934  -0.907  -0.899
 -0.887  -0.887  -0.866  -0.863  -0.855  -0.854  -0.851  -0.849
 -0.848  -0.847  -0.841  -0.839  -0.838  -0.834  -0.824  -0.820
 -0.818  -0.813  -0.812  -0.803  -0.799  -0.797  -0.789  -0.784
 -0.736  -0.732  -0.728  -0.721  -0.715  -0.714  -0.710  -0.709
 -0.698  -0.697  -0.697  -0.696  -0.690  -0.683  -0.681  -0.680
 -0.678  -0.674  -0.667  -0.666  -0.648  -0.645  -0.637  -0.635
 -0.630  -0.627  -0.604  -0.603  -0.597  -0.593  -0.593  -0.590
 -0.584  -0.584  -0.583  -0.576  -0.576  -0.561  -0.560  -0.553
 -0.552  -0.544  -0.543  -0.541  -0.540  -0.536  -0.528  -0.525
 -0.525  -0.521  -0.516  -0.513  -0.509  -0.508  -0.504  -0.501
 -0.500  -0.497  -0.496  -0.495  -0.495  -0.494  -0.494  -0.489
 -0.488  -0.488  -0.486  -0.485  -0.484  -0.484  -0.483  -0.483
 -0.480  -0.479  -0.479  -0.477  -0.475  -0.467  -0.466  -0.461
 -0.461  -0.455  -0.454  -0.450  -0.442  -0.441  -0.434  -0.434
 -0.433  -0.433  -0.430  -0.427  -0.427  -0.425  -0.424  -0.423
 -0.421  -0.420  -0.419  -0.415  -0.412  -0.410  -0.408  -0.404
 -0.403  -0.402  -0.399  -0.399  -0.397  -0.396  -0.396  -0.395
 -0.395  -0.394  -0.393  -0.391  -0.390  -0.386  -0.385  -0.385
 -0.378  -0.372  -0.367  -0.360  -0.356  -0.355  -0.349  -0.347
 -0.344  -0.334  -0.318  -0.313  -0.305  -0.300  -0.299  -0.297
 -0.296  -0.295  -0.295  -0.292  -0.283  -0.281  -0.279  -0.272
 -0.272  -0.261  -0.255  -0.254  -0.218  -0.212

          Ground-State Mulliken Net Atomic Charges

     Atom                 Charge (a.u.)
  ----------------------------------------
      1 C                    -0.144090
      2 C                    -0.400835
      3 H                     0.232999
      4 C                     0.117858
      5 C                     0.090644
      6 C                    -0.387532
      7 H                     0.232531
      8 C                    -0.145603
      9 C                     0.196970
     10 C                    -0.383534
     11 H                     0.218215
     12 C                    -0.067713
     13 C                     0.252740
     14 C                     0.199052
     15 C                    -0.374588
     16 H                     0.217652
     17 C                    -0.202449
     18 H                     0.226133
     19 C                    -0.335717
     20 H                     0.221202
     21 C                    -0.331996
     22 H                     0.220740
     23 C                    -0.204868
     24 H                     0.226247
     25 B                     0.650393
     26 C                    -0.151678
     27 C                    -0.393469
     28 H                     0.232008
     29 C                     0.117324
     30 C                     0.091665
     31 C                    -0.391283
     32 H                     0.236077
     33 C                    -0.140022
     34 C                     0.199031
     35 C                    -0.383233
     36 H                     0.217490
     37 C                    -0.068510
     38 C                     0.250848
     39 C                     0.199770
     40 C                    -0.376066
     41 H                     0.217999
     42 C                    -0.202257
     43 H                     0.225754
     44 C                    -0.335220
     45 H                     0.221222
     46 C                    -0.331088
     47 H                     0.220694
     48 C                    -0.204756
     49 H                     0.226521
     50 B                     0.631608
     51 C                    -0.248391
     52 C                     0.096499
     53 C                    -0.373148
     54 H                     0.237160
     55 C                     0.320576
     56 C                    -0.377167
     57 H                     0.239533
     58 C                     0.085003
     59 N                    -0.659858
     60 C                     0.268443
     61 C                    -0.269641
     62 H                     0.245466
     63 C                    -0.215791
     64 H                     0.221601
     65 C                    -0.235186
     66 H                     0.218032
     67 C                    -0.216618
     68 H                     0.219261
     69 C                    -0.261924
     70 H                     0.244677
     71 C                     0.268375
     72 C                    -0.269714
     73 H                     0.245497
     74 C                    -0.215530
     75 H                     0.221453
     76 C                    -0.235959
     77 H                     0.217956
     78 C                    -0.215907
     79 H                     0.220103
     80 C                    -0.263095
     81 H                     0.245124
     82 C                    -0.546917
     83 H                     0.229788
     84 H                     0.248214
     85 C                    -0.554523
     86 H                     0.232125
     87 H                     0.256485
     88 C                    -0.645798
     89 H                     0.241700
     90 H                     0.216140
     91 H                     0.218831
     92 C                    -0.644135
     93 H                     0.243742
     94 H                     0.216531
     95 H                     0.216392
     96 C                    -0.221025
     97 C                     0.079106
     98 C                    -0.341733
     99 H                     0.230024
    100 C                     0.287955
    101 C                    -0.347790
    102 H                     0.232348
    103 C                     0.071209
    104 N                    -0.672737
    105 C                     0.306107
    106 C                    -0.284276
    107 H                     0.241360
    108 C                    -0.211678
    109 H                     0.215096
    110 C                    -0.239612
    111 H                     0.216213
    112 C                    -0.213571
    113 H                     0.219323
    114 C                    -0.281025
    115 H                     0.245422
    116 C                     0.292261
    117 C                    -0.272881
    118 H                     0.239506
    119 C                    -0.212234
    120 H                     0.217197
    121 C                    -0.238265
    122 H                     0.217112
    123 C                    -0.214283
    124 H                     0.219974
    125 C                    -0.281053
    126 H                     0.245905
    127 C                    -0.547512
    128 H                     0.231280
    129 H                     0.251015
    130 C                    -0.556650
    131 H                     0.233858
    132 H                     0.258179
    133 C                    -0.645829
    134 H                     0.240889
    135 H                     0.220159
    136 H                     0.216336
    137 C                    -0.646250
    138 H                     0.245578
    139 H                     0.217761
    140 H                     0.216946
  ----------------------------------------
  Sum of atomic charges =    -0.000000

                    Cartesian Multipole Moments
 -----------------------------------------------------------------
    Charge (ESU x 10^10)
                -0.0000
    Dipole Moment (Debye)
         X      -1.0332      Y      -0.0726      Z      -0.4763
       Tot       1.1400
    Quadrupole Moments (Debye-Ang)
        XX    -418.8230     XY       2.6063     YY    -465.0993
        XZ     -12.4389     YZ      -0.8661     ZZ    -401.8917

 Total job time:  62669.64s(wall), 436439.23s(cpu)
        *  Thank you very much for using Q-Chem.  Have a nice day.  *
