 Q-Chem 5.1, Q-Chem, Inc., Pleasanton, CA (2018)
 Q-Chem 5.1.1 for Intel X86 EM64T Linux

User input:
--------------------------------------------------------------
$rem
threads 8
jobtype	opt
method PBEh-3c
basis def2-mSVP
mem_static	1024
mem_total	10000
sym_ignore	true
cis_n_roots             2
cis_singlets            true
cis_triplets		false
rpa                     false
cis_state_deriv         1
$end

$molecule
read incoords.mol
$end

--------------------------------------------------------------

   15   -3084.7835036810      6.51e-09  Convergence criterion met
 Total energy in the final basis set =    -3084.7835036810
   12   -3084.7809890378      6.53e-09  Convergence criterion met
 Total energy in the final basis set =    -3084.7809890378
   12   -3084.7765978247      5.56e-09  Convergence criterion met
 Total energy in the final basis set =    -3084.7765978247
   12   -3084.7745939155      4.99e-09  Convergence criterion met
 Total energy in the final basis set =    -3084.7745939155
   11   -3084.7768026963      9.29e-09  Convergence criterion met
 Total energy in the final basis set =    -3084.7768026963
   12   -3084.7779216793      6.28e-09  Convergence criterion met
 Total energy in the final basis set =    -3084.7779216793
   11   -3084.7768562227      8.14e-09  Convergence criterion met
 Total energy in the final basis set =    -3084.7768562227
   10   -3084.7763556154      8.05e-09  Convergence criterion met
 Total energy in the final basis set =    -3084.7763556154
   10   -3084.7764681655      5.03e-09  Convergence criterion met
 Total energy in the final basis set =    -3084.7764681655
    9   -3084.7766688025      8.93e-09  Convergence criterion met
 Total energy in the final basis set =    -3084.7766688025

             Standard Nuclear Orientation (Angstroms)
    I     Atom           X                Y                Z
 ----------------------------------------------------------------
    1      C       0.0241974738     0.1118159964     0.1336871280
    2      C       0.0121594275     0.0967456031     1.5425153112
    3      H       0.9572785547     0.1241888922     2.0752462909
    4      C      -1.1734732089     0.0471964512     2.2413269415
    5      C      -2.4047375880    -0.0114691994     1.5257110144
    6      C      -2.4170938504    -0.0091369868     0.1548668737
    7      H      -3.3687014931    -0.0638009587    -0.3660212771
    8      C      -1.2162270206     0.0670493466    -0.5771373864
    9      C      -1.4916823499     0.0367602972     3.6679514418
   10      C      -0.7725980310     0.0802463931     4.8357340758
   11      H       0.3087146490     0.1345236754     4.8372509009
   12      C      -2.8987186817    -0.0301449667     3.7618084354
   13      C      -3.6158531077    -0.0560551493     4.9537473755
   14      C      -3.4968507999    -0.0640317241     2.4872783351
   15      C      -4.8650847862    -0.1307214086     2.3994592444
   16      H      -5.3745546775    -0.1607975953     1.4437420957
   17      C      -1.4736028522     0.0557191973     6.0635124155
   18      H      -0.9014519208     0.0917769301     6.9816993827
   19      C      -2.8457436631    -0.0103974260     6.1398719232
   20      H      -3.3342890686    -0.0261338636     7.1062893027
   21      C      -5.0257625849    -0.1236269491     4.8367071860
   22      H      -5.6423659070    -0.1467994798     5.7269457380
   23      C      -5.6165937048    -0.1599391903     3.5943190358
   24      H      -6.6962133165    -0.2123909458     3.5282357197
   25      B       1.3538477225     0.1450634506    -0.6401540019
   26      C       1.3336806364     0.2175833714    -2.1767765718
   27      C       2.5364004100     0.2915979290    -2.9059965310
   28      H       3.4779309045     0.3066481501    -2.3670864740
   29      C       2.5294720129     0.3338954679    -4.2812764035
   30      C       1.2865997312     0.2952449189    -4.9782894292
   31      C       0.1040992859     0.2159431934    -4.2908573954
   32      H      -0.8288595822     0.1830831586    -4.8463293837
   33      C       0.0920284176     0.1750958383    -2.8828198085
   34      C       3.5948871291     0.4042580734    -5.2806086902
   35      C       4.9659359273     0.4654645052    -5.2561376667
   36      H       5.5192461405     0.4713685162    -4.3255521549
   37      C       2.9581127303     0.4042125718    -6.5403811530
   38      C       3.6194661094     0.4602462293    -7.7647406298
   39      C       1.5573975638     0.3410070277    -6.4100441247
   40      C       0.7885703195     0.3349363327    -7.5480849254
   41      H      -0.2931240914     0.2908977586    -7.5059595515
   42      C       5.6651807051     0.5222837423    -6.4840456987
   43      H       6.7463288100     0.5696496650    -6.4575987189
   44      C       5.0315530796     0.5206996127    -7.7051512151
   45      H       5.6127509203     0.5664654176    -8.6180222064
   46      C       2.8041143720     0.4515239749    -8.9226899836
   47      H       3.2583994063     0.4933827979    -9.9052321030
   48      C       1.4349609690     0.3906962724    -8.8025684431
   49      H       0.8288236095     0.3865160888    -9.6999904075
   50      B      -1.2143603672     0.0652660491    -2.1039824867
   51      C      -2.5689091831    -0.1415004263    -2.8990849259
   52      C      -3.3279097214     0.9538850141    -3.3963558436
   53      C      -4.5056003489     0.7383748991    -4.0690564236
   54      H      -5.0535462729     1.5767473846    -4.4806738971
   55      C      -4.9763019393    -0.5726411899    -4.2846860463
   56      C      -4.2256326555    -1.6641324189    -3.8068877274
   57      H      -4.6090950672    -2.6697014334    -3.9283584751
   58      C      -3.0464123234    -1.4612098719    -3.1345280312
   59      N      -6.1539668611    -0.7872850667    -4.9518445476
   60      C      -7.1957670449     0.1603537969    -4.9099466299
   61      C      -7.8763747316     0.4879053974    -6.0805434089
   62      H      -7.5794348202     0.0445195992    -7.0218369241
   63      C      -8.9212453600     1.3915524233    -6.0312105433
   64      H      -9.4434910288     1.6531248766    -6.9411867885
   65      C      -9.2930053654     1.9676416730    -4.8234923619
   66      H     -10.1128174410     2.6718866165    -4.7900795388
   67      C      -8.6152085460     1.6351406944    -3.6588865235
   68      H      -8.9115020469     2.0699425559    -2.7144413582
   69      C      -7.5692749834     0.7304596260    -3.6941939518
   70      H      -7.0584909654     0.4472821991    -2.7832053646
   71      C      -6.3715201947    -1.9760056830    -5.6777690922
   72      C      -7.5828223267    -2.6535281511    -5.5481958441
   73      H      -8.3449443598    -2.2808458096    -4.8765699414
   74      C      -7.7936978530    -3.8165850620    -6.2650889407
   75      H      -8.7282485100    -4.3491571826    -6.1541946547
   76      C      -6.8088162183    -4.3069678763    -7.1124775880
   77      H      -6.9791923276    -5.2176412346    -7.6701155586
   78      C      -5.6069022173    -3.6259872567    -7.2446593830
   79      H      -4.8421410347    -3.9970982702    -7.9127596342
   80      C      -5.3836196100    -2.4603272779    -6.5340444668
   81      H      -4.4544479573    -1.9179719402    -6.6502805704
   82      C      -2.2727310996    -2.6632703759    -2.6698591583
   83      H      -2.9707246966    -3.4368967327    -2.3390312646
   84      H      -1.6637186688    -2.4057814388    -1.8042258278
   85      C      -2.8640868859     2.3666433119    -3.1842048568
   86      H      -3.1792134309     2.9822561839    -4.0305358146
   87      H      -1.7746540612     2.4003760286    -3.1629038831
   88      C      -3.4244542107     2.9520950828    -1.8894696927
   89      H      -3.0960177223     2.3790630825    -1.0238192615
   90      H      -3.0824141734     3.9777296474    -1.7560257553
   91      H      -4.5157306235     2.9610125906    -1.8983946508
   92      C      -1.3824880313    -3.2199210281    -3.7800898950
   93      H      -0.6642933647    -2.4754002501    -4.1205645691
   94      H      -1.9720113732    -3.5428405778    -4.6400858476
   95      H      -0.8201709965    -4.0806311881    -3.4197242067
   96      C       2.7326316790     0.0256632771     0.1166106450
   97      C       3.5335577605     1.1444609837     0.3867420926
   98      C       4.7456801995     0.9986342422     1.0510419985
   99      H       5.3482751900     1.8728015879     1.2725818452
  100      C       5.1990707632    -0.2589029936     1.4274589965
  101      C       4.4202508524    -1.3719684975     1.1426708501
  102      H       4.7736062252    -2.3576768707     1.4244429566
  103      C       3.1928129654    -1.2397426001     0.5084951568
  104      N       6.4373140783    -0.4120238491     2.0893996223
  105      C       7.5833702556     0.2032571424     1.5724204845
  106      C       7.7554771526     0.3382059408     0.1942740860
  107      H       7.0013426304    -0.0486024411    -0.4788182372
  108      C       8.8792651330     0.9684224484    -0.3116936501
  109      H       8.9927314118     1.0661850823    -1.3838210334
  110      C       9.8598480719     1.4578698483     0.5386899192
  111      H      10.7389016877     1.9455787010     0.1393098657
  112      C       9.6955889837     1.3153572576     1.9090280813
  113      H      10.4465076474     1.6997309360     2.5873789537
  114      C       8.5666198001     0.7038723362     2.4264320683
  115      H       8.4401919453     0.6167533472     3.4978014331
  116      C       6.5221961196    -1.2977942644     3.1727099518
  117      C       5.5157506641    -1.3212183322     4.1387789141
  118      H       4.6795035381    -0.6390833913     4.0553003664
  119      C       5.5758364027    -2.2204813153     5.1889964011
  120      H       4.7829999497    -2.2272223457     5.9259875293
  121      C       6.6431223623    -3.0993013524     5.3083165320
  122      H       6.6881141683    -3.7976141819     6.1332600983
  123      C       7.6484252801    -3.0730780935     4.3533868496
  124      H       8.4821319997    -3.7598820828     4.4242524087
  125      C       7.5876930444    -2.1900565590     3.2881529525
  126      H       8.3664188004    -2.1971024172     2.5362986161
  127      C       2.4090115296    -2.4907154803     0.1949007419
  128      H       2.6005102286    -3.2404370911     0.9673817797
  129      H       1.3374805836    -2.2828142244     0.2351778100
  130      C       3.0657627291     2.5279817794     0.0144349494
  131      H       3.9315058009     3.1662410868    -0.1815320705
  132      H       2.4989010882     2.4905629133    -0.9191535448
  133      C       2.7573033390    -3.0786702058    -1.1714512524
  134      H       2.5268388732    -2.3780470942    -1.9734420788
  135      H       2.1934504743    -3.9946855113    -1.3568656233
  136      H       3.8186770300    -3.3216623638    -1.2370322854
  137      C       2.2017736190     3.1665282031     1.0990885881
  138      H       1.2969473688     2.5850832706     1.2755562296
  139      H       1.8963465534     4.1740857424     0.8131775387
  140      H       2.7437691058     3.2352478181     2.0431280237
 ----------------------------------------------------------------

    9   -3084.7765715125      4.98e-09  Convergence criterion met
 Total energy in the final basis set =    -3084.7765715125

         TDDFT/TDA Excitation Energies
 ---------------------------------------------------

 Excited state   1: excitation energy (eV) =    2.1513
 Total energy for state  1:                 -3084.69751320 au
    Multiplicity: Singlet
    Trans. Mom.:  0.2380 X   0.0355 Y   0.0262 Z
    Strength   :     0.0030885617
    D(270) --> V(  1) amplitude =  0.9728

 Excited state   2: excitation energy (eV) =    2.4547
 Total energy for state  2:                 -3084.68636329 au
    Multiplicity: Singlet
    Trans. Mom.:  0.4634 X  -0.0430 Y   0.3467 Z
    Strength   :     0.0202540599
    D(269) --> V(  1) amplitude =  0.9739

 ---------------------------------------------------

 Final energy is   -3084.69751320332
 **  OPTIMIZATION CONVERGED  **

                    Orbital Energies (a.u.)
 --------------------------------------------------------------

 Alpha MOs
 -- Occupied --
-14.668 -14.666 -10.490 -10.489 -10.488 -10.487 -10.482 -10.481
-10.466 -10.465 -10.465 -10.465 -10.465 -10.465 -10.464 -10.464
-10.463 -10.463 -10.463 -10.462 -10.462 -10.462 -10.461 -10.461
-10.460 -10.460 -10.460 -10.460 -10.460 -10.460 -10.454 -10.453
-10.452 -10.452 -10.449 -10.449 -10.449 -10.449 -10.448 -10.448
-10.447 -10.447 -10.446 -10.446 -10.446 -10.446 -10.446 -10.445
-10.445 -10.445 -10.444 -10.444 -10.444 -10.444 -10.442 -10.442
-10.441 -10.441 -10.440 -10.439 -10.434 -10.434 -10.434 -10.433
-10.433 -10.432 -10.432 -10.431 -10.430 -10.429 -10.427 -10.426
-10.421 -10.419 -10.417 -10.417 -10.416 -10.416  -6.945  -6.940
 -1.084  -1.077  -1.015  -1.015  -0.962  -0.961  -0.958  -0.958
 -0.957  -0.956  -0.937  -0.937  -0.934  -0.933  -0.907  -0.898
 -0.887  -0.886  -0.866  -0.863  -0.855  -0.854  -0.851  -0.849
 -0.847  -0.847  -0.842  -0.840  -0.838  -0.834  -0.824  -0.820
 -0.818  -0.813  -0.812  -0.803  -0.799  -0.796  -0.789  -0.784
 -0.735  -0.731  -0.728  -0.720  -0.715  -0.714  -0.710  -0.709
 -0.697  -0.697  -0.697  -0.695  -0.689  -0.684  -0.680  -0.680
 -0.678  -0.674  -0.667  -0.666  -0.647  -0.645  -0.637  -0.635
 -0.629  -0.627  -0.604  -0.603  -0.597  -0.593  -0.593  -0.590
 -0.584  -0.584  -0.583  -0.576  -0.576  -0.561  -0.560  -0.553
 -0.552  -0.544  -0.542  -0.541  -0.540  -0.536  -0.528  -0.525
 -0.524  -0.521  -0.516  -0.513  -0.509  -0.507  -0.504  -0.501
 -0.500  -0.498  -0.496  -0.496  -0.495  -0.494  -0.493  -0.489
 -0.488  -0.487  -0.486  -0.485  -0.484  -0.483  -0.483  -0.482
 -0.480  -0.479  -0.478  -0.477  -0.474  -0.467  -0.466  -0.462
 -0.461  -0.455  -0.454  -0.450  -0.442  -0.442  -0.434  -0.433
 -0.433  -0.432  -0.429  -0.427  -0.426  -0.425  -0.424  -0.424
 -0.422  -0.421  -0.419  -0.415  -0.413  -0.410  -0.406  -0.404
 -0.402  -0.402  -0.399  -0.399  -0.398  -0.396  -0.396  -0.395
 -0.395  -0.394  -0.392  -0.391  -0.390  -0.386  -0.386  -0.382
 -0.378  -0.371  -0.366  -0.359  -0.356  -0.354  -0.350  -0.348
 -0.343  -0.334  -0.318  -0.313  -0.306  -0.300  -0.299  -0.296
 -0.296  -0.295  -0.295  -0.292  -0.283  -0.280  -0.279  -0.272
 -0.271  -0.261  -0.254  -0.254  -0.218  -0.212

          Ground-State Mulliken Net Atomic Charges

     Atom                 Charge (a.u.)
  ----------------------------------------
      1 C                    -0.147170
      2 C                    -0.399871
      3 H                     0.233542
      4 C                     0.118110
      5 C                     0.091308
      6 C                    -0.390997
      7 H                     0.235427
      8 C                    -0.145497
      9 C                     0.196833
     10 C                    -0.383713
     11 H                     0.218212
     12 C                    -0.067879
     13 C                     0.252740
     14 C                     0.198756
     15 C                    -0.375289
     16 H                     0.218476
     17 C                    -0.202444
     18 H                     0.226054
     19 C                    -0.335759
     20 H                     0.221135
     21 C                    -0.331982
     22 H                     0.220648
     23 C                    -0.205008
     24 H                     0.226527
     25 B                     0.650240
     26 C                    -0.145650
     27 C                    -0.395523
     28 H                     0.232026
     29 C                     0.117407
     30 C                     0.090154
     31 C                    -0.390063
     32 H                     0.234972
     33 C                    -0.139984
     34 C                     0.199339
     35 C                    -0.383450
     36 H                     0.217378
     37 C                    -0.068491
     38 C                     0.250901
     39 C                     0.200256
     40 C                    -0.376847
     41 H                     0.219410
     42 C                    -0.202296
     43 H                     0.225703
     44 C                    -0.335278
     45 H                     0.221168
     46 C                    -0.331113
     47 H                     0.220617
     48 C                    -0.204899
     49 H                     0.226833
     50 B                     0.633884
     51 C                    -0.251038
     52 C                     0.097037
     53 C                    -0.376972
     54 H                     0.237990
     55 C                     0.325103
     56 C                    -0.380885
     57 H                     0.240368
     58 C                     0.083125
     59 N                    -0.659359
     60 C                     0.265825
     61 C                    -0.267952
     62 H                     0.244689
     63 C                    -0.216082
     64 H                     0.221633
     65 C                    -0.234760
     66 H                     0.218264
     67 C                    -0.217376
     68 H                     0.220453
     69 C                    -0.261378
     70 H                     0.245278
     71 C                     0.266041
     72 C                    -0.266839
     73 H                     0.244905
     74 C                    -0.216011
     75 H                     0.221508
     76 C                    -0.234993
     77 H                     0.218251
     78 C                    -0.217204
     79 H                     0.221282
     80 C                    -0.263367
     81 H                     0.246408
     82 C                    -0.552040
     83 H                     0.231660
     84 H                     0.256071
     85 C                    -0.544356
     86 H                     0.229364
     87 H                     0.248231
     88 C                    -0.646459
     89 H                     0.242087
     90 H                     0.218611
     91 H                     0.215117
     92 C                    -0.643646
     93 H                     0.243126
     94 H                     0.215173
     95 H                     0.216672
     96 C                    -0.221217
     97 C                     0.079475
     98 C                    -0.343303
     99 H                     0.230247
    100 C                     0.289715
    101 C                    -0.349202
    102 H                     0.232682
    103 C                     0.070920
    104 N                    -0.672564
    105 C                     0.304508
    106 C                    -0.283664
    107 H                     0.241431
    108 C                    -0.211785
    109 H                     0.215211
    110 C                    -0.239519
    111 H                     0.216248
    112 C                    -0.213576
    113 H                     0.219319
    114 C                    -0.280332
    115 H                     0.245246
    116 C                     0.291726
    117 C                    -0.272752
    118 H                     0.239405
    119 C                    -0.212346
    120 H                     0.217294
    121 C                    -0.238274
    122 H                     0.217115
    123 C                    -0.214220
    124 H                     0.219949
    125 C                    -0.280873
    126 H                     0.245918
    127 C                    -0.556511
    128 H                     0.233933
    129 H                     0.257009
    130 C                    -0.548061
    131 H                     0.231426
    132 H                     0.250525
    133 C                    -0.645336
    134 H                     0.246166
    135 H                     0.217347
    136 H                     0.216433
    137 C                    -0.645703
    138 H                     0.241487
    139 H                     0.219927
    140 H                     0.216165
  ----------------------------------------
  Sum of atomic charges =    -0.000000

                    Cartesian Multipole Moments
 -----------------------------------------------------------------
    Charge (ESU x 10^10)
                -0.0000
    Dipole Moment (Debye)
         X      -1.1238      Y      -0.1303      Z      -0.5430
       Tot       1.2548
    Quadrupole Moments (Debye-Ang)
        XX    -417.9571     XY       1.4282     YY    -462.5430
        XZ     -11.2070     YZ      -0.7412     ZZ    -403.7243

 Total job time:  50483.08s(wall), 351741.57s(cpu)
        *  Thank you very much for using Q-Chem.  Have a nice day.  *
