 Q-Chem 5.1, Q-Chem, Inc., Pleasanton, CA (2018)
 Q-Chem 5.1.1 for Intel X86 EM64T Linux

User input:
--------------------------------------------------------------
$rem
threads 8
jobtype	sp
method PBEh-3c
basis def2-mSVP
mem_static	1024
mem_total	10000
sym_ignore	true
cis_n_roots             6
cis_singlets            true
cis_triplets		true
rpa                     false
calc_soc 		true
cis_moments             true
cis_relaxed_density	true
$end

$molecule
read t1opt.mol
$end

--------------------------------------------------------------

             Standard Nuclear Orientation (Angstroms)
    I     Atom           X                Y                Z
 ----------------------------------------------------------------
    1      C       0.0000000000     0.0000000000     0.0000000000
    2      C       0.0000000000     0.0000000000     1.4086440000
    3      H       0.9465140947     0.0000000000     1.9370948439
    4      C      -1.1827195111     0.0101483171     2.1034642064
    5      C      -2.4395600856     0.0444011549     1.3804525546
    6      C      -2.4597568071     0.0639578311     0.0067382011
    7      H      -3.4040186173     0.1092412241    -0.5246512123
    8      C      -1.2640829020     0.0321412064    -0.7163724067
    9      C      -3.5155733716     0.0664365744     2.3422116813
   10      C      -4.8896133081     0.1004965996     2.2599248921
   11      H      -5.4038216475     0.1178372906     1.3072263662
   12      C      -5.6319273761     0.1113929080     3.4572880044
   13      H      -6.7122887927     0.1382724321     3.3977963329
   14      C      -5.0321082001     0.0881823038     4.6978747930
   15      H      -5.6451032478     0.0972813180     5.5906973325
   16      C      -2.9064727108     0.0436418892     3.6158870825
   17      C      -3.6203513904     0.0529060718     4.8106529393
   18      C      -1.4977847436     0.0089810033     3.5240780820
   19      C      -0.7731873740    -0.0196604274     4.6907926912
   20      H       0.3087351888    -0.0497328398     4.6896709092
   21      C      -1.4716069394    -0.0103339913     5.9178729374
   22      H      -0.8995204986    -0.0324612809     6.8360545784
   23      C      -2.8460335457     0.0245698436     5.9936971674
   24      H      -3.3334560865     0.0294505104     6.9607691039
   25      B      -1.3016761945     0.0674835979    -2.2515725527
   26      B       1.3297322971     0.0146675085    -0.7702529784
   27      C       1.3010041041    -0.0733051781    -2.3042389294
   28      C       2.5024650855    -0.1611113632    -3.0331377263
   29      H       3.4448852537    -0.1678807337    -2.4967892281
   30      C       2.4807113597    -0.2361316642    -4.4046241997
   31      C       3.5236111417    -0.3445812620    -5.4096597426
   32      C       4.8954489314    -0.4200239364    -5.3948020992
   33      H       5.4576283248    -0.4040921323    -4.4701071172
   34      C       5.5747930246    -0.5225129347    -6.6274024837
   35      H       6.6550379328    -0.5829560103    -6.6158735223
   36      C       4.9223285439    -0.5495880366    -7.8403071280
   37      H       5.4927512544    -0.6294795152    -8.7572039517
   38      C       2.8672126016    -0.3744137774    -6.6605365589
   39      C       3.5106335333    -0.4742162757    -7.8889693044
   40      C       1.4639532951    -0.2917376459    -6.5174736979
   41      C       0.6730537454    -0.3064205132    -7.6447305626
   42      H      -0.4061903788    -0.2436002407    -7.5847959976
   43      C       1.3042424534    -0.4054840225    -8.8990552857
   44      H       0.6898331615    -0.4172500083    -9.7899557317
   45      C       2.6743489500    -0.4879741310    -9.0327780043
   46      H       3.1119711186    -0.5634152313   -10.0204303008
   47      C       1.2065994792    -0.2066311726    -5.1037970207
   48      C       0.0237743410    -0.1077400311    -4.4082770703
   49      H      -0.9216441344    -0.0721343498    -4.9384000410
   50      C       0.0281586691    -0.0478443317    -3.0132852095
   51      C       2.6846859152     0.1935143113     0.0056519778
   52      C       3.3156778425    -0.8709009115     0.6651871070
   53      C       4.5041980291    -0.6632080170     1.3537052754
   54      H       4.9954287008    -1.4965102331     1.8437314071
   55      C       5.0704763003     0.6042657188     1.4259551118
   56      C       4.4371718923     1.6635285942     0.7883442442
   57      H       4.8659193843     2.6573638200     0.8497646421
   58      C       3.2648934448     1.4687287242     0.0723480041
   59      N       6.2699241518     0.8180220561     2.1319803417
   60      C       6.4299204752     0.2819064379     3.4175302228
   61      C       7.6684803053    -0.2080621913     3.8299937434
   62      H       8.5105067534    -0.1753445636     3.1507578410
   63      C       7.8204407114    -0.7384347707     5.0997273344
   64      H       8.7882177685    -1.1160673748     5.4033904251
   65      C       6.7434873616    -0.8080264713     5.9716768925
   66      H       6.8647037056    -1.2324260970     6.9591614893
   67      C       5.5093652870    -0.3268037890     5.5603373277
   68      H       4.6609211407    -0.3664890601     6.2313782513
   69      C       5.3515296989     0.2236231753     4.2999598792
   70      H       4.3876885467     0.6084472645     3.9923584225
   71      C       7.2362725381     1.6813745840     1.5921032240
   72      C       7.8604973332     2.6423409636     2.3854599753
   73      H       7.6037905428     2.7236905093     3.4339499660
   74      C       8.8005082373     3.4982742118     1.8354139165
   75      H       9.2737717661     4.2401232203     2.4656073163
   76      C       9.1186813694     3.4262664379     0.4876622972
   77      H       9.8453981128     4.1033469366     0.0593562048
   78      C       8.4909312904     2.4766084082    -0.3056899378
   79      H       8.7309676863     2.4060267533    -1.3587884595
   80      C       7.5651295520     1.6039429078     0.2389860867
   81      H       7.0836252282     0.8630946787    -0.3863742837
   82      C       2.7536794762    -2.2671293813     0.5816601933
   83      H       3.0346675831    -2.8286679529     1.4761922974
   84      H       1.6609068616    -2.2345508806     0.5780786200
   85      C       2.6023750090     2.6684536578    -0.5598255877
   86      H       2.1096225832     2.3849370609    -1.4931222774
   87      H       3.3667355152     3.3987081328    -0.8374035725
   88      C       3.2330107824    -3.0191246855    -0.6575196207
   89      H       2.9161760457    -2.5184207446    -1.5725922727
   90      H       4.3210127781    -3.0897514379    -0.6767781939
   91      H       2.8297243209    -4.0320701458    -0.6808926863
   92      C       1.5838405342     3.3371618084     0.3618400515
   93      H       0.7725381704     2.6569359583     0.6205832036
   94      H       2.0499516775     3.6641944580     1.2919617799
   95      H       1.1407966814     4.2119558403    -0.1162445663
   96      C      -2.6671865672     0.2724229810    -3.0154814451
   97      C      -3.5553570840    -0.7836295740    -3.2642501898
   98      C      -4.7646663439    -0.5544569184    -3.9083277950
   99      H      -5.4459320467    -1.3814075562    -4.0742499663
  100      C      -5.1090033588     0.7172004240    -4.3515203307
  101      C      -4.2252875692     1.7645097653    -4.1225621720
  102      H      -4.4754183132     2.7614514714    -4.4683658081
  103      C      -3.0304105195     1.5571700467    -3.4479378042
  104      N      -6.3257323260     0.9377402734    -5.0216625963
  105      C      -7.0452789871     2.1278847123    -4.8248141623
  106      C      -7.6221447324     2.7917534575    -5.9070025295
  107      H      -7.5076870713     2.3909215051    -6.9058516469
  108      C      -8.3403886751     3.9594486670    -5.7105399275
  109      H      -8.7808538794     4.4597949249    -6.5633250384
  110      C      -8.4810335625     4.4974756851    -4.4401073185
  111      H      -9.0355431573     5.4142117315    -4.2911330003
  112      C      -7.9001771744     3.8441854137    -3.3627292004
  113      H      -8.0059236670     4.2473034908    -2.3637618699
  114      C      -7.1973605874     2.6652895798    -3.5466594390
  115      H      -6.7589084826     2.1577084861    -2.6972613236
  116      C      -6.7900289279     0.0019622066    -5.9618042434
  117      C      -8.1372958898    -0.3534645488    -5.9865902387
  118      H      -8.8179814756     0.0835049414    -5.2671668458
  119      C      -8.6057400478    -1.2526251701    -6.9294694778
  120      H      -9.6557696580    -1.5149750387    -6.9374535710
  121      C      -7.7383072849    -1.8270538826    -7.8470715593
  122      H      -8.1056453474    -2.5340770419    -8.5787233224
  123      C      -6.3944777797    -1.4840269191    -7.8161495759
  124      H      -5.7082451271    -1.9187604829    -8.5313535439
  125      C      -5.9211084068    -0.5700100600    -6.8892123019
  126      H      -4.8747341913    -0.2933394873    -6.8828682295
  127      C      -3.2117061368    -2.2020553596    -2.8918080063
  128      H      -2.5159116853    -2.2217154972    -2.0496189791
  129      H      -4.1117601676    -2.7212580259    -2.5513048985
  130      C      -2.1756413128     2.7617230824    -3.1468827586
  131      H      -1.1267661383     2.4756403638    -3.0393011780
  132      H      -2.2106414824     3.4569287898    -3.9901250436
  133      C      -2.6072928547    -2.9642527578    -4.0687181617
  134      H      -1.6834895490    -2.4943617025    -4.4071293506
  135      H      -2.3749427014    -3.9938718824    -3.7948274124
  136      H      -3.2967469709    -2.9890150299    -4.9137512046
  137      C      -2.6376970365     3.4805349007    -1.8812364001
  138      H      -2.5952683321     2.8176609219    -1.0164868054
  139      H      -2.0092870167     4.3463524818    -1.6691712170
  140      H      -3.6661709763     3.8299919579    -1.9819245959
 ----------------------------------------------------------------

   15   -3084.7763437020      6.78e-09  Convergence criterion met
 Total energy in the final basis set =    -3084.7763437020

         TDDFT/TDA Excitation Energies
 ---------------------------------------------------

 Excited state   1: excitation energy (eV) =    1.9955
 Total energy for state  1:                 -3084.70301152 au
    Multiplicity: Triplet
    Trans. Mom.:  0.0000 X   0.0000 Y   0.0000 Z
    Strength   :     0.0000000000
    D(263) --> V(  2) amplitude =  0.2474
    D(268) --> V(  1) amplitude =  0.9174

 Excited state   2: excitation energy (eV) =    2.3256
 Total energy for state  2:                 -3084.69088013 au
    Multiplicity: Triplet
    Trans. Mom.:  0.0000 X   0.0000 Y   0.0000 Z
    Strength   :     0.0000000000
    D(266) --> V(  1) amplitude = -0.2311
    D(267) --> V(  1) amplitude = -0.2618
    D(269) --> V(  1) amplitude =  0.2757
    D(270) --> V(  1) amplitude =  0.8088

 Excited state   3: excitation energy (eV) =    2.3688
 Total energy for state  3:                 -3084.68929024 au
    Multiplicity: Triplet
    Trans. Mom.:  0.0000 X   0.0000 Y   0.0000 Z
    Strength   :     0.0000000000
    D(263) --> V(  1) amplitude = -0.2142
    D(266) --> V(  2) amplitude =  0.2897
    D(267) --> V(  1) amplitude = -0.4628
    D(269) --> V(  1) amplitude =  0.6341
    D(270) --> V(  1) amplitude = -0.2918

 Excited state   4: excitation energy (eV) =    2.3826
 Total energy for state  4:                 -3084.68878586 au
    Multiplicity: Singlet
    Trans. Mom.: -0.2789 X  -0.0864 Y  -0.0051 Z
    Strength   :     0.0049785445
    D(269) --> V(  1) amplitude =  0.4995
    D(270) --> V(  1) amplitude =  0.8340

 Excited state   5: excitation energy (eV) =    2.3845
 Total energy for state  5:                 -3084.68871343 au
    Multiplicity: Triplet
    Trans. Mom.:  0.0000 X   0.0000 Y   0.0000 Z
    Strength   :     0.0000000000
    D(266) --> V(  2) amplitude = -0.3519
    D(267) --> V(  1) amplitude =  0.5759
    D(269) --> V(  1) amplitude =  0.6393

 Excited state   6: excitation energy (eV) =    2.4086
 Total energy for state  6:                 -3084.68782987 au
    Multiplicity: Singlet
    Trans. Mom.:  0.6344 X   0.0092 Y   0.3468 Z
    Strength   :     0.0308533463
    D(269) --> V(  1) amplitude =  0.8369
    D(270) --> V(  1) amplitude = -0.5026

 Excited state   7: excitation energy (eV) =    2.4413
 Total energy for state  7:                 -3084.68662680 au
    Multiplicity: Triplet
    Trans. Mom.:  0.0000 X   0.0000 Y   0.0000 Z
    Strength   :     0.0000000000
    D(266) --> V(  1) amplitude =  0.6383
    D(267) --> V(  2) amplitude = -0.4588
    D(270) --> V(  1) amplitude =  0.4051

 Excited state   8: excitation energy (eV) =    2.5257
 Total energy for state  8:                 -3084.68352524 au
    Multiplicity: Triplet
    Trans. Mom.:  0.0000 X   0.0000 Y   0.0000 Z
    Strength   :     0.0000000000
    D(263) --> V(  1) amplitude =  0.6491
    D(267) --> V(  2) amplitude = -0.2652
    D(268) --> V(  2) amplitude =  0.4967
    D(269) --> V(  1) amplitude =  0.2220

 Excited state   9: excitation energy (eV) =    2.6822
 Total energy for state  9:                 -3084.67777497 au
    Multiplicity: Singlet
    Trans. Mom.:  0.0908 X  -0.0081 Y  -0.2937 Z
    Strength   :     0.0062150302
    D(268) --> V(  1) amplitude =  0.9580

 Excited state  10: excitation energy (eV) =    3.1723
 Total energy for state 10:                 -3084.65976458 au
    Multiplicity: Singlet
    Trans. Mom.:  1.6689 X  -0.1328 Y  -2.9754 Z
    Strength   :     0.9058882575
    D(267) --> V(  1) amplitude =  0.9376

 Excited state  11: excitation energy (eV) =    3.4475
 Total energy for state 11:                 -3084.64965129 au
    Multiplicity: Singlet
    Trans. Mom.:  0.7209 X   0.1204 Y   0.4302 Z
    Strength   :     0.0607531886
    D(263) --> V(  1) amplitude = -0.4565
    D(266) --> V(  1) amplitude =  0.6751
    D(268) --> V(  2) amplitude = -0.4440

 Excited state  12: excitation energy (eV) =    3.4768
 Total energy for state 12:                 -3084.64857549 au
    Multiplicity: Singlet
    Trans. Mom.: -0.6701 X   0.1385 Y  -0.3363 Z
    Strength   :     0.0495141142
    D(263) --> V(  1) amplitude =  0.5028
    D(266) --> V(  1) amplitude =  0.6248
    D(268) --> V(  2) amplitude =  0.4150

 ---------------------------------------------------

                    Orbital Energies (a.u.)
 --------------------------------------------------------------

 Alpha MOs
 -- Occupied --
-14.668 -14.666 -10.489 -10.489 -10.488 -10.488 -10.483 -10.481
-10.467 -10.466 -10.466 -10.466 -10.465 -10.465 -10.464 -10.464
-10.464 -10.464 -10.463 -10.463 -10.462 -10.462 -10.462 -10.462
-10.461 -10.461 -10.460 -10.460 -10.460 -10.460 -10.453 -10.453
-10.451 -10.451 -10.448 -10.448 -10.448 -10.448 -10.448 -10.447
-10.447 -10.447 -10.447 -10.446 -10.446 -10.446 -10.446 -10.446
-10.445 -10.444 -10.443 -10.443 -10.443 -10.442 -10.442 -10.442
-10.442 -10.441 -10.441 -10.440 -10.435 -10.435 -10.434 -10.434
-10.433 -10.433 -10.433 -10.432 -10.432 -10.432 -10.432 -10.431
-10.420 -10.420 -10.419 -10.419 -10.418 -10.416  -6.943  -6.942
 -1.078  -1.077  -1.014  -1.014  -0.961  -0.959  -0.959  -0.958
 -0.956  -0.956  -0.939  -0.938  -0.935  -0.934  -0.905  -0.897
 -0.888  -0.886  -0.867  -0.864  -0.857  -0.856  -0.850  -0.849
 -0.849  -0.848  -0.839  -0.838  -0.836  -0.835  -0.822  -0.820
 -0.816  -0.814  -0.813  -0.799  -0.798  -0.797  -0.790  -0.788
 -0.734  -0.734  -0.730  -0.719  -0.716  -0.714  -0.710  -0.709
 -0.698  -0.697  -0.697  -0.697  -0.689  -0.682  -0.681  -0.679
 -0.678  -0.672  -0.667  -0.667  -0.646  -0.643  -0.637  -0.635
 -0.629  -0.629  -0.604  -0.604  -0.599  -0.594  -0.592  -0.590
 -0.586  -0.584  -0.584  -0.577  -0.575  -0.562  -0.560  -0.553
 -0.553  -0.543  -0.542  -0.541  -0.541  -0.536  -0.528  -0.525
 -0.523  -0.522  -0.518  -0.511  -0.510  -0.509  -0.502  -0.501
 -0.500  -0.499  -0.497  -0.497  -0.496  -0.495  -0.493  -0.492
 -0.487  -0.486  -0.484  -0.484  -0.483  -0.483  -0.482  -0.481
 -0.481  -0.480  -0.479  -0.477  -0.475  -0.467  -0.466  -0.465
 -0.460  -0.456  -0.453  -0.450  -0.443  -0.439  -0.435  -0.433
 -0.433  -0.432  -0.428  -0.428  -0.426  -0.425  -0.425  -0.422
 -0.422  -0.421  -0.419  -0.414  -0.412  -0.411  -0.406  -0.404
 -0.403  -0.402  -0.400  -0.398  -0.397  -0.397  -0.396  -0.396
 -0.395  -0.395  -0.392  -0.391  -0.390  -0.386  -0.385  -0.383
 -0.376  -0.371  -0.367  -0.363  -0.357  -0.355  -0.350  -0.346
 -0.343  -0.335  -0.321  -0.315  -0.303  -0.301  -0.298  -0.297
 -0.297  -0.296  -0.294  -0.293  -0.285  -0.282  -0.275  -0.272
 -0.271  -0.261  -0.255  -0.248  -0.219  -0.218

          Ground-State Mulliken Net Atomic Charges

     Atom                 Charge (a.u.)
  ----------------------------------------
      1 C                    -0.152250
      2 C                    -0.386253
      3 H                     0.233036
      4 C                     0.104487
      5 C                     0.079775
      6 C                    -0.383027
      7 H                     0.233079
      8 C                    -0.147663
      9 C                     0.200397
     10 C                    -0.369858
     11 H                     0.220134
     12 C                    -0.205831
     13 H                     0.227166
     14 C                    -0.330638
     15 H                     0.220744
     16 C                    -0.072150
     17 C                     0.249443
     18 C                     0.204502
     19 C                    -0.378804
     20 H                     0.218033
     21 C                    -0.203327
     22 H                     0.226037
     23 C                    -0.334246
     24 H                     0.221072
     25 B                     0.647952
     26 B                     0.642700
     27 C                    -0.152490
     28 C                    -0.390919
     29 H                     0.235073
     30 C                     0.103368
     31 C                     0.203659
     32 C                    -0.378809
     33 H                     0.219084
     34 C                    -0.203466
     35 H                     0.226498
     36 C                    -0.335216
     37 H                     0.221275
     38 C                    -0.072865
     39 C                     0.251479
     40 C                     0.198187
     41 C                    -0.366937
     42 H                     0.219069
     43 C                    -0.205731
     44 H                     0.226918
     45 C                    -0.331000
     46 H                     0.220778
     47 C                     0.078946
     48 C                    -0.381654
     49 H                     0.231338
     50 C                    -0.151805
     51 C                    -0.220052
     52 C                     0.081510
     53 C                    -0.347199
     54 H                     0.230678
     55 C                     0.298780
     56 C                    -0.355757
     57 H                     0.233586
     58 C                     0.073461
     59 N                    -0.673175
     60 C                     0.300311
     61 C                    -0.278273
     62 H                     0.244351
     63 C                    -0.214156
     64 H                     0.219732
     65 C                    -0.238314
     66 H                     0.216762
     67 C                    -0.212536
     68 H                     0.215695
     69 C                    -0.280775
     70 H                     0.241602
     71 C                     0.289161
     72 C                    -0.279073
     73 H                     0.244846
     74 C                    -0.214483
     75 H                     0.220179
     76 C                    -0.237390
     77 H                     0.217403
     78 C                    -0.212991
     79 H                     0.217768
     80 C                    -0.270492
     81 H                     0.239768
     82 C                    -0.545946
     83 H                     0.230486
     84 H                     0.250371
     85 C                    -0.556682
     86 H                     0.257576
     87 H                     0.233384
     88 C                    -0.645688
     89 H                     0.241236
     90 H                     0.215908
     91 H                     0.220094
     92 C                    -0.645583
     93 H                     0.247005
     94 H                     0.216630
     95 H                     0.216660
     96 C                    -0.233104
     97 C                     0.079342
     98 C                    -0.351430
     99 H                     0.233190
    100 C                     0.316944
    101 C                    -0.360786
    102 H                     0.236317
    103 C                     0.072337
    104 N                    -0.675403
    105 C                     0.292998
    106 C                    -0.279979
    107 H                     0.245266
    108 C                    -0.213348
    109 H                     0.220137
    110 C                    -0.237980
    111 H                     0.217672
    112 C                    -0.214060
    113 H                     0.219625
    114 C                    -0.275233
    115 H                     0.241553
    116 C                     0.281662
    117 C                    -0.271731
    118 H                     0.244164
    119 C                    -0.214823
    120 H                     0.220827
    121 C                    -0.235828
    122 H                     0.218428
    123 C                    -0.215174
    124 H                     0.219088
    125 C                    -0.270843
    126 H                     0.239992
    127 C                    -0.544845
    128 H                     0.250729
    129 H                     0.230031
    130 C                    -0.554350
    131 H                     0.257505
    132 H                     0.232634
    133 C                    -0.641309
    134 H                     0.233566
    135 H                     0.219973
    136 H                     0.217734
    137 C                    -0.642095
    138 H                     0.240198
    139 H                     0.217725
    140 H                     0.217015
  ----------------------------------------
  Sum of atomic charges =    -0.000000

                    Cartesian Multipole Moments
 -----------------------------------------------------------------
    Charge (ESU x 10^10)
                -0.0000
    Dipole Moment (Debye)
         X      -0.4072      Y      -0.1320      Z      -0.4000
       Tot       0.5858
    Quadrupole Moments (Debye-Ang)
        XX    -422.7984     XY      -0.3809     YY    -463.1809
        XZ     -12.3158     YZ       2.9529     ZZ    -401.7498

 Total job time:  21451.10s(wall), 83083.18s(cpu)
        *  Thank you very much for using Q-Chem.  Have a nice day.  *
