 Q-Chem 5.0, Q-Chem, Inc., Pleasanton, CA (2017)
 Q-Chem 5.0.1 for Intel X86 EM64T Linux

User input:
--------------------------------------------------------------
$solvent
dielectric      8.93
dielectric_infi 2.03
$end

$rem
threads 8
jobtype	sp
method PBEh-3c
basis def2-mSVP
mem_static	1024
mem_total	14000
sym_ignore	true
cis_n_roots             2
cis_singlets            true
cis_triplets		false
rpa                     false
calc_soc 		true
cis_moments             true
cis_relaxed_density	true
solvent_method		pcm
$end

$pcm
StateSpecific   1
ChargeSeparation Excited
$end

$molecule
read sctopt.mol
$end

--------------------------------------------------------------

   14   -1973.7184130608      6.49E-09 Convergence criterion met
 Total energy in the final basis set = -1973.71841306
 Total job time:  5142.81s(wall), 17989.49s(cpu)
        *  Thank you very much for using Q-Chem.  Have a nice day.  *
 Q-Chem 5.0, Q-Chem, Inc., Pleasanton, CA (2017)
 Q-Chem 5.0.1 for Intel X86 EM64T Linux

User input:
--------------------------------------------------------------
$rem
threads 8
jobtype sp
method PBEh-3c
basis def2-mSVP
mem_static      1024
mem_total       14000
sym_ignore      true
cis_n_roots             6
cis_singlets            true
cis_triplets            true
rpa                     false
calc_soc                true
cis_moments             true
cis_relaxed_density     true
solvent_method          pcm
$end

$molecule
read
$end

$pcm
statespecific           Marcus
$end

$solvent
dielectric      8.93
dielectric_infi 2.03
$end

--------------------------------------------------------------

             Standard Nuclear Orientation (Angstroms)
    I     Atom           X                Y                Z
 ----------------------------------------------------------------
    1      C       0.0000000000     0.0000000000     0.0000000000
    2      C       0.0000000000     0.0000000000     1.4025650000
    3      H       0.9493094505     0.0000000000     1.9288504402
    4      C      -1.1789419522    -0.0311875012     2.1047829507
    5      C      -2.4288090106    -0.0617516084     1.4216058514
    6      C      -2.4524712368    -0.0316894678     0.0483696619
    7      H      -3.4091326076    -0.0537748432    -0.4653027071
    8      C      -1.2468657833    -0.0012407398    -0.6934325751
    9      C      -1.4330364982    -0.0994763684     3.5361495681
   10      C      -0.6475628495    -0.1254072235     4.6614978317
   11      H       0.4324505931    -0.0700885709     4.6048097223
   12      C      -2.8297458091    -0.1848749852     3.6859214391
   13      C      -3.4724190921    -0.3070933450     4.9152828551
   14      C      -3.4832088603    -0.1660030949     2.4365788942
   15      C      -4.8503176991    -0.2753558061     2.4275582270
   16      H      -5.4171685322    -0.2779153821     1.5049773855
   17      C      -1.2759141089    -0.2360710286     5.9219019049
   18      H      -0.6553360246    -0.2560692135     6.8087681047
   19      C      -2.6412519635    -0.3265777797     6.0611659823
   20      H      -3.0793020589    -0.4184549121     7.0475733250
   21      C      -4.8820352893    -0.4133678757     4.8715820291
   22      H      -5.4472199243    -0.5136500790     5.7902006722
   23      C      -5.5332771653    -0.3971663334     3.6603535744
   24      H      -6.6119909600    -0.4854485526     3.6453697599
   25      B      -1.2210458572    -0.0219130255    -2.2209075058
   26      C       0.0847748738    -0.0885101214    -3.0105492928
   27      C       0.1101402318    -0.1767321577    -4.4226798155
   28      H      -0.8180347159    -0.1611077153    -4.9860122451
   29      C       1.3002520669    -0.3103796189    -5.0957058076
   30      C       2.5237129831    -0.3529082639    -4.3663169187
   31      C       2.5205852653    -0.2492148633    -2.9966259620
   32      H       3.4526836822    -0.2875747270    -2.4416457017
   33      C       1.3159774394    -0.1196224935    -2.2890736964
   34      C       3.6142506423    -0.5606557209    -5.3069845094
   35      C       4.9729321646    -0.7211311308    -5.1973926594
   36      H       5.4763397675    -0.6873240367    -4.2389870513
   37      C       3.0249465768    -0.6305552583    -6.5846507640
   38      C       3.7372197675    -0.8551379021    -7.7587125518
   39      C       1.6244520158    -0.4812683413    -6.5138141568
   40      C       0.9079154863    -0.5535010683    -7.6801917831
   41      H      -0.1702864464    -0.4544971946    -7.6942441302
   42      C       5.7207781285    -0.9452841209    -6.3750063113
   43      H       6.7924399391    -1.0734993387    -6.2895157809
   44      C       5.1387437178    -1.0119377835    -7.6199437707
   45      H       5.7535359571    -1.1909830019    -8.4934566601
   46      C       1.6039464702    -0.7691106439    -8.8919818806
   47      H       1.0351330932    -0.8249175868    -9.8111867061
   48      C       2.9704093453    -0.9176095245    -8.9465267400
   49      H       3.4576593559    -1.0885409281    -9.8986645843
   50      B       1.3355440961    -0.0665848690    -0.7548598680
   51      C      -2.5821542276    -0.0276801148    -2.9917759724
   52      C      -3.2163890516    -1.2698989301    -3.3429162118
   53      C      -4.3764429965    -1.2447733993    -4.0645083719
   54      H      -4.8598058477    -2.1716357469    -4.3496816589
   55      C      -4.9734594049    -0.0229738188    -4.4572592453
   56      C      -4.3745654024     1.1940148493    -4.0929683692
   57      H      -4.8456195205     2.1216931470    -4.3919174353
   58      C      -3.2099197019     1.2149167309    -3.3698725456
   59      C      -6.2253056856    -0.0524778858    -5.2532818998
   60      H      -6.6212572045     0.9410358995    -5.4470825927
   61      H      -6.9919573147    -0.6413539959    -4.7450592861
   62      H      -6.0484843154    -0.5447905558    -6.2132941895
   63      C      -2.5570331185     2.4885962186    -2.9651433658
   64      H      -3.1105213444     3.3596107832    -3.3105932086
   65      H      -1.5401344621     2.5366061926    -3.3589736592
   66      H      -2.4616144664     2.5393093527    -1.8788847947
   67      C      -2.5773953458    -2.5489945807    -2.9199751087
   68      H      -3.1761217536    -3.4130691300    -3.2027249408
   69      H      -2.4266131410    -2.5641741531    -1.8399432380
   70      H      -1.5876048802    -2.6490683234    -3.3685438821
   71      C       2.6946963048    -0.1451664662     0.0438930330
   72      C       3.2241371892    -1.3872324621     0.4138173680
   73      C       4.4201423363    -1.4539127211     1.1213947993
   74      H       4.8172019015    -2.4255464305     1.3980035763
   75      C       5.1165720568    -0.3094512383     1.4810911372
   76      C       4.5851062010     0.9212286765     1.1128757853
   77      H       5.1142895819     1.8298686262     1.3832423531
   78      C       3.3936890032     1.0147186846     0.4054606037
   79      C       6.4005847543    -0.3910447576     2.2554629229
   80      H       6.7464933196    -1.4201206130     2.3499688218
   81      H       7.1961906294     0.1810101404     1.7755799168
   82      H       6.2836818892     0.0074927981     3.2653271539
   83      C       2.8417770778     2.3609740366     0.0302920601
   84      H       3.5118120706     3.1693272750     0.3239052425
   85      H       2.6786612821     2.4361178984    -1.0466551838
   86      H       1.8763796355     2.5380891102     0.5094648749
   87      C       2.4995446657    -2.6540086774     0.0517168301
   88      H       3.0380728015    -3.5380134361     0.3944002863
   89      H       2.3677118773    -2.7444856137    -1.0283388341
   90      H       1.5023900130    -2.6809503987     0.4960988089
 ----------------------------------------------------------------

   14   -1973.7107338640      7.73E-09 Convergence criterion met
 Total energy in the final basis set = -1973.71073386

         TDDFT/TDA Excitation Energies
 ---------------------------------------------------

 Excited state   1: excitation energy (eV) =    2.2642
 Total energy for state  1:                 -1973.62752728 au
    Multiplicity: Triplet
    Trans. Mom.:  0.0000 X   0.0000 Y   0.0000 Z
    Strength   :     0.0000000000
    D(167) --> V(  2) amplitude =  0.2463
    D(171) --> V(  1) amplitude =  0.7174
    D(172) --> V(  1) amplitude =  0.3878
    D(173) --> V(  1) amplitude = -0.4173

 Excited state   2: excitation energy (eV) =    2.3565
 Total energy for state  2:                 -1973.62413250 au
    Multiplicity: Triplet
    Trans. Mom.:  0.0000 X   0.0000 Y   0.0000 Z
    Strength   :     0.0000000000
    D(174) --> V(  1) amplitude =  0.9667

 Excited state   3: excitation energy (eV) =    2.3957
 Total energy for state  3:                 -1973.62269444 au
    Multiplicity: Singlet
    Trans. Mom.: -0.0182 X  -0.0053 Y  -0.0218 Z
    Strength   :     0.0000491431
    D(174) --> V(  1) amplitude =  0.9735

 Excited state   4: excitation energy (eV) =    2.4519
 Total energy for state  4:                 -1973.62062886 au
    Multiplicity: Triplet
    Trans. Mom.:  0.0000 X   0.0000 Y   0.0000 Z
    Strength   :     0.0000000000
    D(170) --> V(  2) amplitude = -0.4779
    D(172) --> V(  1) amplitude =  0.4297
    D(173) --> V(  1) amplitude =  0.6573

 Excited state   5: excitation energy (eV) =    2.5071
 Total energy for state  5:                 -1973.61859985 au
    Multiplicity: Triplet
    Trans. Mom.:  0.0000 X   0.0000 Y   0.0000 Z
    Strength   :     0.0000000000
    D(170) --> V(  1) amplitude =  0.7388
    D(170) --> V(  4) amplitude =  0.2293
    D(172) --> V(  2) amplitude = -0.2424
    D(173) --> V(  2) amplitude = -0.4985

 Excited state   6: excitation energy (eV) =    2.7614
 Total energy for state  6:                 -1973.60925276 au
    Multiplicity: Triplet
    Trans. Mom.:  0.0000 X   0.0000 Y   0.0000 Z
    Strength   :     0.0000000000
    D(167) --> V(  1) amplitude = -0.7039
    D(171) --> V(  2) amplitude = -0.4598
    D(172) --> V(  2) amplitude = -0.2858

 Excited state   7: excitation energy (eV) =    2.9391
 Total energy for state  7:                 -1973.60272540 au
    Multiplicity: Singlet
    Trans. Mom.:  0.1413 X  -0.0281 Y  -0.2398 Z
    Strength   :     0.0056334031
    D(171) --> V(  1) amplitude =  0.7214
    D(172) --> V(  1) amplitude =  0.4800
    D(173) --> V(  1) amplitude = -0.4313

 Excited state   8: excitation energy (eV) =    3.1577
 Total energy for state  8:                 -1973.59468995 au
    Multiplicity: Singlet
    Trans. Mom.: -1.9926 X   0.1479 Y   3.5076 Z
    Strength   :     1.2606913098
    D(171) --> V(  1) amplitude =  0.2639
    D(172) --> V(  1) amplitude =  0.3612
    D(173) --> V(  1) amplitude =  0.8457

 Excited state   9: excitation energy (eV) =    3.2066
 Total energy for state  9:                 -1973.59289391 au
    Multiplicity: Triplet
    Trans. Mom.:  0.0000 X   0.0000 Y   0.0000 Z
    Strength   :     0.0000000000
    D(169) --> V(  1) amplitude =  0.5236
    D(171) --> V(  1) amplitude = -0.4803
    D(172) --> V(  1) amplitude =  0.5968
    D(173) --> V(  1) amplitude = -0.2880

 Excited state  10: excitation energy (eV) =    3.2261
 Total energy for state 10:                 -1973.59217669 au
    Multiplicity: Singlet
    Trans. Mom.: -0.3465 X   0.0359 Y   0.6092 Z
    Strength   :     0.0389210428
    D(171) --> V(  1) amplitude = -0.5950
    D(172) --> V(  1) amplitude =  0.7639

 Excited state  11: excitation energy (eV) =    3.2721
 Total energy for state 11:                 -1973.59048804 au
    Multiplicity: Singlet
    Trans. Mom.:  0.1047 X  -0.0216 Y  -0.2262 Z
    Strength   :     0.0050170255
    D(169) --> V(  1) amplitude =  0.9577

 Excited state  12: excitation energy (eV) =    3.4678
 Total energy for state 12:                 -1973.58329298 au
    Multiplicity: Singlet
    Trans. Mom.: -0.1316 X   0.2468 Y  -0.0648 Z
    Strength   :     0.0070017992
    D(170) --> V(  1) amplitude =  0.9357

 ---------------------------------------------------

                    Orbital Energies (a.u.)
 --------------------------------------------------------------

 Alpha MOs
 -- Occupied --
-10.473 -10.472 -10.472 -10.471 -10.471 -10.471 -10.471 -10.471
-10.470 -10.469 -10.469 -10.469 -10.468 -10.468 -10.467 -10.467
-10.466 -10.466 -10.464 -10.464 -10.463 -10.462 -10.461 -10.461
-10.461 -10.460 -10.459 -10.458 -10.456 -10.455 -10.455 -10.442
-10.442 -10.442 -10.441 -10.439 -10.439 -10.438 -10.438 -10.435
-10.433 -10.433 -10.432 -10.429 -10.416 -10.416 -10.416 -10.415
-10.412 -10.405  -6.954  -6.943  -1.024  -1.024  -0.970  -0.966
 -0.965  -0.940  -0.940  -0.938  -0.916  -0.906  -0.879  -0.877
 -0.864  -0.862  -0.861  -0.853  -0.852  -0.851  -0.830  -0.819
 -0.818  -0.811  -0.787  -0.767  -0.766  -0.765  -0.749  -0.744
 -0.740  -0.733  -0.730  -0.727  -0.695  -0.687  -0.686  -0.673
 -0.656  -0.652  -0.647  -0.646  -0.628  -0.621  -0.601  -0.596
 -0.595  -0.591  -0.588  -0.581  -0.581  -0.557  -0.549  -0.549
 -0.542  -0.532  -0.530  -0.527  -0.523  -0.513  -0.510  -0.503
 -0.500  -0.499  -0.495  -0.494  -0.494  -0.489  -0.487  -0.486
 -0.483  -0.474  -0.473  -0.471  -0.470  -0.469  -0.468  -0.462
 -0.460  -0.457  -0.456  -0.451  -0.451  -0.448  -0.447  -0.444
 -0.443  -0.440  -0.437  -0.432  -0.430  -0.430  -0.419  -0.415
 -0.403  -0.403  -0.403  -0.402  -0.398  -0.398  -0.397  -0.390
 -0.390  -0.387  -0.385  -0.378  -0.366  -0.360  -0.359  -0.358
 -0.354  -0.334  -0.328  -0.323  -0.303  -0.302  -0.290  -0.283
 -0.274  -0.269  -0.266  -0.264  -0.262  -0.241

          Ground-State Mulliken Net Atomic Charges

     Atom                 Charge (a.u.)
  ----------------------------------------
      1 C                    -0.154343
      2 C                    -0.396227
      3 H                     0.245352
      4 C                     0.070694
      5 C                     0.096388
      6 C                    -0.401286
      7 H                     0.264733
      8 C                    -0.154233
      9 C                     0.173850
     10 C                    -0.392248
     11 H                     0.252566
     12 C                    -0.071270
     13 C                     0.219201
     14 C                     0.179116
     15 C                    -0.398847
     16 H                     0.262403
     17 C                    -0.236461
     18 H                     0.260235
     19 C                    -0.347822
     20 H                     0.258312
     21 C                    -0.352167
     22 H                     0.258595
     23 C                    -0.232554
     24 H                     0.262845
     25 B                     0.678676
     26 C                    -0.153612
     27 C                    -0.399538
     28 H                     0.265416
     29 C                     0.094220
     30 C                     0.073600
     31 C                    -0.399893
     32 H                     0.244933
     33 C                    -0.152197
     34 C                     0.174093
     35 C                    -0.392039
     36 H                     0.253034
     37 C                    -0.071739
     38 C                     0.219176
     39 C                     0.177846
     40 C                    -0.396434
     41 H                     0.262951
     42 C                    -0.236205
     43 H                     0.260328
     44 C                    -0.348584
     45 H                     0.258300
     46 C                    -0.233281
     47 H                     0.263196
     48 C                    -0.352123
     49 H                     0.258551
     50 B                     0.673635
     51 C                    -0.255422
     52 C                     0.070092
     53 C                    -0.351747
     54 H                     0.229211
     55 C                     0.104393
     56 C                    -0.361021
     57 H                     0.231758
     58 C                     0.073537
     59 C                    -0.722100
     60 H                     0.239718
     61 H                     0.239862
     62 H                     0.240196
     63 C                    -0.772985
     64 H                     0.256839
     65 H                     0.239978
     66 H                     0.240474
     67 C                    -0.769690
     68 H                     0.256368
     69 H                     0.239122
     70 H                     0.239452
     71 C                    -0.224268
     72 C                     0.043358
     73 C                    -0.373044
     74 H                     0.229115
     75 C                     0.107290
     76 C                    -0.361241
     77 H                     0.227692
     78 C                     0.048751
     79 C                    -0.723103
     80 H                     0.239920
     81 H                     0.239843
     82 H                     0.241583
     83 C                    -0.769462
     84 H                     0.253146
     85 H                     0.245055
     86 H                     0.244702
     87 C                    -0.771000
     88 H                     0.253713
     89 H                     0.245373
     90 H                     0.245402
  ----------------------------------------
  Sum of atomic charges =    -0.000000

                    Cartesian Multipole Moments
 -----------------------------------------------------------------
    Charge (ESU x 10^10)
                -0.0000
    Dipole Moment (Debye)
         X      -1.3754      Y      -0.8899      Z      -0.7999
       Tot       1.8230
    Quadrupole Moments (Debye-Ang)
        XX    -244.1595     XY      -0.6810     YY    -299.8365
        XZ      -2.6985     YZ       4.0546     ZZ    -233.2274

 Total job time:  7549.61s(wall), 32130.85s(cpu)
        *  Thank you very much for using Q-Chem.  Have a nice day.  *
