 Q-Chem 5.0, Q-Chem, Inc., Pleasanton, CA (2017)
 Q-Chem 5.0.1 for Intel X86 EM64T Linux

User input:
--------------------------------------------------------------
$solvent
dielectric      4.33
dielectric_infi 1.83
$end

$rem
threads 8
jobtype	sp
method PBEh-3c
basis def2-mSVP
mem_static	1024
mem_total	14000
sym_ignore	true
cis_n_roots             2
cis_singlets            true
cis_triplets		false
rpa                     false
calc_soc 		true
cis_moments             true
cis_relaxed_density	true
solvent_method		pcm
$end

$pcm
StateSpecific   1
ChargeSeparation Excited
$end

$molecule
read sctopt.mol
$end

--------------------------------------------------------------

   14   -1973.7148198213      7.39E-09 Convergence criterion met
 Total energy in the final basis set = -1973.71481982
 Total job time:  5650.67s(wall), 19612.90s(cpu)
        *  Thank you very much for using Q-Chem.  Have a nice day.  *
 Q-Chem 5.0, Q-Chem, Inc., Pleasanton, CA (2017)
 Q-Chem 5.0.1 for Intel X86 EM64T Linux

User input:
--------------------------------------------------------------
$rem
threads 8
jobtype sp
method PBEh-3c
basis def2-mSVP
mem_static      1024
mem_total       14000
sym_ignore      true
cis_n_roots             6
cis_singlets            true
cis_triplets            true
rpa                     false
calc_soc                true
cis_moments             true
cis_relaxed_density     true
solvent_method          pcm
$end

$molecule
read
$end

$pcm
statespecific           Marcus
$end

$solvent
dielectric      4.33
dielectric_infi 1.83
$end

--------------------------------------------------------------

             Standard Nuclear Orientation (Angstroms)
    I     Atom           X                Y                Z
 ----------------------------------------------------------------
    1      C       0.0000000000     0.0000000000     0.0000000000
    2      C       0.0000000000     0.0000000000     1.4025650000
    3      H       0.9493094505     0.0000000000     1.9288504402
    4      C      -1.1789419522    -0.0311875012     2.1047829507
    5      C      -2.4288090106    -0.0617516084     1.4216058514
    6      C      -2.4524712368    -0.0316894678     0.0483696619
    7      H      -3.4091326076    -0.0537748432    -0.4653027071
    8      C      -1.2468657833    -0.0012407398    -0.6934325751
    9      C      -1.4330364982    -0.0994763684     3.5361495681
   10      C      -0.6475628495    -0.1254072235     4.6614978317
   11      H       0.4324505931    -0.0700885709     4.6048097223
   12      C      -2.8297458091    -0.1848749852     3.6859214391
   13      C      -3.4724190921    -0.3070933450     4.9152828551
   14      C      -3.4832088603    -0.1660030949     2.4365788942
   15      C      -4.8503176991    -0.2753558061     2.4275582270
   16      H      -5.4171685322    -0.2779153821     1.5049773855
   17      C      -1.2759141089    -0.2360710286     5.9219019049
   18      H      -0.6553360246    -0.2560692135     6.8087681047
   19      C      -2.6412519635    -0.3265777797     6.0611659823
   20      H      -3.0793020589    -0.4184549121     7.0475733250
   21      C      -4.8820352893    -0.4133678757     4.8715820291
   22      H      -5.4472199243    -0.5136500790     5.7902006722
   23      C      -5.5332771653    -0.3971663334     3.6603535744
   24      H      -6.6119909600    -0.4854485526     3.6453697599
   25      B      -1.2210458572    -0.0219130255    -2.2209075058
   26      C       0.0847748738    -0.0885101214    -3.0105492928
   27      C       0.1101402318    -0.1767321577    -4.4226798155
   28      H      -0.8180347159    -0.1611077153    -4.9860122451
   29      C       1.3002520669    -0.3103796189    -5.0957058076
   30      C       2.5237129831    -0.3529082639    -4.3663169187
   31      C       2.5205852653    -0.2492148633    -2.9966259620
   32      H       3.4526836822    -0.2875747270    -2.4416457017
   33      C       1.3159774394    -0.1196224935    -2.2890736964
   34      C       3.6142506423    -0.5606557209    -5.3069845094
   35      C       4.9729321646    -0.7211311308    -5.1973926594
   36      H       5.4763397675    -0.6873240367    -4.2389870513
   37      C       3.0249465768    -0.6305552583    -6.5846507640
   38      C       3.7372197675    -0.8551379021    -7.7587125518
   39      C       1.6244520158    -0.4812683413    -6.5138141568
   40      C       0.9079154863    -0.5535010683    -7.6801917831
   41      H      -0.1702864464    -0.4544971946    -7.6942441302
   42      C       5.7207781285    -0.9452841209    -6.3750063113
   43      H       6.7924399391    -1.0734993387    -6.2895157809
   44      C       5.1387437178    -1.0119377835    -7.6199437707
   45      H       5.7535359571    -1.1909830019    -8.4934566601
   46      C       1.6039464702    -0.7691106439    -8.8919818806
   47      H       1.0351330932    -0.8249175868    -9.8111867061
   48      C       2.9704093453    -0.9176095245    -8.9465267400
   49      H       3.4576593559    -1.0885409281    -9.8986645843
   50      B       1.3355440961    -0.0665848690    -0.7548598680
   51      C      -2.5821542276    -0.0276801148    -2.9917759724
   52      C      -3.2163890516    -1.2698989301    -3.3429162118
   53      C      -4.3764429965    -1.2447733993    -4.0645083719
   54      H      -4.8598058477    -2.1716357469    -4.3496816589
   55      C      -4.9734594049    -0.0229738188    -4.4572592453
   56      C      -4.3745654024     1.1940148493    -4.0929683692
   57      H      -4.8456195205     2.1216931470    -4.3919174353
   58      C      -3.2099197019     1.2149167309    -3.3698725456
   59      C      -6.2253056856    -0.0524778858    -5.2532818998
   60      H      -6.6212572045     0.9410358995    -5.4470825927
   61      H      -6.9919573147    -0.6413539959    -4.7450592861
   62      H      -6.0484843154    -0.5447905558    -6.2132941895
   63      C      -2.5570331185     2.4885962186    -2.9651433658
   64      H      -3.1105213444     3.3596107832    -3.3105932086
   65      H      -1.5401344621     2.5366061926    -3.3589736592
   66      H      -2.4616144664     2.5393093527    -1.8788847947
   67      C      -2.5773953458    -2.5489945807    -2.9199751087
   68      H      -3.1761217536    -3.4130691300    -3.2027249408
   69      H      -2.4266131410    -2.5641741531    -1.8399432380
   70      H      -1.5876048802    -2.6490683234    -3.3685438821
   71      C       2.6946963048    -0.1451664662     0.0438930330
   72      C       3.2241371892    -1.3872324621     0.4138173680
   73      C       4.4201423363    -1.4539127211     1.1213947993
   74      H       4.8172019015    -2.4255464305     1.3980035763
   75      C       5.1165720568    -0.3094512383     1.4810911372
   76      C       4.5851062010     0.9212286765     1.1128757853
   77      H       5.1142895819     1.8298686262     1.3832423531
   78      C       3.3936890032     1.0147186846     0.4054606037
   79      C       6.4005847543    -0.3910447576     2.2554629229
   80      H       6.7464933196    -1.4201206130     2.3499688218
   81      H       7.1961906294     0.1810101404     1.7755799168
   82      H       6.2836818892     0.0074927981     3.2653271539
   83      C       2.8417770778     2.3609740366     0.0302920601
   84      H       3.5118120706     3.1693272750     0.3239052425
   85      H       2.6786612821     2.4361178984    -1.0466551838
   86      H       1.8763796355     2.5380891102     0.5094648749
   87      C       2.4995446657    -2.6540086774     0.0517168301
   88      H       3.0380728015    -3.5380134361     0.3944002863
   89      H       2.3677118773    -2.7444856137    -1.0283388341
   90      H       1.5023900130    -2.6809503987     0.4960988089
 ----------------------------------------------------------------

   14   -1973.7087334264      8.23E-09 Convergence criterion met
 Total energy in the final basis set = -1973.70873343

         TDDFT/TDA Excitation Energies
 ---------------------------------------------------

 Excited state   1: excitation energy (eV) =    2.2537
 Total energy for state  1:                 -1973.62590994 au
    Multiplicity: Triplet
    Trans. Mom.:  0.0000 X   0.0000 Y   0.0000 Z
    Strength   :     0.0000000000
    D(167) --> V(  2) amplitude =  0.2466
    D(172) --> V(  1) amplitude =  0.7811
    D(173) --> V(  1) amplitude = -0.4395

 Excited state   2: excitation energy (eV) =    2.4455
 Total energy for state  2:                 -1973.61886393 au
    Multiplicity: Triplet
    Trans. Mom.:  0.0000 X   0.0000 Y   0.0000 Z
    Strength   :     0.0000000000
    D(174) --> V(  1) amplitude =  0.9643

 Excited state   3: excitation energy (eV) =    2.4506
 Total energy for state  3:                 -1973.61867438 au
    Multiplicity: Triplet
    Trans. Mom.:  0.0000 X   0.0000 Y   0.0000 Z
    Strength   :     0.0000000000
    D(170) --> V(  2) amplitude =  0.4767
    D(172) --> V(  1) amplitude =  0.4152
    D(173) --> V(  1) amplitude =  0.6881

 Excited state   4: excitation energy (eV) =    2.4865
 Total energy for state  4:                 -1973.61735575 au
    Multiplicity: Singlet
    Trans. Mom.: -0.0177 X  -0.0054 Y  -0.0220 Z
    Strength   :     0.0000503136
    D(174) --> V(  1) amplitude =  0.9728

 Excited state   5: excitation energy (eV) =    2.5057
 Total energy for state  5:                 -1973.61664968 au
    Multiplicity: Triplet
    Trans. Mom.:  0.0000 X   0.0000 Y   0.0000 Z
    Strength   :     0.0000000000
    D(170) --> V(  1) amplitude =  0.7363
    D(170) --> V(  4) amplitude =  0.2313
    D(173) --> V(  2) amplitude =  0.5258

 Excited state   6: excitation energy (eV) =    2.7525
 Total energy for state  6:                 -1973.60758125 au
    Multiplicity: Triplet
    Trans. Mom.:  0.0000 X   0.0000 Y   0.0000 Z
    Strength   :     0.0000000000
    D(167) --> V(  1) amplitude = -0.7052
    D(172) --> V(  2) amplitude = -0.5255

 Excited state   7: excitation energy (eV) =    2.9301
 Total energy for state  7:                 -1973.60105343 au
    Multiplicity: Singlet
    Trans. Mom.:  0.1449 X  -0.0281 Y  -0.2458 Z
    Strength   :     0.0059002804
    D(172) --> V(  1) amplitude =  0.8498
    D(173) --> V(  1) amplitude = -0.4347

 Excited state   8: excitation energy (eV) =    3.1678
 Total energy for state  8:                 -1973.59231744 au
    Multiplicity: Singlet
    Trans. Mom.: -1.9853 X   0.1485 Y   3.4939 Z
    Strength   :     1.2550079773
    D(172) --> V(  1) amplitude =  0.4278
    D(173) --> V(  1) amplitude =  0.8527

 Excited state   9: excitation energy (eV) =    3.2018
 Total energy for state  9:                 -1973.59106854 au
    Multiplicity: Triplet
    Trans. Mom.:  0.0000 X   0.0000 Y   0.0000 Z
    Strength   :     0.0000000000
    D(169) --> V(  1) amplitude =  0.9468

 Excited state  10: excitation energy (eV) =    3.2575
 Total energy for state 10:                 -1973.58902315 au
    Multiplicity: Singlet
    Trans. Mom.:  0.0826 X  -0.0167 Y  -0.1875 Z
    Strength   :     0.0033714764
    D(169) --> V(  1) amplitude =  0.9577

 Excited state  11: excitation energy (eV) =    3.3247
 Total energy for state 11:                 -1973.58655476 au
    Multiplicity: Singlet
    Trans. Mom.: -0.1548 X   0.0247 Y   0.2791 Z
    Strength   :     0.0083483847
    D(171) --> V(  1) amplitude =  0.9669

 Excited state  12: excitation energy (eV) =    3.4772
 Total energy for state 12:                 -1973.58094690 au
    Multiplicity: Singlet
    Trans. Mom.:  0.1322 X  -0.2396 Y   0.0669 Z
    Strength   :     0.0067624957
    D(170) --> V(  1) amplitude =  0.9339

 ---------------------------------------------------

                    Orbital Energies (a.u.)
 --------------------------------------------------------------

 Alpha MOs
 -- Occupied --
-10.471 -10.470 -10.470 -10.470 -10.469 -10.469 -10.469 -10.469
-10.468 -10.468 -10.467 -10.467 -10.467 -10.466 -10.466 -10.466
-10.465 -10.465 -10.463 -10.462 -10.462 -10.462 -10.459 -10.459
-10.459 -10.458 -10.456 -10.456 -10.454 -10.454 -10.453 -10.440
-10.440 -10.440 -10.440 -10.440 -10.439 -10.437 -10.437 -10.437
-10.431 -10.431 -10.431 -10.427 -10.419 -10.418 -10.417 -10.416
-10.413 -10.409  -6.952  -6.942  -1.022  -1.022  -0.968  -0.964
 -0.963  -0.940  -0.938  -0.938  -0.914  -0.905  -0.877  -0.875
 -0.863  -0.862  -0.860  -0.854  -0.851  -0.851  -0.828  -0.818
 -0.816  -0.809  -0.785  -0.769  -0.764  -0.763  -0.751  -0.744
 -0.739  -0.731  -0.729  -0.725  -0.694  -0.685  -0.684  -0.671
 -0.654  -0.650  -0.645  -0.644  -0.630  -0.623  -0.599  -0.595
 -0.594  -0.591  -0.587  -0.580  -0.580  -0.556  -0.548  -0.547
 -0.542  -0.531  -0.530  -0.529  -0.522  -0.512  -0.508  -0.502
 -0.499  -0.497  -0.494  -0.492  -0.491  -0.488  -0.485  -0.484
 -0.481  -0.475  -0.471  -0.470  -0.469  -0.469  -0.468  -0.460
 -0.460  -0.458  -0.455  -0.452  -0.451  -0.449  -0.447  -0.444
 -0.444  -0.439  -0.435  -0.432  -0.429  -0.428  -0.417  -0.414
 -0.402  -0.402  -0.401  -0.401  -0.400  -0.397  -0.396  -0.390
 -0.388  -0.385  -0.384  -0.376  -0.367  -0.362  -0.357  -0.356
 -0.353  -0.334  -0.326  -0.321  -0.301  -0.300  -0.288  -0.280
 -0.272  -0.268  -0.266  -0.263  -0.261  -0.242

          Ground-State Mulliken Net Atomic Charges

     Atom                 Charge (a.u.)
  ----------------------------------------
      1 C                    -0.153702
      2 C                    -0.394497
      3 H                     0.244414
      4 C                     0.074159
      5 C                     0.099420
      6 C                    -0.400674
      7 H                     0.258863
      8 C                    -0.153673
      9 C                     0.177553
     10 C                    -0.389703
     11 H                     0.248357
     12 C                    -0.070007
     13 C                     0.224245
     14 C                     0.182653
     15 C                    -0.397350
     16 H                     0.255634
     17 C                    -0.231914
     18 H                     0.255114
     19 C                    -0.345615
     20 H                     0.252436
     21 C                    -0.350081
     22 H                     0.252725
     23 C                    -0.228272
     24 H                     0.257000
     25 B                     0.680326
     26 C                    -0.153022
     27 C                    -0.398711
     28 H                     0.259490
     29 C                     0.097238
     30 C                     0.077114
     31 C                    -0.398069
     32 H                     0.243979
     33 C                    -0.151685
     34 C                     0.177819
     35 C                    -0.389511
     36 H                     0.248817
     37 C                    -0.070484
     38 C                     0.224187
     39 C                     0.181391
     40 C                    -0.394935
     41 H                     0.256112
     42 C                    -0.231655
     43 H                     0.255213
     44 C                    -0.346381
     45 H                     0.252440
     46 C                    -0.229000
     47 H                     0.257306
     48 C                    -0.350010
     49 H                     0.252685
     50 B                     0.679029
     51 C                    -0.253757
     52 C                     0.070112
     53 C                    -0.350358
     54 H                     0.223844
     55 C                     0.105702
     56 C                    -0.358835
     57 H                     0.226250
     58 C                     0.073551
     59 C                    -0.720634
     60 H                     0.237745
     61 H                     0.237973
     62 H                     0.238334
     63 C                    -0.771194
     64 H                     0.252711
     65 H                     0.241541
     66 H                     0.242059
     67 C                    -0.767876
     68 H                     0.252199
     69 H                     0.240913
     70 H                     0.241164
     71 C                    -0.225180
     72 C                     0.046029
     73 C                    -0.368951
     74 H                     0.224046
     75 C                     0.110892
     76 C                    -0.357804
     77 H                     0.222828
     78 C                     0.051568
     79 C                    -0.721324
     80 H                     0.237741
     81 H                     0.238083
     82 H                     0.239895
     83 C                    -0.768014
     84 H                     0.249852
     85 H                     0.245299
     86 H                     0.244695
     87 C                    -0.769598
     88 H                     0.250408
     89 H                     0.245609
     90 H                     0.245714
  ----------------------------------------
  Sum of atomic charges =    -0.000000

                    Cartesian Multipole Moments
 -----------------------------------------------------------------
    Charge (ESU x 10^10)
                -0.0000
    Dipole Moment (Debye)
         X      -0.9855      Y      -0.8490      Z      -0.5751
       Tot       1.4222
    Quadrupole Moments (Debye-Ang)
        XX    -247.7317     XY      -0.7121     YY    -300.1871
        XZ      -3.5116     YZ       3.8619     ZZ    -237.3876

 Total job time:  7871.48s(wall), 32908.01s(cpu)
        *  Thank you very much for using Q-Chem.  Have a nice day.  *
