 Q-Chem 5.0, Q-Chem, Inc., Pleasanton, CA (2017)
 Q-Chem 5.0.1 for Intel X86 EM64T Linux

User input:
--------------------------------------------------------------
$solvent
dielectric      1.0001
dielectric_infi 1.00009
$end

$rem
threads 8
jobtype	sp
method PBEh-3c
basis def2-mSVP
mem_static	1024
mem_total	14000
sym_ignore	true
cis_n_roots             2
cis_singlets            true
cis_triplets		false
rpa                     false
calc_soc 		true
cis_moments             true
cis_relaxed_density	true
solvent_method		pcm
$end

$pcm
StateSpecific   1
ChargeSeparation Excited
$end

$molecule
read sctopt.mol
$end

--------------------------------------------------------------

   15   -1973.6945457805      6.84E-09 Convergence criterion met
 Total energy in the final basis set = -1973.69454578
 Total job time:  5406.09s(wall), 18559.74s(cpu)
        *  Thank you very much for using Q-Chem.  Have a nice day.  *
 Q-Chem 5.0, Q-Chem, Inc., Pleasanton, CA (2017)
 Q-Chem 5.0.1 for Intel X86 EM64T Linux

User input:
--------------------------------------------------------------
$rem
threads 8
jobtype sp
method PBEh-3c
basis def2-mSVP
mem_static      1024
mem_total       14000
sym_ignore      true
cis_n_roots             6
cis_singlets            true
cis_triplets            true
rpa                     false
calc_soc                true
cis_moments             true
cis_relaxed_density     true
solvent_method          pcm
$end

$molecule
read
$end

$pcm
statespecific           Marcus
$end

$solvent
dielectric      1.0001
dielectric_infi 1.00009
$end

--------------------------------------------------------------

             Standard Nuclear Orientation (Angstroms)
    I     Atom           X                Y                Z
 ----------------------------------------------------------------
    1      C       0.0000000000     0.0000000000     0.0000000000
    2      C       0.0000000000     0.0000000000     1.4025650000
    3      H       0.9493094505     0.0000000000     1.9288504402
    4      C      -1.1789419522    -0.0311875012     2.1047829507
    5      C      -2.4288090106    -0.0617516084     1.4216058514
    6      C      -2.4524712368    -0.0316894678     0.0483696619
    7      H      -3.4091326076    -0.0537748432    -0.4653027071
    8      C      -1.2468657833    -0.0012407398    -0.6934325751
    9      C      -1.4330364982    -0.0994763684     3.5361495681
   10      C      -0.6475628495    -0.1254072235     4.6614978317
   11      H       0.4324505931    -0.0700885709     4.6048097223
   12      C      -2.8297458091    -0.1848749852     3.6859214391
   13      C      -3.4724190921    -0.3070933450     4.9152828551
   14      C      -3.4832088603    -0.1660030949     2.4365788942
   15      C      -4.8503176991    -0.2753558061     2.4275582270
   16      H      -5.4171685322    -0.2779153821     1.5049773855
   17      C      -1.2759141089    -0.2360710286     5.9219019049
   18      H      -0.6553360246    -0.2560692135     6.8087681047
   19      C      -2.6412519635    -0.3265777797     6.0611659823
   20      H      -3.0793020589    -0.4184549121     7.0475733250
   21      C      -4.8820352893    -0.4133678757     4.8715820291
   22      H      -5.4472199243    -0.5136500790     5.7902006722
   23      C      -5.5332771653    -0.3971663334     3.6603535744
   24      H      -6.6119909600    -0.4854485526     3.6453697599
   25      B      -1.2210458572    -0.0219130255    -2.2209075058
   26      C       0.0847748738    -0.0885101214    -3.0105492928
   27      C       0.1101402318    -0.1767321577    -4.4226798155
   28      H      -0.8180347159    -0.1611077153    -4.9860122451
   29      C       1.3002520669    -0.3103796189    -5.0957058076
   30      C       2.5237129831    -0.3529082639    -4.3663169187
   31      C       2.5205852653    -0.2492148633    -2.9966259620
   32      H       3.4526836822    -0.2875747270    -2.4416457017
   33      C       1.3159774394    -0.1196224935    -2.2890736964
   34      C       3.6142506423    -0.5606557209    -5.3069845094
   35      C       4.9729321646    -0.7211311308    -5.1973926594
   36      H       5.4763397675    -0.6873240367    -4.2389870513
   37      C       3.0249465768    -0.6305552583    -6.5846507640
   38      C       3.7372197675    -0.8551379021    -7.7587125518
   39      C       1.6244520158    -0.4812683413    -6.5138141568
   40      C       0.9079154863    -0.5535010683    -7.6801917831
   41      H      -0.1702864464    -0.4544971946    -7.6942441302
   42      C       5.7207781285    -0.9452841209    -6.3750063113
   43      H       6.7924399391    -1.0734993387    -6.2895157809
   44      C       5.1387437178    -1.0119377835    -7.6199437707
   45      H       5.7535359571    -1.1909830019    -8.4934566601
   46      C       1.6039464702    -0.7691106439    -8.8919818806
   47      H       1.0351330932    -0.8249175868    -9.8111867061
   48      C       2.9704093453    -0.9176095245    -8.9465267400
   49      H       3.4576593559    -1.0885409281    -9.8986645843
   50      B       1.3355440961    -0.0665848690    -0.7548598680
   51      C      -2.5821542276    -0.0276801148    -2.9917759724
   52      C      -3.2163890516    -1.2698989301    -3.3429162118
   53      C      -4.3764429965    -1.2447733993    -4.0645083719
   54      H      -4.8598058477    -2.1716357469    -4.3496816589
   55      C      -4.9734594049    -0.0229738188    -4.4572592453
   56      C      -4.3745654024     1.1940148493    -4.0929683692
   57      H      -4.8456195205     2.1216931470    -4.3919174353
   58      C      -3.2099197019     1.2149167309    -3.3698725456
   59      C      -6.2253056856    -0.0524778858    -5.2532818998
   60      H      -6.6212572045     0.9410358995    -5.4470825927
   61      H      -6.9919573147    -0.6413539959    -4.7450592861
   62      H      -6.0484843154    -0.5447905558    -6.2132941895
   63      C      -2.5570331185     2.4885962186    -2.9651433658
   64      H      -3.1105213444     3.3596107832    -3.3105932086
   65      H      -1.5401344621     2.5366061926    -3.3589736592
   66      H      -2.4616144664     2.5393093527    -1.8788847947
   67      C      -2.5773953458    -2.5489945807    -2.9199751087
   68      H      -3.1761217536    -3.4130691300    -3.2027249408
   69      H      -2.4266131410    -2.5641741531    -1.8399432380
   70      H      -1.5876048802    -2.6490683234    -3.3685438821
   71      C       2.6946963048    -0.1451664662     0.0438930330
   72      C       3.2241371892    -1.3872324621     0.4138173680
   73      C       4.4201423363    -1.4539127211     1.1213947993
   74      H       4.8172019015    -2.4255464305     1.3980035763
   75      C       5.1165720568    -0.3094512383     1.4810911372
   76      C       4.5851062010     0.9212286765     1.1128757853
   77      H       5.1142895819     1.8298686262     1.3832423531
   78      C       3.3936890032     1.0147186846     0.4054606037
   79      C       6.4005847543    -0.3910447576     2.2554629229
   80      H       6.7464933196    -1.4201206130     2.3499688218
   81      H       7.1961906294     0.1810101404     1.7755799168
   82      H       6.2836818892     0.0074927981     3.2653271539
   83      C       2.8417770778     2.3609740366     0.0302920601
   84      H       3.5118120706     3.1693272750     0.3239052425
   85      H       2.6786612821     2.4361178984    -1.0466551838
   86      H       1.8763796355     2.5380891102     0.5094648749
   87      C       2.4995446657    -2.6540086774     0.0517168301
   88      H       3.0380728015    -3.5380134361     0.3944002863
   89      H       2.3677118773    -2.7444856137    -1.0283388341
   90      H       1.5023900130    -2.6809503987     0.4960988089
 ----------------------------------------------------------------

   15   -1973.6945442882      6.84E-09 Convergence criterion met
 Total energy in the final basis set = -1973.69454429

         TDDFT/TDA Excitation Energies
 ---------------------------------------------------

 Excited state   1: excitation energy (eV) =    2.2054
 Total energy for state  1:                 -1973.61349823 au
    Multiplicity: Triplet
    Trans. Mom.:  0.0000 X   0.0000 Y   0.0000 Z
    Strength   :     0.0000000000
    D(167) --> V(  2) amplitude =  0.2471
    D(172) --> V(  1) amplitude =  0.5514
    D(173) --> V(  1) amplitude =  0.7348

 Excited state   2: excitation energy (eV) =    2.4411
 Total energy for state  2:                 -1973.60483434 au
    Multiplicity: Triplet
    Trans. Mom.:  0.0000 X   0.0000 Y   0.0000 Z
    Strength   :     0.0000000000
    D(171) --> V(  2) amplitude =  0.4769
    D(172) --> V(  1) amplitude =  0.6519
    D(173) --> V(  1) amplitude = -0.4675

 Excited state   3: excitation energy (eV) =    2.4967
 Total energy for state  3:                 -1973.60279087 au
    Multiplicity: Triplet
    Trans. Mom.:  0.0000 X   0.0000 Y   0.0000 Z
    Strength   :     0.0000000000
    D(171) --> V(  1) amplitude =  0.7299
    D(171) --> V(  4) amplitude = -0.2335
    D(172) --> V(  2) amplitude =  0.3674
    D(173) --> V(  2) amplitude = -0.4160

 Excited state   4: excitation energy (eV) =    2.7110
 Total energy for state  4:                 -1973.59491516 au
    Multiplicity: Triplet
    Trans. Mom.:  0.0000 X   0.0000 Y   0.0000 Z
    Strength   :     0.0000000000
    D(167) --> V(  1) amplitude =  0.7077
    D(172) --> V(  2) amplitude =  0.4258
    D(173) --> V(  2) amplitude =  0.3684

 Excited state   5: excitation energy (eV) =    2.7573
 Total energy for state  5:                 -1973.59321580 au
    Multiplicity: Triplet
    Trans. Mom.:  0.0000 X   0.0000 Y   0.0000 Z
    Strength   :     0.0000000000
    D(174) --> V(  1) amplitude =  0.9533

 Excited state   6: excitation energy (eV) =    2.8078
 Total energy for state  6:                 -1973.59135994 au
    Multiplicity: Singlet
    Trans. Mom.: -0.0101 X  -0.0055 Y  -0.0296 Z
    Strength   :     0.0000695461
    D(174) --> V(  1) amplitude =  0.9690

 Excited state   7: excitation energy (eV) =    2.8887
 Total energy for state  7:                 -1973.58838705 au
    Multiplicity: Singlet
    Trans. Mom.:  0.1272 X  -0.0230 Y  -0.2135 Z
    Strength   :     0.0044087449
    D(172) --> V(  1) amplitude =  0.6160
    D(173) --> V(  1) amplitude =  0.7449

 Excited state   8: excitation energy (eV) =    3.1554
 Total energy for state  8:                 -1973.57858629 au
    Multiplicity: Triplet
    Trans. Mom.:  0.0000 X   0.0000 Y   0.0000 Z
    Strength   :     0.0000000000
    D(170) --> V(  1) amplitude =  0.9432

 Excited state   9: excitation energy (eV) =    3.2041
 Total energy for state  9:                 -1973.57679473 au
    Multiplicity: Singlet
    Trans. Mom.: -0.4269 X   0.0243 Y   0.7088 Z
    Strength   :     0.0537926346
    D(170) --> V(  1) amplitude =  0.9250

 Excited state  10: excitation energy (eV) =    3.2286
 Total energy for state 10:                 -1973.57589469 au
    Multiplicity: Singlet
    Trans. Mom.: -1.6967 X   0.1297 Y   2.9969 Z
    Strength   :     0.9394552781
    D(170) --> V(  1) amplitude = -0.2471
    D(172) --> V(  1) amplitude =  0.7050
    D(173) --> V(  1) amplitude = -0.5847

 Excited state  11: excitation energy (eV) =    3.5314
 Total energy for state 11:                 -1973.56476770 au
    Multiplicity: Singlet
    Trans. Mom.:  0.1433 X  -0.1936 Y   0.0695 Z
    Strength   :     0.0054378591
    D(171) --> V(  1) amplitude =  0.9231

 Excited state  12: excitation energy (eV) =    3.6095
 Total energy for state 12:                 -1973.56189690 au
    Multiplicity: Singlet
    Trans. Mom.: -0.0729 X   0.0146 Y   0.0294 Z
    Strength   :     0.0005658631
    D(169) --> V(  1) amplitude =  0.9862

 ---------------------------------------------------

                    Orbital Energies (a.u.)
 --------------------------------------------------------------

 Alpha MOs
 -- Occupied --
-10.464 -10.464 -10.464 -10.464 -10.463 -10.463 -10.462 -10.462
-10.462 -10.461 -10.461 -10.461 -10.461 -10.461 -10.460 -10.460
-10.459 -10.459 -10.459 -10.459 -10.459 -10.458 -10.453 -10.453
-10.450 -10.449 -10.446 -10.446 -10.446 -10.446 -10.445 -10.445
-10.445 -10.445 -10.432 -10.432 -10.431 -10.430 -10.429 -10.429
-10.428 -10.427 -10.427 -10.425 -10.424 -10.423 -10.422 -10.421
-10.417 -10.417  -6.943  -6.937  -1.014  -1.014  -0.960  -0.957
 -0.953  -0.946  -0.932  -0.932  -0.906  -0.897  -0.869  -0.869
 -0.866  -0.864  -0.853  -0.852  -0.846  -0.845  -0.821  -0.812
 -0.810  -0.802  -0.779  -0.777  -0.757  -0.756  -0.755  -0.748
 -0.734  -0.726  -0.726  -0.719  -0.688  -0.680  -0.679  -0.665
 -0.649  -0.644  -0.638  -0.637  -0.634  -0.629  -0.594  -0.591
 -0.590  -0.588  -0.582  -0.575  -0.575  -0.550  -0.543  -0.543
 -0.539  -0.536  -0.526  -0.526  -0.518  -0.506  -0.503  -0.495
 -0.494  -0.493  -0.489  -0.485  -0.482  -0.482  -0.479  -0.478
 -0.478  -0.477  -0.474  -0.466  -0.466  -0.464  -0.462  -0.462
 -0.461  -0.458  -0.457  -0.453  -0.451  -0.449  -0.447  -0.444
 -0.442  -0.441  -0.430  -0.428  -0.425  -0.420  -0.411  -0.410
 -0.408  -0.401  -0.398  -0.394  -0.393  -0.393  -0.391  -0.387
 -0.379  -0.377  -0.377  -0.373  -0.371  -0.364  -0.351  -0.348
 -0.347  -0.332  -0.318  -0.312  -0.294  -0.293  -0.279  -0.272
 -0.269  -0.262  -0.260  -0.254  -0.252  -0.247

          Ground-State Mulliken Net Atomic Charges

     Atom                 Charge (a.u.)
  ----------------------------------------
      1 C                    -0.150423
      2 C                    -0.388642
      3 H                     0.235506
      4 C                     0.091342
      5 C                     0.115463
      6 C                    -0.397033
      7 H                     0.233461
      8 C                    -0.150970
      9 C                     0.195188
     10 C                    -0.376194
     11 H                     0.221481
     12 C                    -0.064737
     13 C                     0.251256
     14 C                     0.200472
     15 C                    -0.385882
     16 H                     0.221072
     17 C                    -0.205641
     18 H                     0.226307
     19 C                    -0.331009
     20 H                     0.220268
     21 C                    -0.336069
     22 H                     0.220503
     23 C                    -0.202029
     24 H                     0.226316
     25 B                     0.684772
     26 C                    -0.150283
     27 C                    -0.393827
     28 H                     0.233964
     29 C                     0.113152
     30 C                     0.094456
     31 C                    -0.391730
     32 H                     0.234874
     33 C                    -0.149066
     34 C                     0.195539
     35 C                    -0.376123
     36 H                     0.221868
     37 C                    -0.065247
     38 C                     0.251025
     39 C                     0.199207
     40 C                    -0.383394
     41 H                     0.221305
     42 C                    -0.205368
     43 H                     0.226430
     44 C                    -0.331783
     45 H                     0.220363
     46 C                    -0.202746
     47 H                     0.226445
     48 C                    -0.335851
     49 H                     0.220492
     50 B                     0.696444
     51 C                    -0.247514
     52 C                     0.073828
     53 C                    -0.336768
     54 H                     0.195158
     55 C                     0.117247
     56 C                    -0.340744
     57 H                     0.196181
     58 C                     0.077435
     59 C                    -0.710049
     60 H                     0.226106
     61 H                     0.227998
     62 H                     0.228565
     63 C                    -0.759731
     64 H                     0.233072
     65 H                     0.244416
     66 H                     0.245518
     67 C                    -0.756419
     68 H                     0.232538
     69 H                     0.245027
     70 H                     0.244942
     71 C                    -0.228738
     72 C                     0.058322
     73 C                    -0.344231
     74 H                     0.196284
     75 C                     0.130346
     76 C                    -0.336636
     77 H                     0.196413
     78 C                     0.064667
     79 C                    -0.709476
     80 H                     0.225860
     81 H                     0.228679
     82 H                     0.230956
     83 C                    -0.756908
     84 H                     0.233654
     85 H                     0.243487
     86 H                     0.241917
     87 C                    -0.758849
     88 H                     0.234061
     89 H                     0.243985
     90 H                     0.244476
  ----------------------------------------
  Sum of atomic charges =    -0.000000

                    Cartesian Multipole Moments
 -----------------------------------------------------------------
    Charge (ESU x 10^10)
                -0.0000
    Dipole Moment (Debye)
         X       0.2757      Y      -0.6710      Z       0.1511
       Tot       0.7410
    Quadrupole Moments (Debye-Ang)
        XX    -263.0984     XY      -0.7340     YY    -302.1505
        XZ      -6.3762     YZ       3.0530     ZZ    -254.5231

 Total job time:  8214.02s(wall), 34466.43s(cpu)
        *  Thank you very much for using Q-Chem.  Have a nice day.  *
