 Q-Chem 5.0, Q-Chem, Inc., Pleasanton, CA (2017)
 Q-Chem 5.0.1 for Intel X86 EM64T Linux

User input:
--------------------------------------------------------------
$solvent
dielectric      35.7
dielectric_infi 1.81
$end

$rem
threads 8
jobtype	sp
method PBEh-3c
basis def2-mSVP
mem_static	1024
mem_total	14000
sym_ignore	true
cis_n_roots             2
cis_singlets            true
cis_triplets		false
rpa                     false
calc_soc 		true
cis_moments             true
cis_relaxed_density	true
solvent_method		pcm
$end

$pcm
StateSpecific   1
ChargeSeparation Excited
$end

$molecule
read sctopt.mol
$end

--------------------------------------------------------------

   14   -1973.7210432074      6.02E-09 Convergence criterion met
 Total energy in the final basis set = -1973.72104321
 Total job time:  5207.31s(wall), 17963.77s(cpu)
        *  Thank you very much for using Q-Chem.  Have a nice day.  *
 Q-Chem 5.0, Q-Chem, Inc., Pleasanton, CA (2017)
 Q-Chem 5.0.1 for Intel X86 EM64T Linux

User input:
--------------------------------------------------------------
$rem
threads 8
jobtype sp
method PBEh-3c
basis def2-mSVP
mem_static      1024
mem_total       14000
sym_ignore      true
cis_n_roots             6
cis_singlets            true
cis_triplets            true
rpa                     false
calc_soc                true
cis_moments             true
cis_relaxed_density     true
solvent_method          pcm
$end

$molecule
read
$end

$pcm
statespecific           Marcus
$end

$solvent
dielectric      35.7
dielectric_infi 1.81
$end

--------------------------------------------------------------

             Standard Nuclear Orientation (Angstroms)
    I     Atom           X                Y                Z
 ----------------------------------------------------------------
    1      C       0.0000000000     0.0000000000     0.0000000000
    2      C       0.0000000000     0.0000000000     1.4025650000
    3      H       0.9493094505     0.0000000000     1.9288504402
    4      C      -1.1789419522    -0.0311875012     2.1047829507
    5      C      -2.4288090106    -0.0617516084     1.4216058514
    6      C      -2.4524712368    -0.0316894678     0.0483696619
    7      H      -3.4091326076    -0.0537748432    -0.4653027071
    8      C      -1.2468657833    -0.0012407398    -0.6934325751
    9      C      -1.4330364982    -0.0994763684     3.5361495681
   10      C      -0.6475628495    -0.1254072235     4.6614978317
   11      H       0.4324505931    -0.0700885709     4.6048097223
   12      C      -2.8297458091    -0.1848749852     3.6859214391
   13      C      -3.4724190921    -0.3070933450     4.9152828551
   14      C      -3.4832088603    -0.1660030949     2.4365788942
   15      C      -4.8503176991    -0.2753558061     2.4275582270
   16      H      -5.4171685322    -0.2779153821     1.5049773855
   17      C      -1.2759141089    -0.2360710286     5.9219019049
   18      H      -0.6553360246    -0.2560692135     6.8087681047
   19      C      -2.6412519635    -0.3265777797     6.0611659823
   20      H      -3.0793020589    -0.4184549121     7.0475733250
   21      C      -4.8820352893    -0.4133678757     4.8715820291
   22      H      -5.4472199243    -0.5136500790     5.7902006722
   23      C      -5.5332771653    -0.3971663334     3.6603535744
   24      H      -6.6119909600    -0.4854485526     3.6453697599
   25      B      -1.2210458572    -0.0219130255    -2.2209075058
   26      C       0.0847748738    -0.0885101214    -3.0105492928
   27      C       0.1101402318    -0.1767321577    -4.4226798155
   28      H      -0.8180347159    -0.1611077153    -4.9860122451
   29      C       1.3002520669    -0.3103796189    -5.0957058076
   30      C       2.5237129831    -0.3529082639    -4.3663169187
   31      C       2.5205852653    -0.2492148633    -2.9966259620
   32      H       3.4526836822    -0.2875747270    -2.4416457017
   33      C       1.3159774394    -0.1196224935    -2.2890736964
   34      C       3.6142506423    -0.5606557209    -5.3069845094
   35      C       4.9729321646    -0.7211311308    -5.1973926594
   36      H       5.4763397675    -0.6873240367    -4.2389870513
   37      C       3.0249465768    -0.6305552583    -6.5846507640
   38      C       3.7372197675    -0.8551379021    -7.7587125518
   39      C       1.6244520158    -0.4812683413    -6.5138141568
   40      C       0.9079154863    -0.5535010683    -7.6801917831
   41      H      -0.1702864464    -0.4544971946    -7.6942441302
   42      C       5.7207781285    -0.9452841209    -6.3750063113
   43      H       6.7924399391    -1.0734993387    -6.2895157809
   44      C       5.1387437178    -1.0119377835    -7.6199437707
   45      H       5.7535359571    -1.1909830019    -8.4934566601
   46      C       1.6039464702    -0.7691106439    -8.8919818806
   47      H       1.0351330932    -0.8249175868    -9.8111867061
   48      C       2.9704093453    -0.9176095245    -8.9465267400
   49      H       3.4576593559    -1.0885409281    -9.8986645843
   50      B       1.3355440961    -0.0665848690    -0.7548598680
   51      C      -2.5821542276    -0.0276801148    -2.9917759724
   52      C      -3.2163890516    -1.2698989301    -3.3429162118
   53      C      -4.3764429965    -1.2447733993    -4.0645083719
   54      H      -4.8598058477    -2.1716357469    -4.3496816589
   55      C      -4.9734594049    -0.0229738188    -4.4572592453
   56      C      -4.3745654024     1.1940148493    -4.0929683692
   57      H      -4.8456195205     2.1216931470    -4.3919174353
   58      C      -3.2099197019     1.2149167309    -3.3698725456
   59      C      -6.2253056856    -0.0524778858    -5.2532818998
   60      H      -6.6212572045     0.9410358995    -5.4470825927
   61      H      -6.9919573147    -0.6413539959    -4.7450592861
   62      H      -6.0484843154    -0.5447905558    -6.2132941895
   63      C      -2.5570331185     2.4885962186    -2.9651433658
   64      H      -3.1105213444     3.3596107832    -3.3105932086
   65      H      -1.5401344621     2.5366061926    -3.3589736592
   66      H      -2.4616144664     2.5393093527    -1.8788847947
   67      C      -2.5773953458    -2.5489945807    -2.9199751087
   68      H      -3.1761217536    -3.4130691300    -3.2027249408
   69      H      -2.4266131410    -2.5641741531    -1.8399432380
   70      H      -1.5876048802    -2.6490683234    -3.3685438821
   71      C       2.6946963048    -0.1451664662     0.0438930330
   72      C       3.2241371892    -1.3872324621     0.4138173680
   73      C       4.4201423363    -1.4539127211     1.1213947993
   74      H       4.8172019015    -2.4255464305     1.3980035763
   75      C       5.1165720568    -0.3094512383     1.4810911372
   76      C       4.5851062010     0.9212286765     1.1128757853
   77      H       5.1142895819     1.8298686262     1.3832423531
   78      C       3.3936890032     1.0147186846     0.4054606037
   79      C       6.4005847543    -0.3910447576     2.2554629229
   80      H       6.7464933196    -1.4201206130     2.3499688218
   81      H       7.1961906294     0.1810101404     1.7755799168
   82      H       6.2836818892     0.0074927981     3.2653271539
   83      C       2.8417770778     2.3609740366     0.0302920601
   84      H       3.5118120706     3.1693272750     0.3239052425
   85      H       2.6786612821     2.4361178984    -1.0466551838
   86      H       1.8763796355     2.5380891102     0.5094648749
   87      C       2.4995446657    -2.6540086774     0.0517168301
   88      H       3.0380728015    -3.5380134361     0.3944002863
   89      H       2.3677118773    -2.7444856137    -1.0283388341
   90      H       1.5023900130    -2.6809503987     0.4960988089
 ----------------------------------------------------------------

   14   -1973.7103649979      9.84E-09 Convergence criterion met
 Total energy in the final basis set = -1973.71036500

         TDDFT/TDA Excitation Energies
 ---------------------------------------------------

 Excited state   1: excitation energy (eV) =    2.1857
 Total energy for state  1:                 -1973.63004090 au
    Multiplicity: Triplet
    Trans. Mom.:  0.0000 X   0.0000 Y   0.0000 Z
    Strength   :     0.0000000000
    D(174) --> V(  1) amplitude =  0.9689

 Excited state   2: excitation energy (eV) =    2.2221
 Total energy for state  2:                 -1973.62870293 au
    Multiplicity: Singlet
    Trans. Mom.: -0.0184 X  -0.0048 Y  -0.0213 Z
    Strength   :     0.0000444670
    D(174) --> V(  1) amplitude =  0.9746

 Excited state   3: excitation energy (eV) =    2.2767
 Total energy for state  3:                 -1973.62669796 au
    Multiplicity: Triplet
    Trans. Mom.:  0.0000 X   0.0000 Y   0.0000 Z
    Strength   :     0.0000000000
    D(167) --> V(  2) amplitude =  0.2468
    D(171) --> V(  1) amplitude =  0.8580
    D(172) --> V(  1) amplitude = -0.2777

 Excited state   4: excitation energy (eV) =    2.4549
 Total energy for state  4:                 -1973.62014990 au
    Multiplicity: Triplet
    Trans. Mom.:  0.0000 X   0.0000 Y   0.0000 Z
    Strength   :     0.0000000000
    D(170) --> V(  2) amplitude =  0.4790
    D(171) --> V(  1) amplitude =  0.2814
    D(172) --> V(  1) amplitude =  0.7506

 Excited state   5: excitation energy (eV) =    2.5095
 Total energy for state  5:                 -1973.61814392 au
    Multiplicity: Triplet
    Trans. Mom.:  0.0000 X   0.0000 Y   0.0000 Z
    Strength   :     0.0000000000
    D(170) --> V(  1) amplitude =  0.7389
    D(170) --> V(  4) amplitude =  0.2234
    D(172) --> V(  2) amplitude =  0.5478

 Excited state   6: excitation energy (eV) =    2.7706
 Total energy for state  6:                 -1973.60854908 au
    Multiplicity: Triplet
    Trans. Mom.:  0.0000 X   0.0000 Y   0.0000 Z
    Strength   :     0.0000000000
    D(167) --> V(  1) amplitude = -0.7021
    D(171) --> V(  2) amplitude = -0.5550

 Excited state   7: excitation energy (eV) =    2.9482
 Total energy for state  7:                 -1973.60201912 au
    Multiplicity: Singlet
    Trans. Mom.:  0.1324 X  -0.0241 Y  -0.2249 Z
    Strength   :     0.0049604671
    D(171) --> V(  1) amplitude =  0.8350
    D(172) --> V(  1) amplitude = -0.2132
    D(173) --> V(  1) amplitude =  0.4448

 Excited state   8: excitation energy (eV) =    3.0204
 Total energy for state  8:                 -1973.59936912 au
    Multiplicity: Triplet
    Trans. Mom.:  0.0000 X   0.0000 Y   0.0000 Z
    Strength   :     0.0000000000
    D(173) --> V(  1) amplitude =  0.9702

 Excited state   9: excitation energy (eV) =    3.0394
 Total energy for state  9:                 -1973.59866858 au
    Multiplicity: Singlet
    Trans. Mom.:  0.1510 X   0.0022 Y  -0.2652 Z
    Strength   :     0.0069375097
    D(171) --> V(  1) amplitude = -0.4245
    D(173) --> V(  1) amplitude =  0.8819

 Excited state  10: excitation energy (eV) =    3.1749
 Total energy for state 10:                 -1973.59369060 au
    Multiplicity: Singlet
    Trans. Mom.: -1.9830 X   0.1498 Y   3.4931 Z
    Strength   :     1.2567128160
    D(171) --> V(  1) amplitude =  0.2377
    D(172) --> V(  1) amplitude =  0.9250

 Excited state  11: excitation energy (eV) =    3.2986
 Total energy for state 11:                 -1973.58914395 au
    Multiplicity: Singlet
    Trans. Mom.:  0.0760 X  -0.0191 Y  -0.1673 Z
    Strength   :     0.0027588263
    D(169) --> V(  1) amplitude =  0.9624

 Excited state  12: excitation energy (eV) =    3.4791
 Total energy for state 12:                 -1973.58251030 au
    Multiplicity: Singlet
    Trans. Mom.:  0.1289 X  -0.2404 Y   0.0577 Z
    Strength   :     0.0066256015
    D(170) --> V(  1) amplitude =  0.9358

 ---------------------------------------------------

                    Orbital Energies (a.u.)
 --------------------------------------------------------------

 Alpha MOs
 -- Occupied --
-10.475 -10.475 -10.474 -10.474 -10.474 -10.473 -10.473 -10.473
-10.472 -10.471 -10.471 -10.471 -10.471 -10.470 -10.470 -10.469
-10.468 -10.468 -10.466 -10.466 -10.464 -10.464 -10.464 -10.463
-10.462 -10.462 -10.462 -10.462 -10.459 -10.458 -10.458 -10.445
-10.444 -10.444 -10.443 -10.443 -10.442 -10.436 -10.436 -10.434
-10.434 -10.434 -10.432 -10.429 -10.413 -10.412 -10.411 -10.410
-10.408 -10.398  -6.957  -6.943  -1.026  -1.026  -0.973  -0.969
 -0.968  -0.942  -0.942  -0.934  -0.918  -0.909  -0.882  -0.880
 -0.865  -0.864  -0.857  -0.855  -0.854  -0.848  -0.832  -0.821
 -0.820  -0.813  -0.790  -0.769  -0.769  -0.762  -0.745  -0.744
 -0.741  -0.735  -0.729  -0.729  -0.697  -0.689  -0.688  -0.675
 -0.658  -0.654  -0.650  -0.648  -0.625  -0.616  -0.603  -0.597
 -0.597  -0.592  -0.590  -0.583  -0.583  -0.560  -0.552  -0.551
 -0.541  -0.534  -0.532  -0.523  -0.523  -0.515  -0.512  -0.506
 -0.502  -0.501  -0.497  -0.496  -0.496  -0.490  -0.489  -0.488
 -0.484  -0.476  -0.474  -0.473  -0.472  -0.469  -0.466  -0.465
 -0.460  -0.458  -0.454  -0.454  -0.451  -0.447  -0.445  -0.441
 -0.440  -0.440  -0.439  -0.434  -0.431  -0.425  -0.421  -0.416
 -0.405  -0.405  -0.405  -0.402  -0.400  -0.400  -0.393  -0.392
 -0.390  -0.389  -0.387  -0.380  -0.365  -0.362  -0.359  -0.356
 -0.353  -0.333  -0.331  -0.325  -0.305  -0.305  -0.293  -0.286
 -0.278  -0.272  -0.268  -0.265  -0.259  -0.236

          Ground-State Mulliken Net Atomic Charges

     Atom                 Charge (a.u.)
  ----------------------------------------
      1 C                    -0.155153
      2 C                    -0.398501
      3 H                     0.245043
      4 C                     0.067410
      5 C                     0.093863
      6 C                    -0.401925
      7 H                     0.272972
      8 C                    -0.154986
      9 C                     0.170636
     10 C                    -0.394798
     11 H                     0.255055
     12 C                    -0.072442
     13 C                     0.215273
     14 C                     0.176116
     15 C                    -0.400048
     16 H                     0.268933
     17 C                    -0.239960
     18 H                     0.263981
     19 C                    -0.349738
     20 H                     0.262652
     21 C                    -0.353928
     22 H                     0.262964
     23 C                    -0.235732
     24 H                     0.267729
     25 B                     0.677368
     26 C                    -0.154453
     27 C                    -0.400407
     28 H                     0.273769
     29 C                     0.091705
     30 C                     0.070250
     31 C                    -0.402264
     32 H                     0.244631
     33 C                    -0.152879
     34 C                     0.170851
     35 C                    -0.394591
     36 H                     0.255527
     37 C                    -0.072906
     38 C                     0.215268
     39 C                     0.174821
     40 C                    -0.397646
     41 H                     0.269602
     42 C                    -0.239711
     43 H                     0.264073
     44 C                    -0.350502
     45 H                     0.262630
     46 C                    -0.236466
     47 H                     0.268137
     48 C                    -0.353912
     49 H                     0.262920
     50 B                     0.665534
     51 C                    -0.258751
     52 C                     0.072261
     53 C                    -0.350751
     54 H                     0.233837
     55 C                     0.106009
     56 C                    -0.360642
     57 H                     0.236407
     58 C                     0.076200
     59 C                    -0.722728
     60 H                     0.241065
     61 H                     0.241675
     62 H                     0.242006
     63 C                    -0.774187
     64 H                     0.261003
     65 H                     0.236949
     66 H                     0.237549
     67 C                    -0.770871
     68 H                     0.260586
     69 H                     0.235775
     70 H                     0.236227
     71 C                    -0.222745
     72 C                     0.040719
     73 C                    -0.376115
     74 H                     0.233013
     75 C                     0.104383
     76 C                    -0.363794
     77 H                     0.231463
     78 C                     0.045992
     79 C                    -0.724354
     80 H                     0.241676
     81 H                     0.241308
     82 H                     0.242997
     83 C                    -0.770126
     84 H                     0.255877
     85 H                     0.244477
     86 H                     0.244390
     87 C                    -0.771633
     88 H                     0.256416
     89 H                     0.244845
     90 H                     0.244830
  ----------------------------------------
  Sum of atomic charges =    -0.000000

                    Cartesian Multipole Moments
 -----------------------------------------------------------------
    Charge (ESU x 10^10)
                -0.0000
    Dipole Moment (Debye)
         X      -2.0596      Y      -0.9103      Z      -1.1950
       Tot       2.5493
    Quadrupole Moments (Debye-Ang)
        XX    -240.4291     XY      -0.5844     YY    -299.5958
        XZ      -0.5317     YZ       4.1806     ZZ    -229.4417

 Total job time:  8137.76s(wall), 34905.52s(cpu)
        *  Thank you very much for using Q-Chem.  Have a nice day.  *
