 Q-Chem 5.0, Q-Chem, Inc., Pleasanton, CA (2017)
 Q-Chem 5.0.1 for Intel X86 EM64T Linux

User input:
--------------------------------------------------------------
$solvent
dielectric      2.38
dielectric_infi 2.25
$end

$rem
threads 8
jobtype	sp
method PBEh-3c
basis def2-mSVP
mem_static	1024
mem_total	14000
sym_ignore	true
cis_n_roots             2
cis_singlets            true
cis_triplets		false
rpa                     false
calc_soc 		true
cis_moments             true
cis_relaxed_density	true
solvent_method		pcm
$end

$pcm
StateSpecific   1
ChargeSeparation Excited
$end

$molecule
read sctopt.mol
$end

--------------------------------------------------------------

   14   -1973.7093921652      9.25E-09 Convergence criterion met
 Total energy in the final basis set = -1973.70939217
 Total job time:  5112.87s(wall), 17906.74s(cpu)
        *  Thank you very much for using Q-Chem.  Have a nice day.  *
 Q-Chem 5.0, Q-Chem, Inc., Pleasanton, CA (2017)
 Q-Chem 5.0.1 for Intel X86 EM64T Linux

User input:
--------------------------------------------------------------
$rem
threads 8
jobtype sp
method PBEh-3c
basis def2-mSVP
mem_static      1024
mem_total       14000
sym_ignore      true
cis_n_roots             6
cis_singlets            true
cis_triplets            true
rpa                     false
calc_soc                true
cis_moments             true
cis_relaxed_density     true
solvent_method          pcm
$end

$molecule
read
$end

$pcm
statespecific           Marcus
$end

$solvent
dielectric      2.38
dielectric_infi 2.25
$end

--------------------------------------------------------------

             Standard Nuclear Orientation (Angstroms)
    I     Atom           X                Y                Z
 ----------------------------------------------------------------
    1      C       0.0000000000     0.0000000000     0.0000000000
    2      C       0.0000000000     0.0000000000     1.4025650000
    3      H       0.9493094505     0.0000000000     1.9288504402
    4      C      -1.1789419522    -0.0311875012     2.1047829507
    5      C      -2.4288090106    -0.0617516084     1.4216058514
    6      C      -2.4524712368    -0.0316894678     0.0483696619
    7      H      -3.4091326076    -0.0537748432    -0.4653027071
    8      C      -1.2468657833    -0.0012407398    -0.6934325751
    9      C      -1.4330364982    -0.0994763684     3.5361495681
   10      C      -0.6475628495    -0.1254072235     4.6614978317
   11      H       0.4324505931    -0.0700885709     4.6048097223
   12      C      -2.8297458091    -0.1848749852     3.6859214391
   13      C      -3.4724190921    -0.3070933450     4.9152828551
   14      C      -3.4832088603    -0.1660030949     2.4365788942
   15      C      -4.8503176991    -0.2753558061     2.4275582270
   16      H      -5.4171685322    -0.2779153821     1.5049773855
   17      C      -1.2759141089    -0.2360710286     5.9219019049
   18      H      -0.6553360246    -0.2560692135     6.8087681047
   19      C      -2.6412519635    -0.3265777797     6.0611659823
   20      H      -3.0793020589    -0.4184549121     7.0475733250
   21      C      -4.8820352893    -0.4133678757     4.8715820291
   22      H      -5.4472199243    -0.5136500790     5.7902006722
   23      C      -5.5332771653    -0.3971663334     3.6603535744
   24      H      -6.6119909600    -0.4854485526     3.6453697599
   25      B      -1.2210458572    -0.0219130255    -2.2209075058
   26      C       0.0847748738    -0.0885101214    -3.0105492928
   27      C       0.1101402318    -0.1767321577    -4.4226798155
   28      H      -0.8180347159    -0.1611077153    -4.9860122451
   29      C       1.3002520669    -0.3103796189    -5.0957058076
   30      C       2.5237129831    -0.3529082639    -4.3663169187
   31      C       2.5205852653    -0.2492148633    -2.9966259620
   32      H       3.4526836822    -0.2875747270    -2.4416457017
   33      C       1.3159774394    -0.1196224935    -2.2890736964
   34      C       3.6142506423    -0.5606557209    -5.3069845094
   35      C       4.9729321646    -0.7211311308    -5.1973926594
   36      H       5.4763397675    -0.6873240367    -4.2389870513
   37      C       3.0249465768    -0.6305552583    -6.5846507640
   38      C       3.7372197675    -0.8551379021    -7.7587125518
   39      C       1.6244520158    -0.4812683413    -6.5138141568
   40      C       0.9079154863    -0.5535010683    -7.6801917831
   41      H      -0.1702864464    -0.4544971946    -7.6942441302
   42      C       5.7207781285    -0.9452841209    -6.3750063113
   43      H       6.7924399391    -1.0734993387    -6.2895157809
   44      C       5.1387437178    -1.0119377835    -7.6199437707
   45      H       5.7535359571    -1.1909830019    -8.4934566601
   46      C       1.6039464702    -0.7691106439    -8.8919818806
   47      H       1.0351330932    -0.8249175868    -9.8111867061
   48      C       2.9704093453    -0.9176095245    -8.9465267400
   49      H       3.4576593559    -1.0885409281    -9.8986645843
   50      B       1.3355440961    -0.0665848690    -0.7548598680
   51      C      -2.5821542276    -0.0276801148    -2.9917759724
   52      C      -3.2163890516    -1.2698989301    -3.3429162118
   53      C      -4.3764429965    -1.2447733993    -4.0645083719
   54      H      -4.8598058477    -2.1716357469    -4.3496816589
   55      C      -4.9734594049    -0.0229738188    -4.4572592453
   56      C      -4.3745654024     1.1940148493    -4.0929683692
   57      H      -4.8456195205     2.1216931470    -4.3919174353
   58      C      -3.2099197019     1.2149167309    -3.3698725456
   59      C      -6.2253056856    -0.0524778858    -5.2532818998
   60      H      -6.6212572045     0.9410358995    -5.4470825927
   61      H      -6.9919573147    -0.6413539959    -4.7450592861
   62      H      -6.0484843154    -0.5447905558    -6.2132941895
   63      C      -2.5570331185     2.4885962186    -2.9651433658
   64      H      -3.1105213444     3.3596107832    -3.3105932086
   65      H      -1.5401344621     2.5366061926    -3.3589736592
   66      H      -2.4616144664     2.5393093527    -1.8788847947
   67      C      -2.5773953458    -2.5489945807    -2.9199751087
   68      H      -3.1761217536    -3.4130691300    -3.2027249408
   69      H      -2.4266131410    -2.5641741531    -1.8399432380
   70      H      -1.5876048802    -2.6490683234    -3.3685438821
   71      C       2.6946963048    -0.1451664662     0.0438930330
   72      C       3.2241371892    -1.3872324621     0.4138173680
   73      C       4.4201423363    -1.4539127211     1.1213947993
   74      H       4.8172019015    -2.4255464305     1.3980035763
   75      C       5.1165720568    -0.3094512383     1.4810911372
   76      C       4.5851062010     0.9212286765     1.1128757853
   77      H       5.1142895819     1.8298686262     1.3832423531
   78      C       3.3936890032     1.0147186846     0.4054606037
   79      C       6.4005847543    -0.3910447576     2.2554629229
   80      H       6.7464933196    -1.4201206130     2.3499688218
   81      H       7.1961906294     0.1810101404     1.7755799168
   82      H       6.2836818892     0.0074927981     3.2653271539
   83      C       2.8417770778     2.3609740366     0.0302920601
   84      H       3.5118120706     3.1693272750     0.3239052425
   85      H       2.6786612821     2.4361178984    -1.0466551838
   86      H       1.8763796355     2.5380891102     0.5094648749
   87      C       2.4995446657    -2.6540086774     0.0517168301
   88      H       3.0380728015    -3.5380134361     0.3944002863
   89      H       2.3677118773    -2.7444856137    -1.0283388341
   90      H       1.5023900130    -2.6809503987     0.4960988089
 ----------------------------------------------------------------

   14   -1973.7089338795      9.36E-09 Convergence criterion met
 Total energy in the final basis set = -1973.70893388

         TDDFT/TDA Excitation Energies
 ---------------------------------------------------

 Excited state   1: excitation energy (eV) =    2.2299
 Total energy for state  1:                 -1973.62698690 au
    Multiplicity: Triplet
    Trans. Mom.:  0.0000 X   0.0000 Y   0.0000 Z
    Strength   :     0.0000000000
    D(167) --> V(  2) amplitude =  0.2445
    D(172) --> V(  1) amplitude =  0.7724
    D(173) --> V(  1) amplitude = -0.4965

 Excited state   2: excitation energy (eV) =    2.4432
 Total energy for state  2:                 -1973.61914961 au
    Multiplicity: Triplet
    Trans. Mom.:  0.0000 X   0.0000 Y   0.0000 Z
    Strength   :     0.0000000000
    D(171) --> V(  2) amplitude =  0.4745
    D(172) --> V(  1) amplitude =  0.4517
    D(173) --> V(  1) amplitude =  0.6678

 Excited state   3: excitation energy (eV) =    2.5000
 Total energy for state  3:                 -1973.61706230 au
    Multiplicity: Triplet
    Trans. Mom.:  0.0000 X   0.0000 Y   0.0000 Z
    Strength   :     0.0000000000
    D(171) --> V(  1) amplitude =  0.7373
    D(171) --> V(  4) amplitude = -0.2349
    D(173) --> V(  2) amplitude =  0.5148

 Excited state   4: excitation energy (eV) =    2.7350
 Total energy for state  4:                 -1973.60842622 au
    Multiplicity: Triplet
    Trans. Mom.:  0.0000 X   0.0000 Y   0.0000 Z
    Strength   :     0.0000000000
    D(167) --> V(  1) amplitude =  0.6849
    D(172) --> V(  2) amplitude =  0.5072
    D(174) --> V(  1) amplitude =  0.2468

 Excited state   5: excitation energy (eV) =    2.7505
 Total energy for state  5:                 -1973.60785617 au
    Multiplicity: Triplet
    Trans. Mom.:  0.0000 X   0.0000 Y   0.0000 Z
    Strength   :     0.0000000000
    D(174) --> V(  1) amplitude =  0.9255

 Excited state   6: excitation energy (eV) =    2.7995
 Total energy for state  6:                 -1973.60605547 au
    Multiplicity: Singlet
    Trans. Mom.: -0.0118 X  -0.0066 Y  -0.0341 Z
    Strength   :     0.0000924538
    D(174) --> V(  1) amplitude =  0.9697

 Excited state   7: excitation energy (eV) =    2.8987
 Total energy for state  7:                 -1973.60241008 au
    Multiplicity: Singlet
    Trans. Mom.:  0.1979 X  -0.0332 Y  -0.3343 Z
    Strength   :     0.0107960738
    D(172) --> V(  1) amplitude =  0.8300
    D(173) --> V(  1) amplitude = -0.4984

 Excited state   8: excitation energy (eV) =    3.1401
 Total energy for state  8:                 -1973.59353620 au
    Multiplicity: Singlet
    Trans. Mom.: -2.0418 X   0.1538 Y   3.5928 Z
    Strength   :     1.3156282052
    D(172) --> V(  1) amplitude =  0.4915
    D(173) --> V(  1) amplitude =  0.8190

 Excited state   9: excitation energy (eV) =    3.1586
 Total energy for state  9:                 -1973.59285755 au
    Multiplicity: Triplet
    Trans. Mom.:  0.0000 X   0.0000 Y   0.0000 Z
    Strength   :     0.0000000000
    D(170) --> V(  1) amplitude =  0.9479

 Excited state  10: excitation energy (eV) =    3.2089
 Total energy for state 10:                 -1973.59100837 au
    Multiplicity: Singlet
    Trans. Mom.:  0.1410 X  -0.0221 Y  -0.2969 Z
    Strength   :     0.0085336589
    D(170) --> V(  1) amplitude =  0.9601

 Excited state  11: excitation energy (eV) =    3.4533
 Total energy for state 11:                 -1973.58202710 au
    Multiplicity: Singlet
    Trans. Mom.:  0.1502 X  -0.2524 Y   0.0789 Z
    Strength   :     0.0078270364
    D(171) --> V(  1) amplitude =  0.9323

 Excited state  12: excitation energy (eV) =    3.6239
 Total energy for state 12:                 -1973.57575737 au
    Multiplicity: Singlet
    Trans. Mom.: -0.0804 X   0.0145 Y   0.0287 Z
    Strength   :     0.0006662004
    D(169) --> V(  1) amplitude =  0.9867

 ---------------------------------------------------

                    Orbital Energies (a.u.)
 --------------------------------------------------------------

 Alpha MOs
 -- Occupied --
-10.466 -10.466 -10.466 -10.466 -10.465 -10.465 -10.465 -10.465
-10.464 -10.464 -10.464 -10.463 -10.462 -10.462 -10.462 -10.462
-10.462 -10.461 -10.459 -10.459 -10.459 -10.459 -10.457 -10.457
-10.454 -10.453 -10.450 -10.450 -10.449 -10.449 -10.448 -10.448
-10.448 -10.447 -10.437 -10.436 -10.435 -10.435 -10.431 -10.431
-10.429 -10.429 -10.428 -10.426 -10.425 -10.423 -10.423 -10.423
-10.421 -10.421  -6.947  -6.941  -1.017  -1.017  -0.963  -0.960
 -0.957  -0.949  -0.934  -0.934  -0.910  -0.900  -0.872  -0.871
 -0.869  -0.866  -0.856  -0.855  -0.847  -0.847  -0.824  -0.814
 -0.813  -0.805  -0.780  -0.778  -0.759  -0.759  -0.757  -0.750
 -0.736  -0.727  -0.727  -0.721  -0.690  -0.682  -0.680  -0.667
 -0.652  -0.646  -0.640  -0.639  -0.636  -0.631  -0.596  -0.592
 -0.591  -0.588  -0.583  -0.576  -0.576  -0.552  -0.545  -0.544
 -0.541  -0.538  -0.528  -0.527  -0.520  -0.508  -0.504  -0.498
 -0.496  -0.495  -0.492  -0.487  -0.486  -0.486  -0.481  -0.480
 -0.479  -0.478  -0.475  -0.467  -0.466  -0.465  -0.464  -0.463
 -0.462  -0.459  -0.458  -0.455  -0.451  -0.450  -0.447  -0.445
 -0.444  -0.441  -0.432  -0.432  -0.427  -0.425  -0.413  -0.412
 -0.409  -0.402  -0.398  -0.397  -0.396  -0.394  -0.393  -0.389
 -0.382  -0.380  -0.380  -0.375  -0.374  -0.367  -0.354  -0.352
 -0.351  -0.335  -0.322  -0.316  -0.297  -0.296  -0.283  -0.276
 -0.274  -0.266  -0.263  -0.258  -0.256  -0.251

          Ground-State Mulliken Net Atomic Charges

     Atom                 Charge (a.u.)
  ----------------------------------------
      1 C                    -0.152075
      2 C                    -0.390745
      3 H                     0.244214
      4 C                     0.080445
      5 C                     0.104456
      6 C                    -0.399024
      7 H                     0.243216
      8 C                    -0.152065
      9 C                     0.183495
     10 C                    -0.384748
     11 H                     0.242497
     12 C                    -0.067874
     13 C                     0.232125
     14 C                     0.188486
     15 C                    -0.394041
     16 H                     0.242881
     17 C                    -0.224633
     18 H                     0.247372
     19 C                    -0.341176
     20 H                     0.243720
     21 C                    -0.345944
     22 H                     0.243917
     23 C                    -0.221202
     24 H                     0.247432
     25 B                     0.681330
     26 C                    -0.151253
     27 C                    -0.396568
     28 H                     0.243646
     29 C                     0.102246
     30 C                     0.083515
     31 C                    -0.394131
     32 H                     0.243740
     33 C                    -0.150307
     34 C                     0.183812
     35 C                    -0.384559
     36 H                     0.242937
     37 C                    -0.068360
     38 C                     0.232026
     39 C                     0.187264
     40 C                    -0.391578
     41 H                     0.243138
     42 C                    -0.224361
     43 H                     0.247472
     44 C                    -0.341936
     45 H                     0.243748
     46 C                    -0.221910
     47 H                     0.247636
     48 C                    -0.345813
     49 H                     0.243880
     50 B                     0.692748
     51 C                    -0.247328
     52 C                     0.066391
     53 C                    -0.351215
     54 H                     0.214600
     55 C                     0.103217
     56 C                    -0.358403
     57 H                     0.216839
     58 C                     0.068815
     59 C                    -0.718931
     60 H                     0.234877
     61 H                     0.234395
     62 H                     0.234778
     63 C                    -0.768459
     64 H                     0.244874
     65 H                     0.246558
     66 H                     0.246965
     67 C                    -0.765220
     68 H                     0.244305
     69 H                     0.246581
     70 H                     0.246604
     71 C                    -0.227949
     72 C                     0.050810
     73 C                    -0.362284
     74 H                     0.216241
     75 C                     0.116724
     76 C                    -0.352169
     77 H                     0.215326
     78 C                     0.056589
     79 C                    -0.718409
     80 H                     0.234233
     81 H                     0.235207
     82 H                     0.237135
     83 C                    -0.766043
     84 H                     0.244771
     85 H                     0.245802
     86 H                     0.244735
     87 C                    -0.767715
     88 H                     0.245361
     89 H                     0.246053
     90 H                     0.246248
  ----------------------------------------
  Sum of atomic charges =    -0.000000

                    Cartesian Multipole Moments
 -----------------------------------------------------------------
    Charge (ESU x 10^10)
                -0.0000
    Dipole Moment (Debye)
         X       0.2196      Y      -0.8200      Z       0.1202
       Tot       0.8573
    Quadrupole Moments (Debye-Ang)
        XX    -254.3946     XY      -0.8749     YY    -300.6864
        XZ      -7.6871     YZ       3.6699     ZZ    -243.7206

 Total job time:  7554.11s(wall), 32094.88s(cpu)
        *  Thank you very much for using Q-Chem.  Have a nice day.  *
