 Q-Chem 5.1, Q-Chem, Inc., Pleasanton, CA (2018)
 Q-Chem 5.1.1 for Intel X86 EM64T Linux

User input:
--------------------------------------------------------------
$solvent
dielectric      2.38
dielectric_infi 2.25
$end

$rem
threads 8
jobtype	sp
method PBEh-3c
basis def2-mSVP
mem_static	1024
mem_total	14000
sym_ignore	true
cis_n_roots             2
cis_singlets            true
cis_triplets		false
rpa                     false
calc_soc 		true
cis_moments             true
cis_relaxed_density	true
solvent_method		pcm
$end

$pcm
StateSpecific   1
ChargeSeparation Excited
$end

$molecule
read sctopt.mol
$end

--------------------------------------------------------------

   15   -1973.7108939439      5.65e-09  Convergence criterion met
 Total energy in the final basis set =    -1973.7108939439
 Total job time:  5659.59s(wall), 25303.24s(cpu)
        *  Thank you very much for using Q-Chem.  Have a nice day.  *
 Q-Chem 5.1, Q-Chem, Inc., Pleasanton, CA (2018)
 Q-Chem 5.1.1 for Intel X86 EM64T Linux

User input:
--------------------------------------------------------------
$rem
threads 8
jobtype sp
method PBEh-3c
basis def2-mSVP
mem_static      1024
mem_total       14000
sym_ignore      true
cis_n_roots             6
cis_singlets            true
cis_triplets            true
rpa                     false
calc_soc                true
cis_moments             true
cis_relaxed_density     true
solvent_method          pcm
$end

$molecule
read
$end

$pcm
statespecific           Marcus
$end

$solvent
dielectric      2.38
dielectric_infi 2.25
$end

--------------------------------------------------------------

             Standard Nuclear Orientation (Angstroms)
    I     Atom           X                Y                Z
 ----------------------------------------------------------------
    1      C       0.0000000000     0.0000000000     0.0000000000
    2      C       0.0000000000     0.0000000000     1.4097730000
    3      H       0.9354633230     0.0000000000     1.9622864472
    4      C      -1.1792903762     0.0035807279     2.1056591760
    5      C      -2.4272281756     0.0059898555     1.4187986957
    6      C      -2.4430686374     0.0037268114     0.0419236718
    7      H      -3.3867801986     0.0035351028    -0.4933768552
    8      C      -1.2444059376     0.0001681107    -0.6969142929
    9      C      -1.4401147058     0.0045537318     3.5416193211
   10      C      -0.6627679092     0.0022282401     4.6730382143
   11      H       0.4194789989    -0.0000972290     4.6241068537
   12      C      -2.8407224768     0.0072717863     3.6822316316
   13      C      -3.4942954118     0.0079179568     4.9118334091
   14      C      -3.4869797149     0.0086483187     2.4274234339
   15      C      -4.8589164708     0.0115646195     2.4134514242
   16      H      -5.4196113363     0.0129038113     1.4873651761
   17      C      -1.3011027684     0.0026772990     5.9334002523
   18      H      -0.6881772367     0.0006832554     6.8259980591
   19      C      -2.6703857898     0.0054696611     6.0635152634
   20      H      -3.1182984179     0.0056348619     7.0498349265
   21      C      -4.9081847319     0.0107634918     4.8635021251
   22      H      -5.4834147852     0.0116477101     5.7812497508
   23      C      -5.5507873218     0.0125600633     3.6475796296
   24      H      -6.6330404189     0.0148414754     3.6291740106
   25      B       1.2983605031    -0.0065545173    -0.7971869068
   26      C       1.2947002342     0.0050628424    -2.3209212244
   27      C       2.4968802453     0.0099655704    -3.0574543603
   28      H       3.4553375257     0.0067153311    -2.5458893319
   29      C       2.4742980522     0.0227962700    -4.4267830638
   30      C       1.2366695564     0.0293518427    -5.1334346834
   31      C       0.0530048907     0.0210731973    -4.4277249153
   32      H      -0.8969199322     0.0238640802    -4.9525089311
   33      C       0.0492301877     0.0080504304    -3.0192561764
   34      C       3.5623302986     0.0328146649    -5.3965135097
   35      C       4.9320704061     0.0322699320    -5.3173312513
   36      H       5.4503318937     0.0230124942    -4.3659644844
   37      C       2.9538123309     0.0450700476    -6.6657986970
   38      C       3.6630589656     0.0571658714    -7.8624869591
   39      C       1.5459771220     0.0436977440    -6.5625070418
   40      C       0.8177531315     0.0555473497    -7.7247039064
   41      H      -0.2648642655     0.0555420607    -7.7192767687
   42      C       5.6763136853     0.0441180727    -6.5175345206
   43      H       6.7574310247     0.0436281712    -6.4585742069
   44      C       5.0751716161     0.0562960557    -7.7551494822
   45      H       5.6859888505     0.0652656829    -8.6495942495
   46      C       1.5108500299     0.0681750381    -8.9578167828
   47      H       0.9310713149     0.0776169797    -9.8717529512
   48      C       2.8836504012     0.0691013839    -9.0434190638
   49      H       3.3659120321     0.0791425591   -10.0130173950
   50      B      -1.2763006282    -0.0056516656    -2.2358178080
   51      C       2.6604219549    -0.0489197684    -0.0187949665
   52      C       3.3221768606     1.1666134094     0.3759949230
   53      C       4.4893898514     1.0988569242     1.0834558245
   54      H       4.9930959949     2.0076975546     1.3902495590
   55      C       5.0663564242    -0.1449304026     1.4332702178
   56      C       4.4310269978    -1.3361305192     1.0489204204
   57      H       4.8812789889    -2.2818833775     1.3228273180
   58      C       3.2586960626    -1.3142474899     0.3379996496
   59      C       6.3362068099    -0.1695433896     2.2013499495
   60      H       6.6814465855    -1.1799231975     2.4049860503
   61      H       7.1213999937     0.3615336528     1.6578928295
   62      H       6.2162073725     0.3533666304     3.1533561943
   63      C       2.5748210061    -2.5703344695    -0.0704011978
   64      H       3.1327727425    -3.4543686067     0.2325103609
   65      H       2.4330410489    -2.5949583514    -1.1518964695
   66      H       1.5761846289    -2.6181073720     0.3679697163
   67      C       2.7024304906     2.4700532002     0.0076558608
   68      H       3.3056944913     3.3139477893     0.3376446204
   69      H       2.5643709300     2.5369072220    -1.0722016413
   70      H       1.7086874877     2.5562299684     0.4501595300
   71      C      -2.6548084808    -0.0370449260    -2.9946246987
   72      C      -3.3068682955     1.1488411923    -3.3458435526
   73      C      -4.5209751820     1.1003081890    -4.0233256095
   74      H      -5.0152936310     2.0280877876    -4.2931167841
   75      C      -5.1125719315    -0.1082645675    -4.3638778123
   76      C      -4.4591022931    -1.2830815545    -4.0076886916
   77      H      -4.9057901516    -2.2385519786    -4.2654577555
   78      C      -3.2475535507    -1.2615990686    -3.3309529880
   79      C      -6.4270246334    -0.1569994374    -5.0875148897
   80      H      -6.7533832156     0.8365473133    -5.3933892415
   81      H      -6.3674618210    -0.7749704260    -5.9849578050
   82      H      -7.2127110988    -0.5805911749    -4.4587004434
   83      C      -2.6869458976     2.4704602778    -2.9877225351
   84      H      -3.2990924349     3.3092841699    -3.3194764724
   85      H      -2.5505609078     2.5637522739    -1.9080935422
   86      H      -1.6985738262     2.5802960239    -3.4394117316
   87      C      -2.5638617884    -2.5467131241    -2.9544052136
   88      H      -3.1328113793    -3.4186249645    -3.2779288733
   89      H      -2.4280339817    -2.6206045076    -1.8731716676
   90      H      -1.5695602078    -2.6136690892    -3.4014899646
 ----------------------------------------------------------------

   15   -1973.7104427086      5.68e-09  Convergence criterion met
 Total energy in the final basis set =    -1973.7104427086

         TDDFT/TDA Excitation Energies
 ---------------------------------------------------

 Excited state   1: excitation energy (eV) =    2.2325
 Total energy for state  1:                 -1973.62839926 au
    Multiplicity: Triplet
    Trans. Mom.:  0.0000 X   0.0000 Y   0.0000 Z
    Strength   :     0.0000000000
    D(167) --> V(  2) amplitude = -0.2484
    D(172) --> V(  1) amplitude =  0.9150

 Excited state   2: excitation energy (eV) =    2.4394
 Total energy for state  2:                 -1973.62079793 au
    Multiplicity: Triplet
    Trans. Mom.:  0.0000 X   0.0000 Y   0.0000 Z
    Strength   :     0.0000000000
    D(171) --> V(  2) amplitude = -0.4797
    D(173) --> V(  1) amplitude =  0.8005

 Excited state   3: excitation energy (eV) =    2.5010
 Total energy for state  3:                 -1973.61853095 au
    Multiplicity: Triplet
    Trans. Mom.:  0.0000 X   0.0000 Y   0.0000 Z
    Strength   :     0.0000000000
    D(171) --> V(  1) amplitude =  0.7406
    D(171) --> V(  4) amplitude = -0.2373
    D(173) --> V(  2) amplitude = -0.5511

 Excited state   4: excitation energy (eV) =    2.7327
 Total energy for state  4:                 -1973.61001824 au
    Multiplicity: Triplet
    Trans. Mom.:  0.0000 X   0.0000 Y   0.0000 Z
    Strength   :     0.0000000000
    D(167) --> V(  1) amplitude =  0.7112
    D(172) --> V(  2) amplitude = -0.5587

 Excited state   5: excitation energy (eV) =    2.7660
 Total energy for state  5:                 -1973.60879377 au
    Multiplicity: Triplet
    Trans. Mom.:  0.0000 X   0.0000 Y   0.0000 Z
    Strength   :     0.0000000000
    D(174) --> V(  1) amplitude =  0.9566

 Excited state   6: excitation energy (eV) =    2.8156
 Total energy for state  6:                 -1973.60696975 au
    Multiplicity: Singlet
    Trans. Mom.: -0.0396 X  -0.0058 Y   0.0745 Z
    Strength   :     0.0004927525
    D(174) --> V(  1) amplitude =  0.9699

 Excited state   7: excitation energy (eV) =    2.8994
 Total energy for state  7:                 -1973.60389002 au
    Multiplicity: Singlet
    Trans. Mom.:  0.0430 X   0.0012 Y  -0.0902 Z
    Strength   :     0.0007099348
    D(172) --> V(  1) amplitude =  0.9650

 Excited state   8: excitation energy (eV) =    3.1385
 Total energy for state  8:                 -1973.59510329 au
    Multiplicity: Singlet
    Trans. Mom.:  2.0467 X   0.0134 Y  -3.6446 Z
    Strength   :     1.3434733577
    D(173) --> V(  1) amplitude =  0.9521

 Excited state   9: excitation energy (eV) =    3.1432
 Total energy for state  9:                 -1973.59493084 au
    Multiplicity: Triplet
    Trans. Mom.:  0.0000 X   0.0000 Y   0.0000 Z
    Strength   :     0.0000000000
    D(170) --> V(  1) amplitude =  0.9516

 Excited state  10: excitation energy (eV) =    3.1927
 Total energy for state 10:                 -1973.59311262 au
    Multiplicity: Singlet
    Trans. Mom.:  0.1607 X   0.0030 Y  -0.2655 Z
    Strength   :     0.0075331760
    D(170) --> V(  1) amplitude =  0.9653

 Excited state  11: excitation energy (eV) =    3.4537
 Total energy for state 11:                 -1973.58352249 au
    Multiplicity: Singlet
    Trans. Mom.:  0.0498 X   0.0263 Y   0.0112 Z
    Strength   :     0.0002791039
    D(171) --> V(  1) amplitude =  0.9386

 Excited state  12: excitation energy (eV) =    3.6232
 Total energy for state 12:                 -1973.57729205 au
    Multiplicity: Singlet
    Trans. Mom.:  0.0290 X  -0.0010 Y  -0.0601 Z
    Strength   :     0.0003958389
    D(169) --> V(  1) amplitude =  0.9864

 ---------------------------------------------------

                    Orbital Energies (a.u.)
 --------------------------------------------------------------

 Alpha MOs
 -- Occupied --
-10.467 -10.466 -10.466 -10.466 -10.465 -10.465 -10.465 -10.465
-10.464 -10.464 -10.464 -10.464 -10.462 -10.462 -10.462 -10.462
-10.462 -10.461 -10.459 -10.459 -10.459 -10.459 -10.456 -10.455
-10.455 -10.454 -10.449 -10.449 -10.449 -10.449 -10.448 -10.448
-10.448 -10.448 -10.437 -10.436 -10.435 -10.435 -10.431 -10.431
-10.429 -10.429 -10.427 -10.425 -10.425 -10.424 -10.423 -10.422
-10.422 -10.419  -6.947  -6.941  -1.017  -1.017  -0.963  -0.960
 -0.956  -0.949  -0.934  -0.934  -0.910  -0.900  -0.872  -0.871
 -0.868  -0.866  -0.856  -0.855  -0.848  -0.847  -0.824  -0.814
 -0.812  -0.805  -0.780  -0.779  -0.759  -0.758  -0.758  -0.750
 -0.736  -0.728  -0.727  -0.721  -0.690  -0.682  -0.680  -0.667
 -0.651  -0.646  -0.640  -0.639  -0.636  -0.631  -0.596  -0.592
 -0.591  -0.588  -0.583  -0.576  -0.576  -0.552  -0.545  -0.544
 -0.541  -0.538  -0.528  -0.527  -0.520  -0.508  -0.504  -0.498
 -0.496  -0.495  -0.492  -0.487  -0.486  -0.486  -0.480  -0.480
 -0.479  -0.479  -0.475  -0.467  -0.466  -0.465  -0.464  -0.464
 -0.462  -0.459  -0.458  -0.455  -0.452  -0.449  -0.447  -0.445
 -0.445  -0.441  -0.432  -0.432  -0.426  -0.425  -0.414  -0.412
 -0.409  -0.402  -0.398  -0.397  -0.396  -0.394  -0.393  -0.389
 -0.382  -0.380  -0.380  -0.375  -0.374  -0.367  -0.354  -0.352
 -0.351  -0.335  -0.322  -0.316  -0.297  -0.296  -0.283  -0.276
 -0.274  -0.265  -0.263  -0.258  -0.257  -0.252

          Ground-State Mulliken Net Atomic Charges

     Atom                 Charge (a.u.)
  ----------------------------------------
      1 C                    -0.150218
      2 C                    -0.387807
      3 H                     0.244204
      4 C                     0.078201
      5 C                     0.106892
      6 C                    -0.402337
      7 H                     0.243101
      8 C                    -0.152335
      9 C                     0.189047
     10 C                    -0.385259
     11 H                     0.243038
     12 C                    -0.070280
     13 C                     0.231183
     14 C                     0.186855
     15 C                    -0.393073
     16 H                     0.242650
     17 C                    -0.224067
     18 H                     0.247988
     19 C                    -0.341416
     20 H                     0.243488
     21 C                    -0.345104
     22 H                     0.244078
     23 C                    -0.222246
     24 H                     0.246945
     25 B                     0.679009
     26 C                    -0.151205
     27 C                    -0.388953
     28 H                     0.243190
     29 C                     0.079218
     30 C                     0.107159
     31 C                    -0.402884
     32 H                     0.242599
     33 C                    -0.151743
     34 C                     0.188075
     35 C                    -0.384315
     36 H                     0.243191
     37 C                    -0.069168
     38 C                     0.232827
     39 C                     0.184864
     40 C                    -0.392445
     41 H                     0.242763
     42 C                    -0.224469
     43 H                     0.247969
     44 C                    -0.342219
     45 H                     0.243544
     46 C                    -0.222184
     47 H                     0.247103
     48 C                    -0.345541
     49 H                     0.244037
     50 B                     0.695627
     51 C                    -0.251443
     52 C                     0.071312
     53 C                    -0.349550
     54 H                     0.214972
     55 C                     0.103213
     56 C                    -0.357984
     57 H                     0.216966
     58 C                     0.064228
     59 C                    -0.718872
     60 H                     0.234989
     61 H                     0.234950
     62 H                     0.234666
     63 C                    -0.766455
     64 H                     0.244799
     65 H                     0.246672
     66 H                     0.246432
     67 C                    -0.765297
     68 H                     0.244289
     69 H                     0.246388
     70 H                     0.246153
     71 C                    -0.222164
     72 C                     0.054431
     73 C                    -0.361763
     74 H                     0.215848
     75 C                     0.116153
     76 C                    -0.355345
     77 H                     0.215167
     78 C                     0.052765
     79 C                    -0.718338
     80 H                     0.234067
     81 H                     0.235106
     82 H                     0.236886
     83 C                    -0.768180
     84 H                     0.245102
     85 H                     0.245807
     86 H                     0.245694
     87 C                    -0.769151
     88 H                     0.245454
     89 H                     0.246161
     90 H                     0.246295
  ----------------------------------------
  Sum of atomic charges =    -0.000000

                    Cartesian Multipole Moments
 -----------------------------------------------------------------
    Charge (ESU x 10^10)
                -0.0000
    Dipole Moment (Debye)
         X       0.0354      Y       0.0410      Z       0.0480
       Tot       0.0724
    Quadrupole Moments (Debye-Ang)
        XX    -253.5555     XY       0.6804     YY    -301.7735
        XZ      -8.2226     YZ       0.0251     ZZ    -243.0222

 Total job time:  9641.97s(wall), 42967.47s(cpu)
        *  Thank you very much for using Q-Chem.  Have a nice day.  *
