 Q-Chem 5.1, Q-Chem, Inc., Pleasanton, CA (2018)
 Q-Chem 5.1.1 for Intel X86 EM64T Linux

User input:
--------------------------------------------------------------
$solvent
dielectric      1.0001
dielectric_infi 1.00009
$end

$rem
threads 8
jobtype	sp
method PBEh-3c
basis def2-mSVP
mem_static	1024
mem_total	14000
sym_ignore	true
cis_n_roots             2
cis_singlets            true
cis_triplets		false
rpa                     false
calc_soc 		true
cis_moments             true
cis_relaxed_density	true
solvent_method		pcm
$end

$pcm
StateSpecific   1
ChargeSeparation Excited
$end

$molecule
read sctopt.mol
$end

--------------------------------------------------------------

   15   -1973.6960395363      8.10e-09  Convergence criterion met
 Total energy in the final basis set =    -1973.6960395363

         TDDFT/TDA Excitation Energies
 ---------------------------------------------------

 Excited state   1: excitation energy (eV) =    2.8285
 Total energy for state  1:                 -1973.59209359 au
    Multiplicity: Singlet
    Trans. Mom.: -0.0278 X  -0.0047 Y   0.0535 Z
    Strength   :     0.0002531905
    D(174) --> V(  1) amplitude =  0.9690

 Excited state   2: excitation energy (eV) =    2.8889
 Total energy for state  2:                 -1973.58987613 au
    Multiplicity: Singlet
    Trans. Mom.:  0.0311 X   0.0009 Y  -0.0650 Z
    Strength   :     0.0003675013
    D(172) --> V(  1) amplitude =  0.3528
    D(173) --> V(  1) amplitude =  0.8995

 ---------------------------------------------------

                    Orbital Energies (a.u.)
 --------------------------------------------------------------

 Alpha MOs
 -- Occupied --
-10.464 -10.464 -10.464 -10.464 -10.463 -10.463 -10.462 -10.462
-10.461 -10.461 -10.461 -10.461 -10.461 -10.461 -10.460 -10.460
-10.459 -10.459 -10.459 -10.459 -10.459 -10.458 -10.452 -10.451
-10.451 -10.451 -10.446 -10.446 -10.446 -10.445 -10.445 -10.445
-10.445 -10.444 -10.432 -10.432 -10.431 -10.430 -10.428 -10.428
-10.428 -10.427 -10.427 -10.426 -10.424 -10.423 -10.422 -10.421
-10.419 -10.415  -6.943  -6.937  -1.014  -1.013  -0.960  -0.957
 -0.953  -0.947  -0.932  -0.932  -0.906  -0.897  -0.869  -0.869
 -0.865  -0.864  -0.853  -0.852  -0.846  -0.845  -0.821  -0.812
 -0.810  -0.802  -0.778  -0.778  -0.757  -0.756  -0.755  -0.748
 -0.734  -0.726  -0.726  -0.719  -0.688  -0.680  -0.678  -0.665
 -0.649  -0.644  -0.638  -0.636  -0.634  -0.629  -0.594  -0.592
 -0.589  -0.588  -0.582  -0.575  -0.575  -0.549  -0.543  -0.543
 -0.538  -0.537  -0.526  -0.526  -0.518  -0.506  -0.502  -0.495
 -0.494  -0.493  -0.489  -0.485  -0.482  -0.482  -0.479  -0.478
 -0.478  -0.477  -0.474  -0.466  -0.466  -0.464  -0.462  -0.462
 -0.461  -0.458  -0.457  -0.453  -0.451  -0.448  -0.447  -0.444
 -0.442  -0.441  -0.430  -0.428  -0.424  -0.420  -0.411  -0.410
 -0.408  -0.401  -0.398  -0.394  -0.393  -0.393  -0.391  -0.387
 -0.378  -0.377  -0.377  -0.373  -0.371  -0.364  -0.351  -0.348
 -0.347  -0.332  -0.318  -0.312  -0.294  -0.293  -0.279  -0.272
 -0.269  -0.261  -0.260  -0.253  -0.253  -0.248

          Ground-State Mulliken Net Atomic Charges

     Atom                 Charge (a.u.)
  ----------------------------------------
      1 C                    -0.149285
      2 C                    -0.385412
      3 H                     0.234499
      4 C                     0.088996
      5 C                     0.117972
      6 C                    -0.400241
      7 H                     0.234591
      8 C                    -0.150814
      9 C                     0.200927
     10 C                    -0.376765
     11 H                     0.221334
     12 C                    -0.067166
     13 C                     0.250294
     14 C                     0.198742
     15 C                    -0.384820
     16 H                     0.221461
     17 C                    -0.205129
     18 H                     0.226721
     19 C                    -0.331223
     20 H                     0.220056
     21 C                    -0.335244
     22 H                     0.220635
     23 C                    -0.203013
     24 H                     0.225942
     25 B                     0.682267
     26 C                    -0.150239
     27 C                    -0.386446
     28 H                     0.232970
     29 C                     0.090082
     30 C                     0.118293
     31 C                    -0.400606
     32 H                     0.233969
     33 C                    -0.150320
     34 C                     0.199936
     35 C                    -0.375823
     36 H                     0.221351
     37 C                    -0.066065
     38 C                     0.251875
     39 C                     0.196772
     40 C                    -0.384263
     41 H                     0.221553
     42 C                    -0.205579
     43 H                     0.226770
     44 C                    -0.332000
     45 H                     0.220162
     46 C                    -0.202950
     47 H                     0.226110
     48 C                    -0.335678
     49 H                     0.220649
     50 B                     0.699538
     51 C                    -0.251511
     52 C                     0.078875
     53 C                    -0.335042
     54 H                     0.195545
     55 C                     0.117015
     56 C                    -0.340293
     57 H                     0.196357
     58 C                     0.072322
     59 C                    -0.710013
     60 H                     0.226230
     61 H                     0.228733
     62 H                     0.228294
     63 C                    -0.757758
     64 H                     0.232971
     65 H                     0.245131
     66 H                     0.244870
     67 C                    -0.756297
     68 H                     0.232566
     69 H                     0.244579
     70 H                     0.244298
     71 C                    -0.223073
     72 C                     0.061819
     73 C                    -0.343629
     74 H                     0.195818
     75 C                     0.130002
     76 C                    -0.339932
     77 H                     0.196263
     78 C                     0.061427
     79 C                    -0.709408
     80 H                     0.225607
     81 H                     0.228585
     82 H                     0.230764
     83 C                    -0.759142
     84 H                     0.233911
     85 H                     0.243560
     86 H                     0.243292
     87 C                    -0.760386
     88 H                     0.234133
     89 H                     0.244022
     90 H                     0.244106
  ----------------------------------------
  Sum of atomic charges =    -0.000000

                    Cartesian Multipole Moments
 -----------------------------------------------------------------
    Charge (ESU x 10^10)
                -0.0000
    Dipole Moment (Debye)
         X      -0.0658      Y       0.0301      Z      -0.0200
       Tot       0.0750
    Quadrupole Moments (Debye-Ang)
        XX    -262.3927     XY       0.5844     YY    -303.0804
        XZ      -6.5688     YZ       0.0327     ZZ    -253.6085

 Total job time:  5494.27s(wall), 24264.82s(cpu)
        *  Thank you very much for using Q-Chem.  Have a nice day.  *
 Q-Chem 5.1, Q-Chem, Inc., Pleasanton, CA (2018)
 Q-Chem 5.1.1 for Intel X86 EM64T Linux

User input:
--------------------------------------------------------------
$rem
threads 8
jobtype sp
method PBEh-3c
basis def2-mSVP
mem_static      1024
mem_total       14000
sym_ignore      true
cis_n_roots             6
cis_singlets            true
cis_triplets            true
rpa                     false
calc_soc                true
cis_moments             true
cis_relaxed_density     true
solvent_method          pcm
$end

$molecule
read
$end

$pcm
statespecific           Marcus
$end

$solvent
dielectric      1.0001
dielectric_infi 1.00009
$end

--------------------------------------------------------------

             Standard Nuclear Orientation (Angstroms)
    I     Atom           X                Y                Z
 ----------------------------------------------------------------
    1      C       0.0000000000     0.0000000000     0.0000000000
    2      C       0.0000000000     0.0000000000     1.4097730000
    3      H       0.9354633230     0.0000000000     1.9622864472
    4      C      -1.1792903762     0.0035807279     2.1056591760
    5      C      -2.4272281756     0.0059898555     1.4187986957
    6      C      -2.4430686374     0.0037268114     0.0419236718
    7      H      -3.3867801986     0.0035351028    -0.4933768552
    8      C      -1.2444059376     0.0001681107    -0.6969142929
    9      C      -1.4401147058     0.0045537318     3.5416193211
   10      C      -0.6627679092     0.0022282401     4.6730382143
   11      H       0.4194789989    -0.0000972290     4.6241068537
   12      C      -2.8407224768     0.0072717863     3.6822316316
   13      C      -3.4942954118     0.0079179568     4.9118334091
   14      C      -3.4869797149     0.0086483187     2.4274234339
   15      C      -4.8589164708     0.0115646195     2.4134514242
   16      H      -5.4196113363     0.0129038113     1.4873651761
   17      C      -1.3011027684     0.0026772990     5.9334002523
   18      H      -0.6881772367     0.0006832554     6.8259980591
   19      C      -2.6703857898     0.0054696611     6.0635152634
   20      H      -3.1182984179     0.0056348619     7.0498349265
   21      C      -4.9081847319     0.0107634918     4.8635021251
   22      H      -5.4834147852     0.0116477101     5.7812497508
   23      C      -5.5507873218     0.0125600633     3.6475796296
   24      H      -6.6330404189     0.0148414754     3.6291740106
   25      B       1.2983605031    -0.0065545173    -0.7971869068
   26      C       1.2947002342     0.0050628424    -2.3209212244
   27      C       2.4968802453     0.0099655704    -3.0574543603
   28      H       3.4553375257     0.0067153311    -2.5458893319
   29      C       2.4742980522     0.0227962700    -4.4267830638
   30      C       1.2366695564     0.0293518427    -5.1334346834
   31      C       0.0530048907     0.0210731973    -4.4277249153
   32      H      -0.8969199322     0.0238640802    -4.9525089311
   33      C       0.0492301877     0.0080504304    -3.0192561764
   34      C       3.5623302986     0.0328146649    -5.3965135097
   35      C       4.9320704061     0.0322699320    -5.3173312513
   36      H       5.4503318937     0.0230124942    -4.3659644844
   37      C       2.9538123309     0.0450700476    -6.6657986970
   38      C       3.6630589656     0.0571658714    -7.8624869591
   39      C       1.5459771220     0.0436977440    -6.5625070418
   40      C       0.8177531315     0.0555473497    -7.7247039064
   41      H      -0.2648642655     0.0555420607    -7.7192767687
   42      C       5.6763136853     0.0441180727    -6.5175345206
   43      H       6.7574310247     0.0436281712    -6.4585742069
   44      C       5.0751716161     0.0562960557    -7.7551494822
   45      H       5.6859888505     0.0652656829    -8.6495942495
   46      C       1.5108500299     0.0681750381    -8.9578167828
   47      H       0.9310713149     0.0776169797    -9.8717529512
   48      C       2.8836504012     0.0691013839    -9.0434190638
   49      H       3.3659120321     0.0791425591   -10.0130173950
   50      B      -1.2763006282    -0.0056516656    -2.2358178080
   51      C       2.6604219549    -0.0489197684    -0.0187949665
   52      C       3.3221768606     1.1666134094     0.3759949230
   53      C       4.4893898514     1.0988569242     1.0834558245
   54      H       4.9930959949     2.0076975546     1.3902495590
   55      C       5.0663564242    -0.1449304026     1.4332702178
   56      C       4.4310269978    -1.3361305192     1.0489204204
   57      H       4.8812789889    -2.2818833775     1.3228273180
   58      C       3.2586960626    -1.3142474899     0.3379996496
   59      C       6.3362068099    -0.1695433896     2.2013499495
   60      H       6.6814465855    -1.1799231975     2.4049860503
   61      H       7.1213999937     0.3615336528     1.6578928295
   62      H       6.2162073725     0.3533666304     3.1533561943
   63      C       2.5748210061    -2.5703344695    -0.0704011978
   64      H       3.1327727425    -3.4543686067     0.2325103609
   65      H       2.4330410489    -2.5949583514    -1.1518964695
   66      H       1.5761846289    -2.6181073720     0.3679697163
   67      C       2.7024304906     2.4700532002     0.0076558608
   68      H       3.3056944913     3.3139477893     0.3376446204
   69      H       2.5643709300     2.5369072220    -1.0722016413
   70      H       1.7086874877     2.5562299684     0.4501595300
   71      C      -2.6548084808    -0.0370449260    -2.9946246987
   72      C      -3.3068682955     1.1488411923    -3.3458435526
   73      C      -4.5209751820     1.1003081890    -4.0233256095
   74      H      -5.0152936310     2.0280877876    -4.2931167841
   75      C      -5.1125719315    -0.1082645675    -4.3638778123
   76      C      -4.4591022931    -1.2830815545    -4.0076886916
   77      H      -4.9057901516    -2.2385519786    -4.2654577555
   78      C      -3.2475535507    -1.2615990686    -3.3309529880
   79      C      -6.4270246334    -0.1569994374    -5.0875148897
   80      H      -6.7533832156     0.8365473133    -5.3933892415
   81      H      -6.3674618210    -0.7749704260    -5.9849578050
   82      H      -7.2127110988    -0.5805911749    -4.4587004434
   83      C      -2.6869458976     2.4704602778    -2.9877225351
   84      H      -3.2990924349     3.3092841699    -3.3194764724
   85      H      -2.5505609078     2.5637522739    -1.9080935422
   86      H      -1.6985738262     2.5802960239    -3.4394117316
   87      C      -2.5638617884    -2.5467131241    -2.9544052136
   88      H      -3.1328113793    -3.4186249645    -3.2779288733
   89      H      -2.4280339817    -2.6206045076    -1.8731716676
   90      H      -1.5695602078    -2.6136690892    -3.4014899646
 ----------------------------------------------------------------
