 Q-Chem 5.1, Q-Chem, Inc., Pleasanton, CA (2018)
 Q-Chem 5.1.1 for Intel X86 EM64T Linux

User input:
--------------------------------------------------------------
$solvent
dielectric      8.93
dielectric_infi 2.03
$end

$rem
threads 8
jobtype	sp
method PBEh-3c
basis def2-mSVP
mem_static	1024
mem_total	14000
sym_ignore	true
cis_n_roots             2
cis_singlets            true
cis_triplets		false
rpa                     false
calc_soc 		true
cis_moments             true
cis_relaxed_density	true
solvent_method		pcm
$end

$pcm
StateSpecific   1
ChargeSeparation Excited
$end

$molecule
read sctopt.mol
$end

--------------------------------------------------------------

   14   -1973.7199199909      8.45e-09  Convergence criterion met
 Total energy in the final basis set =    -1973.7199199909
 Total job time:  4506.55s(wall), 17200.91s(cpu)
        *  Thank you very much for using Q-Chem.  Have a nice day.  *
 Q-Chem 5.1, Q-Chem, Inc., Pleasanton, CA (2018)
 Q-Chem 5.1.1 for Intel X86 EM64T Linux

User input:
--------------------------------------------------------------
$rem
threads 8
jobtype sp
method PBEh-3c
basis def2-mSVP
mem_static      1024
mem_total       14000
sym_ignore      true
cis_n_roots             6
cis_singlets            true
cis_triplets            true
rpa                     false
calc_soc                true
cis_moments             true
cis_relaxed_density     true
solvent_method          pcm
$end

$molecule
read
$end

$pcm
statespecific           Marcus
$end

$solvent
dielectric      8.93
dielectric_infi 2.03
$end

--------------------------------------------------------------

             Standard Nuclear Orientation (Angstroms)
    I     Atom           X                Y                Z
 ----------------------------------------------------------------
    1      C       0.0000000000     0.0000000000     0.0000000000
    2      C       0.0000000000     0.0000000000     1.4097730000
    3      H       0.9354633230     0.0000000000     1.9622864472
    4      C      -1.1792903762     0.0035807279     2.1056591760
    5      C      -2.4272281756     0.0059898555     1.4187986957
    6      C      -2.4430686374     0.0037268114     0.0419236718
    7      H      -3.3867801986     0.0035351028    -0.4933768552
    8      C      -1.2444059376     0.0001681107    -0.6969142929
    9      C      -1.4401147058     0.0045537318     3.5416193211
   10      C      -0.6627679092     0.0022282401     4.6730382143
   11      H       0.4194789989    -0.0000972290     4.6241068537
   12      C      -2.8407224768     0.0072717863     3.6822316316
   13      C      -3.4942954118     0.0079179568     4.9118334091
   14      C      -3.4869797149     0.0086483187     2.4274234339
   15      C      -4.8589164708     0.0115646195     2.4134514242
   16      H      -5.4196113363     0.0129038113     1.4873651761
   17      C      -1.3011027684     0.0026772990     5.9334002523
   18      H      -0.6881772367     0.0006832554     6.8259980591
   19      C      -2.6703857898     0.0054696611     6.0635152634
   20      H      -3.1182984179     0.0056348619     7.0498349265
   21      C      -4.9081847319     0.0107634918     4.8635021251
   22      H      -5.4834147852     0.0116477101     5.7812497508
   23      C      -5.5507873218     0.0125600633     3.6475796296
   24      H      -6.6330404189     0.0148414754     3.6291740106
   25      B       1.2983605031    -0.0065545173    -0.7971869068
   26      C       1.2947002342     0.0050628424    -2.3209212244
   27      C       2.4968802453     0.0099655704    -3.0574543603
   28      H       3.4553375257     0.0067153311    -2.5458893319
   29      C       2.4742980522     0.0227962700    -4.4267830638
   30      C       1.2366695564     0.0293518427    -5.1334346834
   31      C       0.0530048907     0.0210731973    -4.4277249153
   32      H      -0.8969199322     0.0238640802    -4.9525089311
   33      C       0.0492301877     0.0080504304    -3.0192561764
   34      C       3.5623302986     0.0328146649    -5.3965135097
   35      C       4.9320704061     0.0322699320    -5.3173312513
   36      H       5.4503318937     0.0230124942    -4.3659644844
   37      C       2.9538123309     0.0450700476    -6.6657986970
   38      C       3.6630589656     0.0571658714    -7.8624869591
   39      C       1.5459771220     0.0436977440    -6.5625070418
   40      C       0.8177531315     0.0555473497    -7.7247039064
   41      H      -0.2648642655     0.0555420607    -7.7192767687
   42      C       5.6763136853     0.0441180727    -6.5175345206
   43      H       6.7574310247     0.0436281712    -6.4585742069
   44      C       5.0751716161     0.0562960557    -7.7551494822
   45      H       5.6859888505     0.0652656829    -8.6495942495
   46      C       1.5108500299     0.0681750381    -8.9578167828
   47      H       0.9310713149     0.0776169797    -9.8717529512
   48      C       2.8836504012     0.0691013839    -9.0434190638
   49      H       3.3659120321     0.0791425591   -10.0130173950
   50      B      -1.2763006282    -0.0056516656    -2.2358178080
   51      C       2.6604219549    -0.0489197684    -0.0187949665
   52      C       3.3221768606     1.1666134094     0.3759949230
   53      C       4.4893898514     1.0988569242     1.0834558245
   54      H       4.9930959949     2.0076975546     1.3902495590
   55      C       5.0663564242    -0.1449304026     1.4332702178
   56      C       4.4310269978    -1.3361305192     1.0489204204
   57      H       4.8812789889    -2.2818833775     1.3228273180
   58      C       3.2586960626    -1.3142474899     0.3379996496
   59      C       6.3362068099    -0.1695433896     2.2013499495
   60      H       6.6814465855    -1.1799231975     2.4049860503
   61      H       7.1213999937     0.3615336528     1.6578928295
   62      H       6.2162073725     0.3533666304     3.1533561943
   63      C       2.5748210061    -2.5703344695    -0.0704011978
   64      H       3.1327727425    -3.4543686067     0.2325103609
   65      H       2.4330410489    -2.5949583514    -1.1518964695
   66      H       1.5761846289    -2.6181073720     0.3679697163
   67      C       2.7024304906     2.4700532002     0.0076558608
   68      H       3.3056944913     3.3139477893     0.3376446204
   69      H       2.5643709300     2.5369072220    -1.0722016413
   70      H       1.7086874877     2.5562299684     0.4501595300
   71      C      -2.6548084808    -0.0370449260    -2.9946246987
   72      C      -3.3068682955     1.1488411923    -3.3458435526
   73      C      -4.5209751820     1.1003081890    -4.0233256095
   74      H      -5.0152936310     2.0280877876    -4.2931167841
   75      C      -5.1125719315    -0.1082645675    -4.3638778123
   76      C      -4.4591022931    -1.2830815545    -4.0076886916
   77      H      -4.9057901516    -2.2385519786    -4.2654577555
   78      C      -3.2475535507    -1.2615990686    -3.3309529880
   79      C      -6.4270246334    -0.1569994374    -5.0875148897
   80      H      -6.7533832156     0.8365473133    -5.3933892415
   81      H      -6.3674618210    -0.7749704260    -5.9849578050
   82      H      -7.2127110988    -0.5805911749    -4.4587004434
   83      C      -2.6869458976     2.4704602778    -2.9877225351
   84      H      -3.2990924349     3.3092841699    -3.3194764724
   85      H      -2.5505609078     2.5637522739    -1.9080935422
   86      H      -1.6985738262     2.5802960239    -3.4394117316
   87      C      -2.5638617884    -2.5467131241    -2.9544052136
   88      H      -3.1328113793    -3.4186249645    -3.2779288733
   89      H      -2.4280339817    -2.6206045076    -1.8731716676
   90      H      -1.5695602078    -2.6136690892    -3.4014899646
 ----------------------------------------------------------------

   15   -1973.7123431798      5.74e-09  Convergence criterion met
 Total energy in the final basis set =    -1973.7123431798

         TDDFT/TDA Excitation Energies
 ---------------------------------------------------

 Excited state   1: excitation energy (eV) =    2.2682
 Total energy for state  1:                 -1973.62898720 au
    Multiplicity: Triplet
    Trans. Mom.:  0.0000 X   0.0000 Y   0.0000 Z
    Strength   :     0.0000000000
    D(167) --> V(  2) amplitude =  0.2504
    D(171) --> V(  1) amplitude =  0.6905
    D(172) --> V(  1) amplitude = -0.5919

 Excited state   2: excitation energy (eV) =    2.3738
 Total energy for state  2:                 -1973.62510619 au
    Multiplicity: Triplet
    Trans. Mom.:  0.0000 X   0.0000 Y   0.0000 Z
    Strength   :     0.0000000000
    D(174) --> V(  1) amplitude =  0.9659

 Excited state   3: excitation energy (eV) =    2.4126
 Total energy for state  3:                 -1973.62368081 au
    Multiplicity: Singlet
    Trans. Mom.: -0.0182 X  -0.0047 Y   0.0333 Z
    Strength   :     0.0000864733
    D(174) --> V(  1) amplitude =  0.9742

 Excited state   4: excitation energy (eV) =    2.4479
 Total energy for state  4:                 -1973.62238314 au
    Multiplicity: Triplet
    Trans. Mom.:  0.0000 X   0.0000 Y   0.0000 Z
    Strength   :     0.0000000000
    D(170) --> V(  2) amplitude =  0.4816
    D(172) --> V(  1) amplitude = -0.2267
    D(173) --> V(  1) amplitude =  0.7681

 Excited state   5: excitation energy (eV) =    2.5076
 Total energy for state  5:                 -1973.62019048 au
    Multiplicity: Triplet
    Trans. Mom.:  0.0000 X   0.0000 Y   0.0000 Z
    Strength   :     0.0000000000
    D(170) --> V(  1) amplitude =  0.7400
    D(170) --> V(  4) amplitude = -0.2264
    D(173) --> V(  2) amplitude =  0.5305

 Excited state   6: excitation energy (eV) =    2.7598
 Total energy for state  6:                 -1973.61092326 au
    Multiplicity: Triplet
    Trans. Mom.:  0.0000 X   0.0000 Y   0.0000 Z
    Strength   :     0.0000000000
    D(167) --> V(  1) amplitude =  0.7053
    D(171) --> V(  2) amplitude =  0.4295
    D(172) --> V(  2) amplitude = -0.3576

 Excited state   7: excitation energy (eV) =    2.9406
 Total energy for state  7:                 -1973.60427919 au
    Multiplicity: Singlet
    Trans. Mom.:  0.0201 X  -0.0009 Y  -0.0227 Z
    Strength   :     0.0000660930
    D(171) --> V(  1) amplitude =  0.6831
    D(172) --> V(  1) amplitude = -0.6740

 Excited state   8: excitation energy (eV) =    3.1552
 Total energy for state  8:                 -1973.59639155 au
    Multiplicity: Singlet
    Trans. Mom.:  1.9842 X   0.0131 Y  -3.5382 Z
    Strength   :     1.2721094755
    D(173) --> V(  1) amplitude =  0.9473

 Excited state   9: excitation energy (eV) =    3.1987
 Total energy for state  9:                 -1973.59479433 au
    Multiplicity: Triplet
    Trans. Mom.:  0.0000 X   0.0000 Y   0.0000 Z
    Strength   :     0.0000000000
    D(169) --> V(  1) amplitude =  0.8625
    D(171) --> V(  1) amplitude =  0.2661
    D(172) --> V(  1) amplitude =  0.2747

 Excited state  10: excitation energy (eV) =    3.2270
 Total energy for state 10:                 -1973.59375401 au
    Multiplicity: Singlet
    Trans. Mom.: -0.4142 X  -0.0023 Y   0.7093 Z
    Strength   :     0.0533336533
    D(171) --> V(  1) amplitude =  0.6921
    D(172) --> V(  1) amplitude =  0.6936

 Excited state  11: excitation energy (eV) =    3.2577
 Total energy for state 11:                 -1973.59262383 au
    Multiplicity: Singlet
    Trans. Mom.: -0.0653 X  -0.0018 Y   0.0993 Z
    Strength   :     0.0011282948
    D(169) --> V(  1) amplitude =  0.9614

 Excited state  12: excitation energy (eV) =    3.4675
 Total energy for state 12:                 -1973.58491379 au
    Multiplicity: Singlet
    Trans. Mom.: -0.0617 X  -0.0256 Y   0.0006 Z
    Strength   :     0.0003789710
    D(170) --> V(  1) amplitude =  0.9378

 ---------------------------------------------------

                    Orbital Energies (a.u.)
 --------------------------------------------------------------

 Alpha MOs
 -- Occupied --
-10.473 -10.473 -10.472 -10.471 -10.471 -10.471 -10.470 -10.470
-10.470 -10.470 -10.469 -10.469 -10.467 -10.467 -10.467 -10.467
-10.466 -10.466 -10.464 -10.464 -10.463 -10.463 -10.462 -10.462
-10.459 -10.458 -10.458 -10.458 -10.456 -10.455 -10.455 -10.443
-10.443 -10.441 -10.440 -10.439 -10.439 -10.439 -10.438 -10.435
-10.433 -10.433 -10.432 -10.428 -10.416 -10.416 -10.416 -10.415
-10.413 -10.406  -6.954  -6.943  -1.024  -1.023  -0.970  -0.966
 -0.965  -0.940  -0.939  -0.939  -0.915  -0.906  -0.878  -0.877
 -0.864  -0.862  -0.862  -0.853  -0.852  -0.851  -0.830  -0.819
 -0.818  -0.811  -0.787  -0.767  -0.766  -0.765  -0.749  -0.744
 -0.740  -0.733  -0.730  -0.727  -0.695  -0.687  -0.685  -0.673
 -0.655  -0.651  -0.647  -0.646  -0.628  -0.621  -0.600  -0.596
 -0.595  -0.592  -0.588  -0.581  -0.581  -0.557  -0.549  -0.549
 -0.542  -0.532  -0.530  -0.528  -0.523  -0.513  -0.510  -0.503
 -0.500  -0.499  -0.495  -0.494  -0.493  -0.489  -0.487  -0.486
 -0.483  -0.474  -0.472  -0.471  -0.470  -0.469  -0.468  -0.463
 -0.460  -0.457  -0.456  -0.451  -0.451  -0.448  -0.447  -0.444
 -0.443  -0.440  -0.437  -0.431  -0.430  -0.429  -0.418  -0.415
 -0.403  -0.403  -0.403  -0.402  -0.398  -0.398  -0.397  -0.390
 -0.389  -0.387  -0.385  -0.377  -0.366  -0.360  -0.359  -0.357
 -0.354  -0.336  -0.328  -0.323  -0.303  -0.302  -0.290  -0.283
 -0.274  -0.269  -0.266  -0.264  -0.263  -0.242

          Ground-State Mulliken Net Atomic Charges

     Atom                 Charge (a.u.)
  ----------------------------------------
      1 C                    -0.152545
      2 C                    -0.390674
      3 H                     0.266142
      4 C                     0.070402
      5 C                     0.096706
      6 C                    -0.407776
      7 H                     0.244158
      8 C                    -0.154472
      9 C                     0.179580
     10 C                    -0.390375
     11 H                     0.263235
     12 C                    -0.073612
     13 C                     0.218258
     14 C                     0.176953
     15 C                    -0.400324
     16 H                     0.252917
     17 C                    -0.235298
     18 H                     0.263641
     19 C                    -0.347861
     20 H                     0.258154
     21 C                    -0.351482
     22 H                     0.258665
     23 C                    -0.234263
     24 H                     0.259765
     25 B                     0.675982
     26 C                    -0.153687
     27 C                    -0.391867
     28 H                     0.265050
     29 C                     0.071404
     30 C                     0.096952
     31 C                    -0.408512
     32 H                     0.243741
     33 C                    -0.153819
     34 C                     0.178623
     35 C                    -0.389443
     36 H                     0.263189
     37 C                    -0.072506
     38 C                     0.219939
     39 C                     0.174980
     40 C                    -0.399633
     41 H                     0.253090
     42 C                    -0.235674
     43 H                     0.263547
     44 C                    -0.348683
     45 H                     0.258202
     46 C                    -0.234196
     47 H                     0.259964
     48 C                    -0.351941
     49 H                     0.258612
     50 B                     0.676565
     51 C                    -0.259654
     52 C                     0.075308
     53 C                    -0.350074
     54 H                     0.229613
     55 C                     0.104455
     56 C                    -0.360687
     57 H                     0.231813
     58 C                     0.068734
     59 C                    -0.722006
     60 H                     0.239729
     61 H                     0.240428
     62 H                     0.240094
     63 C                    -0.770917
     64 H                     0.256792
     65 H                     0.239854
     66 H                     0.239710
     67 C                    -0.769949
     68 H                     0.256318
     69 H                     0.239334
     70 H                     0.239243
     71 C                    -0.218537
     72 C                     0.047109
     73 C                    -0.372519
     74 H                     0.228763
     75 C                     0.106608
     76 C                    -0.364332
     77 H                     0.227539
     78 C                     0.044586
     79 C                    -0.723021
     80 H                     0.239805
     81 H                     0.239733
     82 H                     0.241299
     83 C                    -0.771558
     84 H                     0.253461
     85 H                     0.245155
     86 H                     0.245020
     87 C                    -0.772245
     88 H                     0.253870
     89 H                     0.245661
     90 H                     0.245694
  ----------------------------------------
  Sum of atomic charges =    -0.000000

                    Cartesian Multipole Moments
 -----------------------------------------------------------------
    Charge (ESU x 10^10)
                -0.0000
    Dipole Moment (Debye)
         X       1.6537      Y      -0.0002      Z       0.9891
       Tot       1.9269
    Quadrupole Moments (Debye-Ang)
        XX    -242.8912     XY       0.6997     YY    -301.0172
        XZ      -7.9992     YZ       0.0770     ZZ    -238.1620

 Total job time:  8565.31s(wall), 30864.86s(cpu)
        *  Thank you very much for using Q-Chem.  Have a nice day.  *
