 Q-Chem 5.1, Q-Chem, Inc., Pleasanton, CA (2018)
 Q-Chem 5.1.1 for Intel X86 EM64T Linux

User input:
--------------------------------------------------------------
$solvent
dielectric      4.33
dielectric_infi 1.83
$end

$rem
threads 8
jobtype	sp
method PBEh-3c
basis def2-mSVP
mem_static	1024
mem_total	14000
sym_ignore	true
cis_n_roots             2
cis_singlets            true
cis_triplets		false
rpa                     false
calc_soc 		true
cis_moments             true
cis_relaxed_density	true
solvent_method		pcm
$end

$pcm
StateSpecific   1
ChargeSeparation Excited
$end

$molecule
read sctopt.mol
$end

--------------------------------------------------------------

   14   -1973.7163246759      9.81e-09  Convergence criterion met
 Total energy in the final basis set =    -1973.7163246759
 Total job time:  4534.67s(wall), 17303.81s(cpu)
        *  Thank you very much for using Q-Chem.  Have a nice day.  *
 Q-Chem 5.1, Q-Chem, Inc., Pleasanton, CA (2018)
 Q-Chem 5.1.1 for Intel X86 EM64T Linux

User input:
--------------------------------------------------------------
$rem
threads 8
jobtype sp
method PBEh-3c
basis def2-mSVP
mem_static      1024
mem_total       14000
sym_ignore      true
cis_n_roots             6
cis_singlets            true
cis_triplets            true
rpa                     false
calc_soc                true
cis_moments             true
cis_relaxed_density     true
solvent_method          pcm
$end

$molecule
read
$end

$pcm
statespecific           Marcus
$end

$solvent
dielectric      4.33
dielectric_infi 1.83
$end

--------------------------------------------------------------

             Standard Nuclear Orientation (Angstroms)
    I     Atom           X                Y                Z
 ----------------------------------------------------------------
    1      C       0.0000000000     0.0000000000     0.0000000000
    2      C       0.0000000000     0.0000000000     1.4097730000
    3      H       0.9354633230     0.0000000000     1.9622864472
    4      C      -1.1792903762     0.0035807279     2.1056591760
    5      C      -2.4272281756     0.0059898555     1.4187986957
    6      C      -2.4430686374     0.0037268114     0.0419236718
    7      H      -3.3867801986     0.0035351028    -0.4933768552
    8      C      -1.2444059376     0.0001681107    -0.6969142929
    9      C      -1.4401147058     0.0045537318     3.5416193211
   10      C      -0.6627679092     0.0022282401     4.6730382143
   11      H       0.4194789989    -0.0000972290     4.6241068537
   12      C      -2.8407224768     0.0072717863     3.6822316316
   13      C      -3.4942954118     0.0079179568     4.9118334091
   14      C      -3.4869797149     0.0086483187     2.4274234339
   15      C      -4.8589164708     0.0115646195     2.4134514242
   16      H      -5.4196113363     0.0129038113     1.4873651761
   17      C      -1.3011027684     0.0026772990     5.9334002523
   18      H      -0.6881772367     0.0006832554     6.8259980591
   19      C      -2.6703857898     0.0054696611     6.0635152634
   20      H      -3.1182984179     0.0056348619     7.0498349265
   21      C      -4.9081847319     0.0107634918     4.8635021251
   22      H      -5.4834147852     0.0116477101     5.7812497508
   23      C      -5.5507873218     0.0125600633     3.6475796296
   24      H      -6.6330404189     0.0148414754     3.6291740106
   25      B       1.2983605031    -0.0065545173    -0.7971869068
   26      C       1.2947002342     0.0050628424    -2.3209212244
   27      C       2.4968802453     0.0099655704    -3.0574543603
   28      H       3.4553375257     0.0067153311    -2.5458893319
   29      C       2.4742980522     0.0227962700    -4.4267830638
   30      C       1.2366695564     0.0293518427    -5.1334346834
   31      C       0.0530048907     0.0210731973    -4.4277249153
   32      H      -0.8969199322     0.0238640802    -4.9525089311
   33      C       0.0492301877     0.0080504304    -3.0192561764
   34      C       3.5623302986     0.0328146649    -5.3965135097
   35      C       4.9320704061     0.0322699320    -5.3173312513
   36      H       5.4503318937     0.0230124942    -4.3659644844
   37      C       2.9538123309     0.0450700476    -6.6657986970
   38      C       3.6630589656     0.0571658714    -7.8624869591
   39      C       1.5459771220     0.0436977440    -6.5625070418
   40      C       0.8177531315     0.0555473497    -7.7247039064
   41      H      -0.2648642655     0.0555420607    -7.7192767687
   42      C       5.6763136853     0.0441180727    -6.5175345206
   43      H       6.7574310247     0.0436281712    -6.4585742069
   44      C       5.0751716161     0.0562960557    -7.7551494822
   45      H       5.6859888505     0.0652656829    -8.6495942495
   46      C       1.5108500299     0.0681750381    -8.9578167828
   47      H       0.9310713149     0.0776169797    -9.8717529512
   48      C       2.8836504012     0.0691013839    -9.0434190638
   49      H       3.3659120321     0.0791425591   -10.0130173950
   50      B      -1.2763006282    -0.0056516656    -2.2358178080
   51      C       2.6604219549    -0.0489197684    -0.0187949665
   52      C       3.3221768606     1.1666134094     0.3759949230
   53      C       4.4893898514     1.0988569242     1.0834558245
   54      H       4.9930959949     2.0076975546     1.3902495590
   55      C       5.0663564242    -0.1449304026     1.4332702178
   56      C       4.4310269978    -1.3361305192     1.0489204204
   57      H       4.8812789889    -2.2818833775     1.3228273180
   58      C       3.2586960626    -1.3142474899     0.3379996496
   59      C       6.3362068099    -0.1695433896     2.2013499495
   60      H       6.6814465855    -1.1799231975     2.4049860503
   61      H       7.1213999937     0.3615336528     1.6578928295
   62      H       6.2162073725     0.3533666304     3.1533561943
   63      C       2.5748210061    -2.5703344695    -0.0704011978
   64      H       3.1327727425    -3.4543686067     0.2325103609
   65      H       2.4330410489    -2.5949583514    -1.1518964695
   66      H       1.5761846289    -2.6181073720     0.3679697163
   67      C       2.7024304906     2.4700532002     0.0076558608
   68      H       3.3056944913     3.3139477893     0.3376446204
   69      H       2.5643709300     2.5369072220    -1.0722016413
   70      H       1.7086874877     2.5562299684     0.4501595300
   71      C      -2.6548084808    -0.0370449260    -2.9946246987
   72      C      -3.3068682955     1.1488411923    -3.3458435526
   73      C      -4.5209751820     1.1003081890    -4.0233256095
   74      H      -5.0152936310     2.0280877876    -4.2931167841
   75      C      -5.1125719315    -0.1082645675    -4.3638778123
   76      C      -4.4591022931    -1.2830815545    -4.0076886916
   77      H      -4.9057901516    -2.2385519786    -4.2654577555
   78      C      -3.2475535507    -1.2615990686    -3.3309529880
   79      C      -6.4270246334    -0.1569994374    -5.0875148897
   80      H      -6.7533832156     0.8365473133    -5.3933892415
   81      H      -6.3674618210    -0.7749704260    -5.9849578050
   82      H      -7.2127110988    -0.5805911749    -4.4587004434
   83      C      -2.6869458976     2.4704602778    -2.9877225351
   84      H      -3.2990924349     3.3092841699    -3.3194764724
   85      H      -2.5505609078     2.5637522739    -1.9080935422
   86      H      -1.6985738262     2.5802960239    -3.4394117316
   87      C      -2.5638617884    -2.5467131241    -2.9544052136
   88      H      -3.1328113793    -3.4186249645    -3.2779288733
   89      H      -2.4280339817    -2.6206045076    -1.8731716676
   90      H      -1.5695602078    -2.6136690892    -3.4014899646
 ----------------------------------------------------------------

   15   -1973.7103244411      5.87e-09  Convergence criterion met
 Total energy in the final basis set =    -1973.7103244411

         TDDFT/TDA Excitation Energies
 ---------------------------------------------------

 Excited state   1: excitation energy (eV) =    2.2575
 Total energy for state  1:                 -1973.62736335 au
    Multiplicity: Triplet
    Trans. Mom.:  0.0000 X   0.0000 Y   0.0000 Z
    Strength   :     0.0000000000
    D(167) --> V(  2) amplitude =  0.2509
    D(172) --> V(  1) amplitude =  0.8953

 Excited state   2: excitation energy (eV) =    2.4452
 Total energy for state  2:                 -1973.62046476 au
    Multiplicity: Triplet
    Trans. Mom.:  0.0000 X   0.0000 Y   0.0000 Z
    Strength   :     0.0000000000
    D(170) --> V(  2) amplitude =  0.4643
    D(173) --> V(  1) amplitude =  0.7705
    D(174) --> V(  1) amplitude = -0.2533

 Excited state   3: excitation energy (eV) =    2.4651
 Total energy for state  3:                 -1973.61973535 au
    Multiplicity: Triplet
    Trans. Mom.:  0.0000 X   0.0000 Y   0.0000 Z
    Strength   :     0.0000000000
    D(174) --> V(  1) amplitude =  0.9326

 Excited state   4: excitation energy (eV) =    2.5042
 Total energy for state  4:                 -1973.61829705 au
    Multiplicity: Singlet
    Trans. Mom.: -0.0200 X  -0.0048 Y   0.0366 Z
    Strength   :     0.0001082028
    D(174) --> V(  1) amplitude =  0.9735

 Excited state   5: excitation energy (eV) =    2.5065
 Total energy for state  5:                 -1973.61821318 au
    Multiplicity: Triplet
    Trans. Mom.:  0.0000 X   0.0000 Y   0.0000 Z
    Strength   :     0.0000000000
    D(170) --> V(  1) amplitude =  0.7351
    D(170) --> V(  4) amplitude = -0.2279
    D(173) --> V(  2) amplitude =  0.5523

 Excited state   6: excitation energy (eV) =    2.7503
 Total energy for state  6:                 -1973.60925306 au
    Multiplicity: Triplet
    Trans. Mom.:  0.0000 X   0.0000 Y   0.0000 Z
    Strength   :     0.0000000000
    D(167) --> V(  1) amplitude = -0.7070
    D(172) --> V(  2) amplitude = -0.5481

 Excited state   7: excitation energy (eV) =    2.9314
 Total energy for state  7:                 -1973.60259712 au
    Multiplicity: Singlet
    Trans. Mom.: -0.0026 X   0.0009 Y  -0.0076 Z
    Strength   :     0.0000047107
    D(172) --> V(  1) amplitude =  0.9527

 Excited state   8: excitation energy (eV) =    3.1659
 Total energy for state  8:                 -1973.59398138 au
    Multiplicity: Singlet
    Trans. Mom.:  1.9790 X   0.0137 Y  -3.5276 Z
    Strength   :     1.2689840732
    D(173) --> V(  1) amplitude =  0.9527

 Excited state   9: excitation energy (eV) =    3.1870
 Total energy for state  9:                 -1973.59320416 au
    Multiplicity: Triplet
    Trans. Mom.:  0.0000 X   0.0000 Y   0.0000 Z
    Strength   :     0.0000000000
    D(169) --> V(  1) amplitude =  0.9491

 Excited state  10: excitation energy (eV) =    3.2424
 Total energy for state 10:                 -1973.59116772 au
    Multiplicity: Singlet
    Trans. Mom.: -0.1338 X  -0.0022 Y   0.2178 Z
    Strength   :     0.0051893731
    D(169) --> V(  1) amplitude =  0.9631

 Excited state  11: excitation energy (eV) =    3.3255
 Total energy for state 11:                 -1973.58811500 au
    Multiplicity: Singlet
    Trans. Mom.: -0.1688 X  -0.0004 Y   0.2758 Z
    Strength   :     0.0085176242
    D(171) --> V(  1) amplitude =  0.9689

 Excited state  12: excitation energy (eV) =    3.4773
 Total energy for state 12:                 -1973.58253730 au
    Multiplicity: Singlet
    Trans. Mom.: -0.0567 X  -0.0254 Y   0.0021 Z
    Strength   :     0.0003290125
    D(170) --> V(  1) amplitude =  0.9343

 ---------------------------------------------------

                    Orbital Energies (a.u.)
 --------------------------------------------------------------

 Alpha MOs
 -- Occupied --
-10.471 -10.471 -10.470 -10.470 -10.470 -10.469 -10.468 -10.468
-10.468 -10.468 -10.468 -10.468 -10.466 -10.466 -10.465 -10.465
-10.465 -10.465 -10.463 -10.462 -10.462 -10.461 -10.461 -10.460
-10.457 -10.457 -10.455 -10.455 -10.454 -10.454 -10.453 -10.441
-10.441 -10.440 -10.440 -10.439 -10.438 -10.437 -10.437 -10.436
-10.431 -10.431 -10.431 -10.425 -10.419 -10.418 -10.417 -10.416
-10.415 -10.410  -6.952  -6.941  -1.022  -1.021  -0.968  -0.964
 -0.962  -0.941  -0.938  -0.938  -0.914  -0.904  -0.876  -0.874
 -0.863  -0.862  -0.860  -0.854  -0.851  -0.851  -0.828  -0.818
 -0.816  -0.809  -0.785  -0.769  -0.763  -0.763  -0.750  -0.745
 -0.739  -0.731  -0.729  -0.725  -0.693  -0.685  -0.684  -0.671
 -0.654  -0.650  -0.645  -0.644  -0.630  -0.623  -0.599  -0.595
 -0.594  -0.591  -0.587  -0.580  -0.580  -0.555  -0.548  -0.547
 -0.542  -0.531  -0.530  -0.529  -0.522  -0.511  -0.508  -0.501
 -0.498  -0.498  -0.494  -0.492  -0.491  -0.488  -0.485  -0.484
 -0.481  -0.475  -0.471  -0.470  -0.469  -0.469  -0.468  -0.461
 -0.460  -0.458  -0.454  -0.452  -0.451  -0.449  -0.447  -0.444
 -0.444  -0.439  -0.436  -0.432  -0.429  -0.428  -0.417  -0.414
 -0.402  -0.402  -0.401  -0.401  -0.400  -0.397  -0.396  -0.390
 -0.387  -0.385  -0.384  -0.376  -0.367  -0.362  -0.357  -0.355
 -0.353  -0.335  -0.326  -0.321  -0.301  -0.300  -0.288  -0.280
 -0.271  -0.268  -0.267  -0.262  -0.261  -0.243

          Ground-State Mulliken Net Atomic Charges

     Atom                 Charge (a.u.)
  ----------------------------------------
      1 C                    -0.151969
      2 C                    -0.389885
      3 H                     0.260155
      4 C                     0.073359
      5 C                     0.100307
      6 C                    -0.406053
      7 H                     0.243278
      8 C                    -0.153870
      9 C                     0.183139
     10 C                    -0.388790
     11 H                     0.256317
     12 C                    -0.072370
     13 C                     0.223300
     14 C                     0.180742
     15 C                    -0.397873
     16 H                     0.248645
     17 C                    -0.231075
     18 H                     0.257721
     19 C                    -0.345699
     20 H                     0.252283
     21 C                    -0.349371
     22 H                     0.252792
     23 C                    -0.229645
     24 H                     0.254663
     25 B                     0.677695
     26 C                    -0.153083
     27 C                    -0.391059
     28 H                     0.259036
     29 C                     0.074375
     30 C                     0.100563
     31 C                    -0.406727
     32 H                     0.242835
     33 C                    -0.153242
     34 C                     0.182177
     35 C                    -0.387853
     36 H                     0.256306
     37 C                    -0.071263
     38 C                     0.224965
     39 C                     0.178763
     40 C                    -0.397208
     41 H                     0.248801
     42 C                    -0.231458
     43 H                     0.257653
     44 C                    -0.346514
     45 H                     0.252336
     46 C                    -0.229581
     47 H                     0.254851
     48 C                    -0.349826
     49 H                     0.252747
     50 B                     0.681987
     51 C                    -0.257948
     52 C                     0.075286
     53 C                    -0.348691
     54 H                     0.224242
     55 C                     0.105714
     56 C                    -0.358486
     57 H                     0.226327
     58 C                     0.068710
     59 C                    -0.720551
     60 H                     0.237781
     61 H                     0.238559
     62 H                     0.238210
     63 C                    -0.769133
     64 H                     0.252652
     65 H                     0.241520
     66 H                     0.241355
     67 C                    -0.768084
     68 H                     0.252159
     69 H                     0.241020
     70 H                     0.240891
     71 C                    -0.219449
     72 C                     0.049747
     73 C                    -0.368418
     74 H                     0.223676
     75 C                     0.110265
     76 C                    -0.360918
     77 H                     0.222674
     78 C                     0.047541
     79 C                    -0.721245
     80 H                     0.237603
     81 H                     0.237975
     82 H                     0.239627
     83 C                    -0.770129
     84 H                     0.250165
     85 H                     0.245368
     86 H                     0.245225
     87 C                    -0.770906
     88 H                     0.250547
     89 H                     0.245846
     90 H                     0.245901
  ----------------------------------------
  Sum of atomic charges =    -0.000000

                    Cartesian Multipole Moments
 -----------------------------------------------------------------
    Charge (ESU x 10^10)
                -0.0000
    Dipole Moment (Debye)
         X       1.2493      Y       0.0076      Z       0.7530
       Tot       1.4588
    Quadrupole Moments (Debye-Ang)
        XX    -246.5866     XY       0.6766     YY    -301.3230
        XZ      -7.6272     YZ       0.0644     ZZ    -240.9397

 Total job time:  8673.31s(wall), 31599.71s(cpu)
        *  Thank you very much for using Q-Chem.  Have a nice day.  *
