 Q-Chem 5.1, Q-Chem, Inc., Pleasanton, CA (2018)
 Q-Chem 5.1.1 for Intel X86 EM64T Linux

User input:
--------------------------------------------------------------
$solvent
dielectric      35.7
dielectric_infi 1.81
$end

$rem
threads 8
jobtype	sp
method PBEh-3c
basis def2-mSVP
mem_static	1024
mem_total	14000
sym_ignore	true
cis_n_roots             2
cis_singlets            true
cis_triplets		false
rpa                     false
calc_soc 		true
cis_moments             true
cis_relaxed_density	true
solvent_method		pcm
$end

$pcm
StateSpecific   1
ChargeSeparation Excited
$end

$molecule
read sctopt.mol
$end

--------------------------------------------------------------

   14   -1973.7225516731      9.20e-09  Convergence criterion met
 Total energy in the final basis set =    -1973.7225516731
 Total job time:  6151.72s(wall), 22014.51s(cpu)
        *  Thank you very much for using Q-Chem.  Have a nice day.  *
 Q-Chem 5.1, Q-Chem, Inc., Pleasanton, CA (2018)
 Q-Chem 5.1.1 for Intel X86 EM64T Linux

User input:
--------------------------------------------------------------
$rem
threads 8
jobtype sp
method PBEh-3c
basis def2-mSVP
mem_static      1024
mem_total       14000
sym_ignore      true
cis_n_roots             6
cis_singlets            true
cis_triplets            true
rpa                     false
calc_soc                true
cis_moments             true
cis_relaxed_density     true
solvent_method          pcm
$end

$molecule
read
$end

$pcm
statespecific           Marcus
$end

$solvent
dielectric      35.7
dielectric_infi 1.81
$end

--------------------------------------------------------------

             Standard Nuclear Orientation (Angstroms)
    I     Atom           X                Y                Z
 ----------------------------------------------------------------
    1      C       0.0000000000     0.0000000000     0.0000000000
    2      C       0.0000000000     0.0000000000     1.4097730000
    3      H       0.9354633230     0.0000000000     1.9622864472
    4      C      -1.1792903762     0.0035807279     2.1056591760
    5      C      -2.4272281756     0.0059898555     1.4187986957
    6      C      -2.4430686374     0.0037268114     0.0419236718
    7      H      -3.3867801986     0.0035351028    -0.4933768552
    8      C      -1.2444059376     0.0001681107    -0.6969142929
    9      C      -1.4401147058     0.0045537318     3.5416193211
   10      C      -0.6627679092     0.0022282401     4.6730382143
   11      H       0.4194789989    -0.0000972290     4.6241068537
   12      C      -2.8407224768     0.0072717863     3.6822316316
   13      C      -3.4942954118     0.0079179568     4.9118334091
   14      C      -3.4869797149     0.0086483187     2.4274234339
   15      C      -4.8589164708     0.0115646195     2.4134514242
   16      H      -5.4196113363     0.0129038113     1.4873651761
   17      C      -1.3011027684     0.0026772990     5.9334002523
   18      H      -0.6881772367     0.0006832554     6.8259980591
   19      C      -2.6703857898     0.0054696611     6.0635152634
   20      H      -3.1182984179     0.0056348619     7.0498349265
   21      C      -4.9081847319     0.0107634918     4.8635021251
   22      H      -5.4834147852     0.0116477101     5.7812497508
   23      C      -5.5507873218     0.0125600633     3.6475796296
   24      H      -6.6330404189     0.0148414754     3.6291740106
   25      B       1.2983605031    -0.0065545173    -0.7971869068
   26      C       1.2947002342     0.0050628424    -2.3209212244
   27      C       2.4968802453     0.0099655704    -3.0574543603
   28      H       3.4553375257     0.0067153311    -2.5458893319
   29      C       2.4742980522     0.0227962700    -4.4267830638
   30      C       1.2366695564     0.0293518427    -5.1334346834
   31      C       0.0530048907     0.0210731973    -4.4277249153
   32      H      -0.8969199322     0.0238640802    -4.9525089311
   33      C       0.0492301877     0.0080504304    -3.0192561764
   34      C       3.5623302986     0.0328146649    -5.3965135097
   35      C       4.9320704061     0.0322699320    -5.3173312513
   36      H       5.4503318937     0.0230124942    -4.3659644844
   37      C       2.9538123309     0.0450700476    -6.6657986970
   38      C       3.6630589656     0.0571658714    -7.8624869591
   39      C       1.5459771220     0.0436977440    -6.5625070418
   40      C       0.8177531315     0.0555473497    -7.7247039064
   41      H      -0.2648642655     0.0555420607    -7.7192767687
   42      C       5.6763136853     0.0441180727    -6.5175345206
   43      H       6.7574310247     0.0436281712    -6.4585742069
   44      C       5.0751716161     0.0562960557    -7.7551494822
   45      H       5.6859888505     0.0652656829    -8.6495942495
   46      C       1.5108500299     0.0681750381    -8.9578167828
   47      H       0.9310713149     0.0776169797    -9.8717529512
   48      C       2.8836504012     0.0691013839    -9.0434190638
   49      H       3.3659120321     0.0791425591   -10.0130173950
   50      B      -1.2763006282    -0.0056516656    -2.2358178080
   51      C       2.6604219549    -0.0489197684    -0.0187949665
   52      C       3.3221768606     1.1666134094     0.3759949230
   53      C       4.4893898514     1.0988569242     1.0834558245
   54      H       4.9930959949     2.0076975546     1.3902495590
   55      C       5.0663564242    -0.1449304026     1.4332702178
   56      C       4.4310269978    -1.3361305192     1.0489204204
   57      H       4.8812789889    -2.2818833775     1.3228273180
   58      C       3.2586960626    -1.3142474899     0.3379996496
   59      C       6.3362068099    -0.1695433896     2.2013499495
   60      H       6.6814465855    -1.1799231975     2.4049860503
   61      H       7.1213999937     0.3615336528     1.6578928295
   62      H       6.2162073725     0.3533666304     3.1533561943
   63      C       2.5748210061    -2.5703344695    -0.0704011978
   64      H       3.1327727425    -3.4543686067     0.2325103609
   65      H       2.4330410489    -2.5949583514    -1.1518964695
   66      H       1.5761846289    -2.6181073720     0.3679697163
   67      C       2.7024304906     2.4700532002     0.0076558608
   68      H       3.3056944913     3.3139477893     0.3376446204
   69      H       2.5643709300     2.5369072220    -1.0722016413
   70      H       1.7086874877     2.5562299684     0.4501595300
   71      C      -2.6548084808    -0.0370449260    -2.9946246987
   72      C      -3.3068682955     1.1488411923    -3.3458435526
   73      C      -4.5209751820     1.1003081890    -4.0233256095
   74      H      -5.0152936310     2.0280877876    -4.2931167841
   75      C      -5.1125719315    -0.1082645675    -4.3638778123
   76      C      -4.4591022931    -1.2830815545    -4.0076886916
   77      H      -4.9057901516    -2.2385519786    -4.2654577555
   78      C      -3.2475535507    -1.2615990686    -3.3309529880
   79      C      -6.4270246334    -0.1569994374    -5.0875148897
   80      H      -6.7533832156     0.8365473133    -5.3933892415
   81      H      -6.3674618210    -0.7749704260    -5.9849578050
   82      H      -7.2127110988    -0.5805911749    -4.4587004434
   83      C      -2.6869458976     2.4704602778    -2.9877225351
   84      H      -3.2990924349     3.3092841699    -3.3194764724
   85      H      -2.5505609078     2.5637522739    -1.9080935422
   86      H      -1.6985738262     2.5802960239    -3.4394117316
   87      C      -2.5638617884    -2.5467131241    -2.9544052136
   88      H      -3.1328113793    -3.4186249645    -3.2779288733
   89      H      -2.4280339817    -2.6206045076    -1.8731716676
   90      H      -1.5695602078    -2.6136690892    -3.4014899646
 ----------------------------------------------------------------

   15   -1973.7120092984      5.83e-09  Convergence criterion met
 Total energy in the final basis set =    -1973.7120092984

         TDDFT/TDA Excitation Energies
 ---------------------------------------------------

 Excited state   1: excitation energy (eV) =    2.2035
 Total energy for state  1:                 -1973.63103276 au
    Multiplicity: Triplet
    Trans. Mom.:  0.0000 X   0.0000 Y   0.0000 Z
    Strength   :     0.0000000000
    D(174) --> V(  1) amplitude =  0.9691

 Excited state   2: excitation energy (eV) =    2.2395
 Total energy for state  2:                 -1973.62971061 au
    Multiplicity: Singlet
    Trans. Mom.: -0.0156 X  -0.0041 Y   0.0286 Z
    Strength   :     0.0000591409
    D(174) --> V(  1) amplitude =  0.9752

 Excited state   3: excitation energy (eV) =    2.2815
 Total energy for state  3:                 -1973.62816619 au
    Multiplicity: Triplet
    Trans. Mom.:  0.0000 X   0.0000 Y   0.0000 Z
    Strength   :     0.0000000000
    D(167) --> V(  2) amplitude =  0.2509
    D(171) --> V(  1) amplitude =  0.9048

 Excited state   4: excitation energy (eV) =    2.4505
 Total energy for state  4:                 -1973.62195514 au
    Multiplicity: Triplet
    Trans. Mom.:  0.0000 X   0.0000 Y   0.0000 Z
    Strength   :     0.0000000000
    D(170) --> V(  2) amplitude = -0.4836
    D(172) --> V(  1) amplitude =  0.7995

 Excited state   5: excitation energy (eV) =    2.5097
 Total energy for state  5:                 -1973.61977841 au
    Multiplicity: Triplet
    Trans. Mom.:  0.0000 X   0.0000 Y   0.0000 Z
    Strength   :     0.0000000000
    D(170) --> V(  1) amplitude =  0.7400
    D(170) --> V(  4) amplitude = -0.2207
    D(172) --> V(  2) amplitude = -0.5528

 Excited state   6: excitation energy (eV) =    2.7696
 Total energy for state  6:                 -1973.61023005 au
    Multiplicity: Triplet
    Trans. Mom.:  0.0000 X   0.0000 Y   0.0000 Z
    Strength   :     0.0000000000
    D(167) --> V(  1) amplitude =  0.7032
    D(171) --> V(  2) amplitude =  0.5577

 Excited state   7: excitation energy (eV) =    2.9505
 Total energy for state  7:                 -1973.60357941 au
    Multiplicity: Singlet
    Trans. Mom.:  0.0171 X  -0.0010 Y  -0.0130 Z
    Strength   :     0.0000332688
    D(171) --> V(  1) amplitude =  0.8704
    D(173) --> V(  1) amplitude = -0.4225

 Excited state   8: excitation energy (eV) =    3.0209
 Total energy for state  8:                 -1973.60099416 au
    Multiplicity: Triplet
    Trans. Mom.:  0.0000 X   0.0000 Y   0.0000 Z
    Strength   :     0.0000000000
    D(173) --> V(  1) amplitude =  0.9731

 Excited state   9: excitation energy (eV) =    3.0385
 Total energy for state  9:                 -1973.60034738 au
    Multiplicity: Singlet
    Trans. Mom.:  0.2217 X   0.0017 Y  -0.4193 Z
    Strength   :     0.0167471177
    D(171) --> V(  1) amplitude =  0.4151
    D(173) --> V(  1) amplitude =  0.8932

 Excited state  10: excitation energy (eV) =    3.1736
 Total energy for state 10:                 -1973.59538271 au
    Multiplicity: Singlet
    Trans. Mom.: -1.9754 X  -0.0134 Y   3.5156 Z
    Strength   :     1.2643741561
    D(172) --> V(  1) amplitude =  0.9523

 Excited state  11: excitation energy (eV) =    3.2853
 Total energy for state 11:                 -1973.59127755 au
    Multiplicity: Singlet
    Trans. Mom.:  0.0804 X   0.0021 Y  -0.1235 Z
    Strength   :     0.0017481610
    D(169) --> V(  1) amplitude = -0.9645

 Excited state  12: excitation energy (eV) =    3.4784
 Total energy for state 12:                 -1973.58417889 au
    Multiplicity: Singlet
    Trans. Mom.: -0.0753 X  -0.0254 Y  -0.0018 Z
    Strength   :     0.0005384166
    D(170) --> V(  1) amplitude =  0.9369

 ---------------------------------------------------

                    Orbital Energies (a.u.)
 --------------------------------------------------------------

 Alpha MOs
 -- Occupied --
-10.476 -10.476 -10.474 -10.474 -10.474 -10.473 -10.473 -10.473
-10.473 -10.472 -10.470 -10.470 -10.469 -10.469 -10.469 -10.469
-10.468 -10.468 -10.466 -10.466 -10.466 -10.465 -10.464 -10.464
-10.461 -10.461 -10.460 -10.460 -10.459 -10.458 -10.458 -10.446
-10.445 -10.443 -10.443 -10.442 -10.442 -10.436 -10.436 -10.434
-10.434 -10.434 -10.431 -10.430 -10.413 -10.412 -10.411 -10.411
-10.410 -10.398  -6.957  -6.943  -1.026  -1.026  -0.972  -0.968
 -0.968  -0.942  -0.941  -0.934  -0.918  -0.909  -0.881  -0.880
 -0.865  -0.864  -0.858  -0.855  -0.854  -0.848  -0.832  -0.821
 -0.820  -0.813  -0.790  -0.769  -0.768  -0.763  -0.745  -0.744
 -0.741  -0.735  -0.729  -0.729  -0.697  -0.688  -0.688  -0.675
 -0.657  -0.653  -0.650  -0.649  -0.625  -0.616  -0.602  -0.597
 -0.597  -0.593  -0.590  -0.583  -0.583  -0.560  -0.552  -0.551
 -0.541  -0.534  -0.531  -0.523  -0.523  -0.515  -0.512  -0.505
 -0.501  -0.501  -0.497  -0.496  -0.496  -0.490  -0.489  -0.488
 -0.484  -0.476  -0.474  -0.473  -0.472  -0.469  -0.466  -0.466
 -0.460  -0.458  -0.455  -0.454  -0.451  -0.447  -0.445  -0.441
 -0.440  -0.440  -0.439  -0.434  -0.430  -0.425  -0.421  -0.416
 -0.405  -0.405  -0.405  -0.403  -0.400  -0.399  -0.392  -0.392
 -0.390  -0.389  -0.387  -0.380  -0.365  -0.362  -0.358  -0.356
 -0.353  -0.334  -0.331  -0.325  -0.305  -0.304  -0.293  -0.286
 -0.277  -0.272  -0.268  -0.265  -0.259  -0.237

          Ground-State Mulliken Net Atomic Charges

     Atom                 Charge (a.u.)
  ----------------------------------------
      1 C                    -0.153378
      2 C                    -0.391528
      3 H                     0.274572
      4 C                     0.067967
      5 C                     0.093246
      6 C                    -0.410036
      7 H                     0.243823
      8 C                    -0.155237
      9 C                     0.176528
     10 C                    -0.391665
     11 H                     0.270060
     12 C                    -0.074758
     13 C                     0.214327
     14 C                     0.173641
     15 C                    -0.402791
     16 H                     0.255472
     17 C                    -0.238441
     18 H                     0.268616
     19 C                    -0.349686
     20 H                     0.262518
     21 C                    -0.353308
     22 H                     0.263004
     23 C                    -0.237823
     24 H                     0.263496
     25 B                     0.674503
     26 C                    -0.154578
     27 C                    -0.392735
     28 H                     0.273405
     29 C                     0.068968
     30 C                     0.093489
     31 C                    -0.410840
     32 H                     0.243432
     33 C                    -0.154566
     34 C                     0.175574
     35 C                    -0.390743
     36 H                     0.269918
     37 C                    -0.073655
     38 C                     0.216019
     39 C                     0.171678
     40 C                    -0.402077
     41 H                     0.255670
     42 C                    -0.238812
     43 H                     0.268496
     44 C                    -0.350514
     45 H                     0.262568
     46 C                    -0.237753
     47 H                     0.263714
     48 C                    -0.353774
     49 H                     0.262951
     50 B                     0.668493
     51 C                    -0.263026
     52 C                     0.077609
     53 C                    -0.349063
     54 H                     0.234253
     55 C                     0.106089
     56 C                    -0.360337
     57 H                     0.236436
     58 C                     0.071277
     59 C                    -0.722621
     60 H                     0.241033
     61 H                     0.242263
     62 H                     0.241897
     63 C                    -0.772099
     64 H                     0.260968
     65 H                     0.236775
     66 H                     0.236669
     67 C                    -0.771189
     68 H                     0.260526
     69 H                     0.236134
     70 H                     0.236100
     71 C                    -0.217044
     72 C                     0.044509
     73 C                    -0.375584
     74 H                     0.232672
     75 C                     0.103668
     76 C                    -0.366860
     77 H                     0.231313
     78 C                     0.041728
     79 C                    -0.724270
     80 H                     0.241575
     81 H                     0.241195
     82 H                     0.242703
     83 C                    -0.772211
     84 H                     0.256176
     85 H                     0.244624
     86 H                     0.244467
     87 C                    -0.772803
     88 H                     0.256600
     89 H                     0.245208
     90 H                     0.245193
  ----------------------------------------
  Sum of atomic charges =    -0.000000

                    Cartesian Multipole Moments
 -----------------------------------------------------------------
    Charge (ESU x 10^10)
                -0.0000
    Dipole Moment (Debye)
         X       2.3466      Y      -0.0186      Z       1.3910
       Tot       2.7280
    Quadrupole Moments (Debye-Ang)
        XX    -238.9835     XY       0.7029     YY    -300.8055
        XZ      -7.8629     YZ       0.1006     ZZ    -236.7937

 Total job time:  13302.71s(wall), 43242.90s(cpu)
        *  Thank you very much for using Q-Chem.  Have a nice day.  *
