 Q-Chem 5.1, Q-Chem, Inc., Pleasanton, CA (2018)
 Q-Chem 5.1.1 for Intel X86 EM64T Linux

User input:
--------------------------------------------------------------
$rem
threads 4
jobtype	opt
method PBEh-3c
basis def2-mSVP
mem_static	512
mem_total	6096
sym_ignore	true
scf_convergence 9
$end

$molecule
read gsopt.mol
$end

--------------------------------------------------------------

   17   -3006.3262891420      7.27e-10  Convergence criterion met
 Total energy in the final basis set =    -3006.3262891420
   14   -3006.3262780362      5.61e-10  Convergence criterion met
 Total energy in the final basis set =    -3006.3262780362
   13   -3006.3260407781      9.53e-10  Convergence criterion met
 Total energy in the final basis set =    -3006.3260407781
   13   -3006.3260618039      8.69e-10  Convergence criterion met
 Total energy in the final basis set =    -3006.3260618039
   14   -3006.3259192171      6.25e-10  Convergence criterion met
 Total energy in the final basis set =    -3006.3259192171
   13   -3006.3261913701      6.03e-10  Convergence criterion met
 Total energy in the final basis set =    -3006.3261913701
   13   -3006.3262423472      5.82e-10  Convergence criterion met
 Total energy in the final basis set =    -3006.3262423472
   13   -3006.3262108036      5.42e-10  Convergence criterion met
   11   -3006.3262722879      7.52e-10  Convergence criterion met
 Total energy in the final basis set =    -3006.3262722879
   11   -3006.3262687138      6.76e-10  Convergence criterion met
 Total energy in the final basis set =    -3006.3262687138
   11   -3006.3262622237      5.75e-10  Convergence criterion met
 Total energy in the final basis set =    -3006.3262622237
   10   -3006.3262730218      6.68e-10  Convergence criterion met
 Total energy in the final basis set =    -3006.3262730218
    9   -3006.3262757832      9.83e-10  Convergence criterion met
 Total energy in the final basis set =    -3006.3262757832
    9   -3006.3262738617      6.60e-10  Convergence criterion met
 Total energy in the final basis set =    -3006.3262738617

             Standard Nuclear Orientation (Angstroms)
    I     Atom           X                Y                Z
 ----------------------------------------------------------------
    1      N      -0.0893700524     0.0338530826     0.2091820133
    2      C      -0.2062893741    -0.0319856827     1.6079394506
    3      C       0.9149286763     0.1430368777     2.4177057115
    4      H       1.8804859779     0.3234484055     1.9631851341
    5      C       0.7962980246     0.0849003579     3.7961829664
    6      H       1.6770374360     0.2229745593     4.4097681470
    7      C      -0.4319023218    -0.1669095922     4.3896984429
    8      H      -0.5194696078    -0.2212327661     5.4664143040
    9      C      -1.5473054073    -0.3481700715     3.5849010359
   10      H      -2.5141935671    -0.5378982920     4.0330336583
   11      C      -1.4426660632    -0.2715418557     2.2067082976
   12      H      -2.3211604869    -0.4028469561     1.5881531385
   13      C       0.7156402983     1.0272511043    -0.3756722227
   14      C       1.5603625425     0.7139372078    -1.4394396831
   15      H       1.6007319902    -0.3026848589    -1.8090818456
   16      C       2.3371123883     1.6981724512    -2.0264096952
   17      H       2.9847432378     1.4399066282    -2.8542770266
   18      C       2.3014171351     3.0015753003    -1.5522487280
   19      H       2.9143753306     3.7665869298    -2.0095342532
   20      C       1.4698283943     3.3125095746    -0.4865279544
   21      H       1.4255420779     4.3265280031    -0.1109836382
   22      C       0.6743060758     2.3384297786     0.0936020387
   23      H       0.0154899260     2.5925218942     0.9140036272
   24      C      -0.8088229290    -0.8558232903    -0.6083085470
   25      C      -0.9578363120    -2.1891475060    -0.2468854040
   26      H      -0.4979825629    -2.5519375614     0.6653396727
   27      C      -1.6932475031    -3.0663148800    -1.0354458392
   28      C      -1.3833328624    -0.4160777975    -1.7989204632
   29      H      -1.2701986884     0.6187549830    -2.0986098780
   30      C      -2.0973022021    -1.2859675167    -2.6089074702
   31      C      -2.2759380946    -2.6242583152    -2.2278152322
   32      C      -2.6964132397    -0.7838339572    -3.8943028415
   33      H      -2.3936960057     0.2410344330    -4.1062650874
   34      H      -3.7876975512    -0.8040686141    -3.8643396932
   35      H      -2.3902684285    -1.3970403576    -4.7448202350
   36      C      -1.8876876054    -4.4826790711    -0.5577734051
   37      H      -1.0009319816    -4.8098172708    -0.0089622040
   38      H      -1.9779885799    -5.1627949395    -1.4092637239
   39      C      -3.1157297775    -4.6274658204     0.3387572885
   40      H      -4.0280024291    -4.3513771220    -0.1904722718
   41      H      -3.2306059658    -5.6561297465     0.6820446668
   42      H      -3.0361236290    -3.9877393954     1.2184796507
   43      B      -3.1599493593    -3.5695697334    -3.1197249991
   44      C      -4.7141528275    -3.4816667134    -3.0101757990
   45      C      -5.3136463319    -2.6088201868    -2.0944331292
   46      H      -4.6902889519    -1.9953323164    -1.4532358683
   47      C      -6.6929302958    -2.5318273965    -2.0084800872
   48      C      -7.4952460982    -3.3400351058    -2.8433362088
   49      C      -6.9167839067    -4.2067191407    -3.7477060265
   50      H      -7.5359858645    -4.8247882066    -4.3883028388
   51      C      -5.5275472441    -4.2878027149    -3.8419836102
   52      C      -7.5897736038    -1.7254866202    -1.1726407289
   53      C      -7.4327953487    -0.7764578125    -0.1978853987
   54      H      -6.4541474742    -0.4513804361     0.1321754728
   55      C      -8.9004712710    -2.0853646827    -1.5417690269
   56      C     -10.0561994321    -1.5464680285    -0.9868331202
   57      C      -8.8993231330    -3.0626402502    -2.5522076075
   58      C     -10.0989709246    -3.5231577750    -3.0287007578
   59      H     -10.1558920673    -4.2750234375    -3.8063624982
   60      C      -8.5897353340    -0.2078032029     0.3882339106
   61      H      -8.4611980773     0.5420651087     1.1576338041
   62      C      -9.8634470913    -0.5695606008     0.0180575080
   63      H     -10.7178675920    -0.1055423191     0.4953614696
   64      C     -11.2840909751    -2.0372583129    -1.4938284563
   65      H     -12.2212522900    -1.6590408188    -1.1040146520
   66      C     -11.2910215219    -2.9937234250    -2.4817149564
   67      H     -12.2392752451    -3.3566304467    -2.8566391055
   68      C      -2.5150170436    -4.5741533604    -4.1234023073
   69      C      -1.1229206443    -4.6811177082    -4.2284543303
   70      H      -0.4919195523    -4.0492754584    -3.6130553955
   71      C      -0.5593696137    -5.5918319122    -5.1074003020
   72      C      -1.3949778673    -6.4054268446    -5.9028942066
   73      C      -2.7689178940    -6.2999673958    -5.8187507245
   74      H      -3.4076653404    -6.9226153260    -6.4359644702
   75      C      -3.3436628037    -5.3886539711    -4.9341469684
   76      C       0.8306506402    -5.9378744262    -5.4258541250
   77      C       2.0650365108    -5.5220070899    -5.0047930485
   78      H       2.1842013019    -4.7500924213    -4.2550690245
   79      C       0.7704138496    -6.9495901149    -6.4044775233
   80      C       1.8753663308    -7.5632575016    -6.9816310490
   81      C      -0.5594383273    -7.2685883253    -6.7289626605
   82      C      -0.8017788508    -8.2364921406    -7.6673441454
   83      H      -1.8078098937    -8.5191371379    -7.9527385006
   84      C       3.2124809335    -6.1270508406    -5.5722958421
   85      H       4.1866808469    -5.7965869324    -5.2369068055
   86      C       3.1374882349    -7.1133960732    -6.5274412345
   87      H       4.0454926181    -7.5447576167    -6.9302852533
   88      C       1.6027872309    -8.5608416409    -7.9495122849
   89      H       2.4191036508    -9.0782189302    -8.4383422490
   90      C       0.3038981086    -8.8770087690    -8.2726068951
   91      H       0.1174495977    -9.6421861056    -9.0149114743
   92      B      -4.8897820688    -5.2710021507    -4.8586153786
   93      C      -5.8062244754    -6.1435779737    -5.7926681256
   94      C      -6.2324156606    -5.6642274259    -7.0336796777
   95      C      -7.0432189316    -6.4466855625    -7.8473776433
   96      H      -7.3558629722    -6.0662758772    -8.8137672108
   97      C      -7.4614561383    -7.7052367228    -7.4392873202
   98      C      -7.0475642884    -8.1811407802    -6.1979202549
   99      H      -7.3773695700    -9.1578775930    -5.8635754297
  100      C      -6.2233242041    -7.4199534420    -5.3839827450
  101      N      -8.2984161423    -8.4825359788    -8.2623835186
  102      C      -9.3583292843    -7.8733562712    -8.9532055712
  103      C      -9.6259769928    -8.2095971720   -10.2795286858
  104      H      -9.0078919559    -8.9423726030   -10.7822671101
  105      C     -10.6784007274    -7.6119899100   -10.9528661360
  106      H     -10.8724016712    -7.8851981694   -11.9820910937
  107      C     -11.4668205621    -6.6579743357   -10.3267996389
  108      H     -12.2822813966    -6.1867526150   -10.8588563055
  109      C     -11.1961528091    -6.3153578563    -9.0100148731
  110      H     -11.8067362223    -5.5772001360    -8.5062355834
  111      C     -10.1592646165    -6.9227696637    -8.3222459371
  112      H      -9.9631061948    -6.6596867691    -7.2910291161
  113      C      -8.0677322065    -9.8590847069    -8.4101418801
  114      C      -9.1364099680   -10.7553774589    -8.4373526067
  115      H     -10.1488715349   -10.3863165720    -8.3354745885
  116      C      -8.9081608238   -12.1116383321    -8.5966424172
  117      H      -9.7500935839   -12.7916315843    -8.6166084502
  118      C      -7.6157017578   -12.6025842476    -8.7103599272
  119      H      -7.4409326786   -13.6637315320    -8.8265041547
  120      C      -6.5507776756   -11.7146509867    -8.6725021841
  121      H      -5.5366406153   -12.0812247921    -8.7655431144
  122      C      -6.7702869403   -10.3541155837    -8.5345019908
  123      H      -5.9330777905    -9.6684666638    -8.5226028349
  124      C      -5.7990978768    -7.9553645996    -4.0450713331
  125      H      -6.1841049910    -8.9599201780    -3.8729844612
  126      H      -4.7113585738    -8.0019106818    -3.9586319876
  127      H      -6.1576291538    -7.3223744621    -3.2302819867
  128      C      -5.7801846272    -4.3230846414    -7.5526116339
  129      H      -6.6315902237    -3.7950363929    -7.9904841563
  130      H      -5.4333328035    -3.6908173013    -6.7303388227
  131      C      -4.6726345226    -4.4500624653    -8.5957428198
  132      H      -3.7918075201    -4.9371888495    -8.1771740638
  133      H      -5.0041742724    -5.0411052454    -9.4501561090
  134      H      -4.3675371538    -3.4709379058    -8.9660256568
 ----------------------------------------------------------------

    9   -3006.3262746716      6.22e-10  Convergence criterion met
 Total energy in the final basis set =    -3006.3262746716
 Final energy is   -3006.32627467162
 **  OPTIMIZATION CONVERGED  **

                    Orbital Energies (a.u.)
 --------------------------------------------------------------

 Alpha MOs
 -- Occupied --
-14.668 -14.667 -10.489 -10.489 -10.488 -10.488 -10.483 -10.482
-10.465 -10.465 -10.465 -10.464 -10.464 -10.464 -10.463 -10.463
-10.462 -10.462 -10.462 -10.462 -10.462 -10.461 -10.461 -10.461
-10.460 -10.460 -10.460 -10.460 -10.459 -10.459 -10.454 -10.453
-10.452 -10.451 -10.451 -10.451 -10.448 -10.448 -10.447 -10.447
-10.447 -10.447 -10.447 -10.447 -10.447 -10.446 -10.446 -10.446
-10.444 -10.444 -10.443 -10.443 -10.443 -10.443 -10.443 -10.443
-10.442 -10.442 -10.441 -10.441 -10.434 -10.434 -10.434 -10.433
-10.433 -10.433 -10.433 -10.432 -10.432 -10.431 -10.426 -10.425
-10.420 -10.419 -10.418 -10.418  -6.949  -6.947  -1.078  -1.077
 -1.016  -1.015  -0.963  -0.959  -0.959  -0.959  -0.959  -0.958
 -0.938  -0.938  -0.934  -0.933  -0.908  -0.900  -0.882  -0.881
 -0.863  -0.859  -0.854  -0.852  -0.849  -0.849  -0.847  -0.847
 -0.838  -0.837  -0.836  -0.836  -0.822  -0.815  -0.813  -0.812
 -0.812  -0.804  -0.792  -0.791  -0.764  -0.763  -0.735  -0.730
 -0.727  -0.720  -0.712  -0.711  -0.706  -0.705  -0.698  -0.697
 -0.689  -0.681  -0.680  -0.680  -0.679  -0.674  -0.667  -0.665
 -0.649  -0.647  -0.639  -0.638  -0.634  -0.634  -0.604  -0.604
 -0.595  -0.594  -0.593  -0.589  -0.586  -0.585  -0.584  -0.575
 -0.574  -0.561  -0.561  -0.552  -0.551  -0.543  -0.543  -0.541
 -0.540  -0.537  -0.528  -0.525  -0.522  -0.521  -0.516  -0.511
 -0.509  -0.508  -0.503  -0.500  -0.499  -0.498  -0.496  -0.495
 -0.495  -0.493  -0.491  -0.489  -0.484  -0.484  -0.483  -0.483
 -0.483  -0.481  -0.481  -0.481  -0.479  -0.476  -0.475  -0.471
 -0.468  -0.468  -0.466  -0.460  -0.455  -0.452  -0.448  -0.445
 -0.441  -0.441  -0.439  -0.436  -0.430  -0.429  -0.428  -0.426
 -0.425  -0.424  -0.423  -0.421  -0.419  -0.419  -0.416  -0.412
 -0.411  -0.410  -0.404  -0.403  -0.399  -0.398  -0.398  -0.397
 -0.396  -0.395  -0.395  -0.394  -0.393  -0.391  -0.389  -0.386
 -0.378  -0.374  -0.373  -0.367  -0.356  -0.355  -0.351  -0.350
 -0.342  -0.339  -0.318  -0.312  -0.302  -0.302  -0.298  -0.297
 -0.295  -0.294  -0.294  -0.293  -0.284  -0.282  -0.279  -0.273
 -0.272  -0.262  -0.256  -0.255  -0.219  -0.218

          Ground-State Mulliken Net Atomic Charges

     Atom                 Charge (a.u.)
  ----------------------------------------
      1 N                    -0.675401
      2 C                     0.293945
      3 C                    -0.277830
      4 H                     0.244683
      5 C                    -0.214056
      6 H                     0.220161
      7 C                    -0.237771
      8 H                     0.217540
      9 C                    -0.213906
     10 H                     0.218926
     11 C                    -0.276362
     12 H                     0.240872
     13 C                     0.282891
     14 C                    -0.270181
     15 H                     0.242051
     16 C                    -0.214561
     17 H                     0.219858
     18 C                    -0.236173
     19 H                     0.218190
     20 C                    -0.215184
     21 H                     0.220557
     22 C                    -0.273588
     23 H                     0.243933
     24 C                     0.314364
     25 C                    -0.358976
     26 H                     0.234593
     27 C                     0.080685
     28 C                    -0.366520
     29 H                     0.236327
     30 C                     0.055232
     31 C                    -0.222139
     32 C                    -0.760887
     33 H                     0.239689
     34 H                     0.247891
     35 H                     0.243795
     36 C                    -0.550077
     37 H                     0.231050
     38 H                     0.250996
     39 C                    -0.645234
     40 H                     0.240593
     41 H                     0.219297
     42 H                     0.217148
     43 B                     0.686701
     44 C                    -0.150511
     45 C                    -0.399390
     46 H                     0.237259
     47 C                     0.109310
     48 C                     0.089325
     49 C                    -0.381208
     50 H                     0.230395
     51 C                    -0.158014
     52 C                     0.198877
     53 C                    -0.386348
     54 H                     0.218154
     55 C                    -0.063714
     56 C                     0.252057
     57 C                     0.197433
     58 C                    -0.377182
     59 H                     0.217102
     60 C                    -0.202806
     61 H                     0.226325
     62 C                    -0.336542
     63 H                     0.220623
     64 C                    -0.332611
     65 H                     0.220307
     66 C                    -0.205234
     67 H                     0.226357
     68 C                    -0.157783
     69 C                    -0.391634
     70 H                     0.229815
     71 C                     0.114620
     72 C                     0.086633
     73 C                    -0.391217
     74 H                     0.233944
     75 C                    -0.145038
     76 C                     0.196795
     77 C                    -0.386000
     78 H                     0.219027
     79 C                    -0.063170
     80 C                     0.253409
     81 C                     0.197405
     82 C                    -0.376758
     83 H                     0.217554
     84 C                    -0.202618
     85 H                     0.226407
     86 C                    -0.337524
     87 H                     0.220680
     88 C                    -0.332685
     89 H                     0.220365
     90 C                    -0.205679
     91 H                     0.226446
     92 B                     0.684483
     93 C                    -0.232450
     94 C                     0.077938
     95 C                    -0.354992
     96 H                     0.233399
     97 C                     0.307845
     98 C                    -0.358502
     99 H                     0.233639
    100 C                     0.062694
    101 N                    -0.675572
    102 C                     0.289695
    103 C                    -0.277744
    104 H                     0.245127
    105 C                    -0.214287
    106 H                     0.220291
    107 C                    -0.237179
    108 H                     0.217638
    109 C                    -0.213786
    110 H                     0.218041
    111 C                    -0.271493
    112 H                     0.239045
    113 C                     0.295709
    114 C                    -0.279233
    115 H                     0.245105
    116 C                    -0.213514
    117 H                     0.220116
    118 C                    -0.238061
    119 H                     0.217436
    120 C                    -0.212854
    121 H                     0.217668
    122 C                    -0.275584
    123 H                     0.239118
    124 C                    -0.760108
    125 H                     0.239114
    126 H                     0.244341
    127 H                     0.244687
    128 C                    -0.551537
    129 H                     0.234771
    130 H                     0.252120
    131 C                    -0.640170
    132 H                     0.235396
    133 H                     0.216024
    134 H                     0.219541
  ----------------------------------------
  Sum of atomic charges =    -0.000000

                    Cartesian Multipole Moments
 -----------------------------------------------------------------
    Charge (ESU x 10^10)
                -0.0000
    Dipole Moment (Debye)
         X       0.0619      Y       0.0888      Z      -0.0544
       Tot       0.1212
    Quadrupole Moments (Debye-Ang)
        XX    -397.7834     XY     -10.2412     YY    -426.9599
        XZ      -9.6467     YZ      21.1488     ZZ    -427.6417

 Total job time:  53846.13s(wall), 211141.18s(cpu)
        *  Thank you very much for using Q-Chem.  Have a nice day.  *
