 Q-Chem 5.0, Q-Chem, Inc., Pleasanton, CA (2017)
 Q-Chem 5.0.1 for Intel X86 EM64T Linux

User input:
--------------------------------------------------------------
$rem
threads 8
jobtype	sp
method PBEh-3c
basis def2-mSVP
mem_static	1024
mem_total	14000
sym_ignore	true
cis_n_roots             6
cis_singlets            true
cis_triplets		true
rpa                     false
calc_soc 		true
cis_moments             true
cis_relaxed_density	true
$end

$molecule
read gsopt.mol
$end

--------------------------------------------------------------

             Standard Nuclear Orientation (Angstroms)
    I     Atom           X                Y                Z
 ----------------------------------------------------------------
    1      N       0.0000000000     0.0000000000     0.0000000000
    2      C       0.0000000000     0.0000000000     1.4044830000
    3      C       1.2024031783     0.0000000000     2.1105539064
    4      H       2.1415901069    -0.0087230669     1.5726929769
    5      C       1.2006036241     0.0165466719     3.4952398763
    6      H       2.1435922462     0.0186649721     4.0266234999
    7      C       0.0061327530     0.0118743932     4.1997540496
    8      H       0.0080869050     0.0175089193     5.2815046103
    9      C      -1.1916096697     0.0008517531     3.4996581433
   10      H      -2.1318621824     0.0053157065     4.0358236006
   11      C      -1.1999675209     0.0056842732     2.1149177979
   12      H      -2.1398358845     0.0140039674     1.5782158875
   13      C       0.9540417173     0.7723896074    -0.6848236774
   14      C       1.6693835010     0.2432623954    -1.7573404039
   15      H       1.4869402386    -0.7757488908    -2.0722105047
   16      C       2.6098758418     1.0170597576    -2.4176459372
   17      H       3.1565841296     0.5922293743    -3.2495167068
   18      C       2.8669865237     2.3179232794    -2.0107637390
   19      H       3.6078138703     2.9157964700    -2.5244663849
   20      C       2.1617864707     2.8436227271    -0.9379101934
   21      H       2.3459629241     3.8594789807    -0.6128039923
   22      C       1.2054078374     2.0847273492    -0.2853821852
   23      H       0.6512347564     2.5068203883     0.5432812792
   24      C      -0.8617639934    -0.8507872250    -0.7145974839
   25      C      -1.1503329768    -2.1270806300    -0.2532516125
   26      H      -0.7122648926    -2.4736178976     0.6763769469
   27      C      -1.9820698047    -2.9761889979    -0.9745634928
   28      C      -1.4301405578    -0.4264283488    -1.9139355003
   29      H      -1.2219285334     0.5731379396    -2.2771831491
   30      C      -2.2372039578    -1.2722793354    -2.6574261868
   31      C      -2.5202080709    -2.5681114835    -2.1975099005
   32      C      -2.8147952035    -0.7922680760    -3.9598575357
   33      H      -2.4617082298     0.2072243633    -4.2112796353
   34      H      -3.9056176293    -0.7571558260    -3.9255335136
   35      H      -2.5422233201    -1.4522069148    -4.7866688840
   36      C      -2.3042737748    -4.3241958596    -0.3838173603
   37      H      -1.3995207342    -4.7655444790     0.0429323823
   38      H      -2.6346157462    -5.0187168232    -1.1610937913
   39      C      -3.3767255109    -4.2271595360     0.6989152354
   40      H      -4.3067254704    -3.8253459134     0.2956424342
   41      H      -3.5952127052    -5.2064793083     1.1257806554
   42      H      -3.0558652535    -3.5725508171     1.5103770076
   43      B      -3.3792760667    -3.5418260396    -3.0833046221
   44      C      -4.9290248923    -3.5085548653    -3.0302967848
   45      C      -5.5729068430    -2.6586340128    -2.1295609925
   46      H      -4.9848862510    -2.0104729447    -1.4878870118
   47      C      -6.9522193382    -2.6499628539    -2.0581123721
   48      C      -7.7174456964    -3.4915619978    -2.8950065434
   49      C      -7.0869550183    -4.3280068557    -3.7981779540
   50      H      -7.6684284791    -4.9715308866    -4.4479249249
   51      C      -5.6910913385    -4.3466441106    -3.8776606943
   52      C      -7.8661921999    -1.8787669016    -1.2162745682
   53      C      -7.7232135374    -0.9270471338    -0.2406374885
   54      H      -6.7503633029    -0.5725627229     0.0773960132
   55      C      -9.1631368629    -2.2857522748    -1.5773904439
   56      C     -10.3255058150    -1.7808498466    -1.0048217763
   57      C      -9.1325347177    -3.2613454502    -2.5912715480
   58      C     -10.3238721055    -3.7538593083    -3.0537827562
   59      H     -10.3681936668    -4.5047768102    -3.8322882746
   60      C      -8.8880949740    -0.3962763399     0.3617925104
   61      H      -8.7751109950     0.3552044916     1.1325242006
   62      C     -10.1522283312    -0.7997866160     0.0017340919
   63      H     -11.0155776030    -0.3645930003     0.4901745928
   64      C     -11.5415550300    -2.3073585877    -1.5008029346
   65      H     -12.4859470198    -1.9587936192    -1.1009215213
   66      C     -11.5255129282    -3.2606139327    -2.4914563344
   67      H     -12.4657215986    -3.6509690304    -2.8579413603
   68      C      -2.6692954897    -4.5485890836    -4.0346987222
   69      C      -1.2764103730    -4.6284427542    -4.0374778822
   70      H      -0.7009970973    -3.9840052056    -3.3820398018
   71      C      -0.6390301529    -5.5304620066    -4.8662213781
   72      C      -1.3829847231    -6.3654773895    -5.7274549449
   73      C      -2.7647352852    -6.2813148983    -5.7414399777
   74      H      -3.3459769109    -6.9103994568    -6.4068057059
   75      C      -3.4230220669    -5.3825154718    -4.8948905663
   76      C       0.7790729953    -5.8232968500    -5.0440427088
   77      C       1.9406003901    -5.3528936864    -4.4912407016
   78      H       1.9423602225    -4.5777626854    -3.7345019357
   79      C       0.8488912562    -6.8339518874    -6.0192993711
   80      C       2.0365960159    -7.3972173278    -6.4688633692
   81      C      -0.4338683046    -7.2006783740    -6.4698412391
   82      C      -0.5297391512    -8.1805138721    -7.4210649068
   83      H      -1.4860541855    -8.5097561596    -7.8073860963
   84      C       3.1654110989    -5.9071556428    -4.9299865127
   85      H       4.0857042539    -5.5390527257    -4.4954580426
   86      C       3.2255589903    -6.8949731886    -5.8851098657
   87      H       4.1870263175    -7.2899030908    -6.1893226818
   88      C       1.9080368497    -8.4060294027    -7.4531481464
   89      H       2.7905621568    -8.8904145740    -7.8523355798
   90      C       0.6617701613    -8.7734852778    -7.9038690592
   91      H       0.5836492158    -9.5470275257    -8.6563010939
   92      B      -4.9769209761    -5.2845208714    -4.8956921493
   93      C      -5.8416988787    -6.1322273278    -5.8963286815
   94      C      -6.3303740815    -5.5746497806    -7.0830053810
   95      C      -7.1137195551    -6.3382870006    -7.9390600833
   96      H      -7.4824002932    -5.9044891402    -8.8616646913
   97      C      -7.4469684155    -7.6473572637    -7.6180308613
   98      C      -6.9794370622    -8.1956603199    -6.4285142169
   99      H      -7.2540985954    -9.2096758522    -6.1633087051
  100      C      -6.1746171624    -7.4553440921    -5.5754725412
  101      N      -8.2672853657    -8.4058813788    -8.4761400405
  102      C      -9.4686370019    -7.8561956284    -8.9460825798
  103      C      -9.9204920540    -8.1299286874   -10.2366076516
  104      H      -9.3372292074    -8.7716020470   -10.8842291152
  105      C     -11.1081990590    -7.5809085695   -10.6897977093
  106      H     -11.4441867891    -7.8036814734   -11.6942017437
  107      C     -11.8542915609    -6.7372174038    -9.8797177148
  108      H     -12.7763744695    -6.3032099457   -10.2420506480
  109      C     -11.4011133468    -6.4567282800    -8.5992470679
  110      H     -11.9735453602    -5.8051759188    -7.9514910368
  111      C     -10.2259442406    -7.0166664675    -8.1287908068
  112      H      -9.8893605158    -6.8009348265    -7.1229597712
  113      C      -7.9234165941    -9.7385775894    -8.7483961006
  114      C      -8.8888288439   -10.7441729223    -8.7496525145
  115      H      -9.9223082627   -10.4971799212    -8.5437069187
  116      C      -8.5275167872   -12.0567203056    -9.0047455922
  117      H      -9.2894928309   -12.8253361495    -8.9994585630
  118      C      -7.2029490224   -12.3934394147    -9.2415901411
  119      H      -6.9243974682   -13.4213880279    -9.4301552290
  120      C      -6.2396832323   -11.3948704136    -9.2305745733
  121      H      -5.2020876777   -11.6396874213    -9.4175997603
  122      C      -6.5935268657   -10.0775103494    -8.9965589310
  123      H      -5.8373140896    -9.3029632520    -8.9977698187
  124      C      -5.6935217608    -8.0544443855    -4.2821733619
  125      H      -6.0948248361    -9.0551436801    -4.1261662162
  126      H      -4.6044411121    -8.1297314615    -4.2530953747
  127      H      -5.9916316139    -7.4449499426    -3.4258022155
  128      C      -5.9729013124    -4.1621990364    -7.4701124213
  129      H      -6.7727679480    -3.7383813154    -8.0822692574
  130      H      -5.9177177378    -3.5320393263    -6.5773183818
  131      C      -4.6536857417    -4.0736072729    -8.2345089950
  132      H      -3.8188849266    -4.4327530351    -7.6329138320
  133      H      -4.6879438763    -4.6721078480    -9.1452884826
  134      H      -4.4367681760    -3.0432068020    -8.5182980181
 ----------------------------------------------------------------

   15   -3006.3264623493      6.20E-09 Convergence criterion met
 Total energy in the final basis set = -3006.32646235

         TDDFT/TDA Excitation Energies
 ---------------------------------------------------

 Excited state   1: excitation energy (eV) =    2.3487
 Total energy for state  1:                 -3006.24014884 au
    Multiplicity: Triplet
    Trans. Mom.:  0.0000 X   0.0000 Y   0.0000 Z
    Strength   :     0.0000000000
    D(255) --> V(  2) amplitude =  0.2682
    D(259) --> V(  1) amplitude =  0.8289
    D(260) --> V(  1) amplitude = -0.3706

 Excited state   2: excitation energy (eV) =    2.4820
 Total energy for state  2:                 -3006.23524955 au
    Multiplicity: Triplet
    Trans. Mom.:  0.0000 X   0.0000 Y   0.0000 Z
    Strength   :     0.0000000000
    D(261) --> V(  1) amplitude = -0.4054
    D(262) --> V(  1) amplitude =  0.8043

 Excited state   3: excitation energy (eV) =    2.5060
 Total energy for state  3:                 -3006.23436950 au
    Multiplicity: Triplet
    Trans. Mom.:  0.0000 X   0.0000 Y   0.0000 Z
    Strength   :     0.0000000000
    D(258) --> V(  2) amplitude =  0.4831
    D(259) --> V(  1) amplitude =  0.3142
    D(260) --> V(  1) amplitude =  0.6674
    D(261) --> V(  1) amplitude =  0.2650

 Excited state   4: excitation energy (eV) =    2.5173
 Total energy for state  4:                 -3006.23395399 au
    Multiplicity: Singlet
    Trans. Mom.:  0.0028 X  -0.0452 Y  -0.0110 Z
    Strength   :     0.0001339200
    D(261) --> V(  1) amplitude = -0.5559
    D(262) --> V(  1) amplitude =  0.7928

 Excited state   5: excitation energy (eV) =    2.5418
 Total energy for state  5:                 -3006.23305349 au
    Multiplicity: Triplet
    Trans. Mom.:  0.0000 X   0.0000 Y   0.0000 Z
    Strength   :     0.0000000000
    D(258) --> V(  1) amplitude = -0.3178
    D(260) --> V(  2) amplitude = -0.2520
    D(261) --> V(  1) amplitude =  0.7849
    D(262) --> V(  1) amplitude =  0.3246

 Excited state   6: excitation energy (eV) =    2.5610
 Total energy for state  6:                 -3006.23234741 au
    Multiplicity: Triplet
    Trans. Mom.:  0.0000 X   0.0000 Y   0.0000 Z
    Strength   :     0.0000000000
    D(258) --> V(  1) amplitude =  0.6142
    D(258) --> V(  4) amplitude = -0.2190
    D(260) --> V(  2) amplitude =  0.4600
    D(261) --> V(  1) amplitude =  0.2821
    D(262) --> V(  1) amplitude =  0.3827

 Excited state   7: excitation energy (eV) =    2.5640
 Total energy for state  7:                 -3006.23223873 au
    Multiplicity: Singlet
    Trans. Mom.:  0.3147 X   0.2538 Y   0.2600 Z
    Strength   :     0.0145122918
    D(261) --> V(  1) amplitude =  0.7994
    D(262) --> V(  1) amplitude =  0.5571

 Excited state   8: excitation energy (eV) =    2.7730
 Total energy for state  8:                 -3006.22455625 au
    Multiplicity: Triplet
    Trans. Mom.:  0.0000 X   0.0000 Y   0.0000 Z
    Strength   :     0.0000000000
    D(255) --> V(  1) amplitude =  0.6713
    D(259) --> V(  2) amplitude =  0.5411

 Excited state   9: excitation energy (eV) =    3.0293
 Total energy for state  9:                 -3006.21513753 au
    Multiplicity: Singlet
    Trans. Mom.: -0.0939 X   0.0488 Y   0.0341 Z
    Strength   :     0.0009178120
    D(259) --> V(  1) amplitude =  0.8903
    D(260) --> V(  1) amplitude = -0.3676

 Excited state  10: excitation energy (eV) =    3.3214
 Total energy for state 10:                 -3006.20440149 au
    Multiplicity: Singlet
    Trans. Mom.:  2.8302 X  -1.2814 Y  -1.2516 Z
    Strength   :     0.9128969003
    D(259) --> V(  1) amplitude =  0.3604
    D(260) --> V(  1) amplitude =  0.8723

 Excited state  11: excitation energy (eV) =    3.6276
 Total energy for state 11:                 -3006.19314981 au
    Multiplicity: Singlet
    Trans. Mom.: -0.0450 X  -0.0010 Y   0.0360 Z
    Strength   :     0.0002948931
    D(261) --> V(  2) amplitude = -0.4504
    D(262) --> V(  2) amplitude =  0.8856

 Excited state  12: excitation energy (eV) =    3.6511
 Total energy for state 12:                 -3006.19228664 au
    Multiplicity: Singlet
    Trans. Mom.: -0.0692 X  -0.0386 Y  -0.0390 Z
    Strength   :     0.0006970032
    D(261) --> V(  2) amplitude =  0.8863
    D(262) --> V(  2) amplitude =  0.4505

 ---------------------------------------------------

                    Orbital Energies (a.u.)
 --------------------------------------------------------------

 Alpha MOs
 -- Occupied --
-14.668 -14.667 -10.489 -10.489 -10.488 -10.488 -10.483 -10.481
-10.465 -10.465 -10.465 -10.465 -10.465 -10.465 -10.463 -10.463
-10.463 -10.463 -10.462 -10.462 -10.462 -10.462 -10.461 -10.461
-10.461 -10.460 -10.460 -10.460 -10.460 -10.460 -10.454 -10.453
-10.453 -10.452 -10.451 -10.451 -10.449 -10.449 -10.447 -10.447
-10.447 -10.447 -10.447 -10.446 -10.446 -10.446 -10.446 -10.446
-10.444 -10.444 -10.444 -10.443 -10.442 -10.442 -10.442 -10.442
-10.442 -10.442 -10.441 -10.440 -10.435 -10.435 -10.434 -10.434
-10.434 -10.433 -10.433 -10.433 -10.433 -10.432 -10.427 -10.426
-10.420 -10.420 -10.419 -10.418  -6.949  -6.948  -1.078  -1.078
 -1.016  -1.016  -0.964  -0.960  -0.959  -0.959  -0.958  -0.958
 -0.939  -0.938  -0.934  -0.934  -0.909  -0.901  -0.882  -0.882
 -0.863  -0.860  -0.854  -0.853  -0.850  -0.849  -0.848  -0.847
 -0.838  -0.837  -0.836  -0.835  -0.822  -0.816  -0.814  -0.812
 -0.812  -0.805  -0.792  -0.791  -0.765  -0.764  -0.735  -0.731
 -0.727  -0.721  -0.712  -0.712  -0.707  -0.705  -0.698  -0.698
 -0.689  -0.681  -0.681  -0.680  -0.679  -0.674  -0.667  -0.665
 -0.650  -0.648  -0.639  -0.638  -0.635  -0.634  -0.605  -0.605
 -0.596  -0.594  -0.593  -0.590  -0.586  -0.585  -0.584  -0.576
 -0.575  -0.562  -0.560  -0.552  -0.552  -0.544  -0.544  -0.541
 -0.541  -0.537  -0.529  -0.525  -0.522  -0.520  -0.516  -0.511
 -0.509  -0.508  -0.503  -0.501  -0.499  -0.497  -0.496  -0.496
 -0.495  -0.493  -0.492  -0.489  -0.485  -0.484  -0.484  -0.483
 -0.482  -0.481  -0.481  -0.480  -0.479  -0.477  -0.475  -0.472
 -0.469  -0.469  -0.467  -0.461  -0.456  -0.453  -0.448  -0.445
 -0.441  -0.441  -0.440  -0.437  -0.431  -0.429  -0.428  -0.426
 -0.425  -0.424  -0.423  -0.421  -0.420  -0.419  -0.417  -0.412
 -0.411  -0.410  -0.405  -0.403  -0.400  -0.399  -0.398  -0.397
 -0.395  -0.395  -0.395  -0.394  -0.392  -0.391  -0.388  -0.387
 -0.379  -0.376  -0.374  -0.367  -0.357  -0.355  -0.352  -0.351
 -0.343  -0.340  -0.318  -0.313  -0.303  -0.300  -0.298  -0.297
 -0.296  -0.295  -0.294  -0.292  -0.284  -0.282  -0.280  -0.274
 -0.273  -0.262  -0.257  -0.256  -0.219  -0.218

          Ground-State Mulliken Net Atomic Charges

     Atom                 Charge (a.u.)
  ----------------------------------------
      1 N                    -0.674453
      2 C                     0.289810
      3 C                    -0.278901
      4 H                     0.245710
      5 C                    -0.213578
      6 H                     0.220385
      7 C                    -0.237473
      8 H                     0.217786
      9 C                    -0.214398
     10 H                     0.219019
     11 C                    -0.273024
     12 H                     0.240558
     13 C                     0.284236
     14 C                    -0.271967
     15 H                     0.239722
     16 C                    -0.214579
     17 H                     0.219617
     18 C                    -0.236594
     19 H                     0.218102
     20 C                    -0.214302
     21 H                     0.220554
     22 C                    -0.272899
     23 H                     0.244597
     24 C                     0.316031
     25 C                    -0.359475
     26 H                     0.235168
     27 C                     0.077206
     28 C                    -0.364194
     29 H                     0.234890
     30 C                     0.059996
     31 C                    -0.228316
     32 C                    -0.761208
     33 H                     0.239847
     34 H                     0.244820
     35 H                     0.244810
     36 C                    -0.547165
     37 H                     0.231574
     38 H                     0.251909
     39 C                    -0.638521
     40 H                     0.231219
     41 H                     0.219964
     42 H                     0.218135
     43 B                     0.683614
     44 C                    -0.149052
     45 C                    -0.394545
     46 H                     0.232261
     47 C                     0.091352
     48 C                     0.107639
     49 C                    -0.383237
     50 H                     0.230555
     51 C                    -0.153286
     52 C                     0.199312
     53 C                    -0.380679
     54 H                     0.218441
     55 C                    -0.063822
     56 C                     0.252261
     57 C                     0.197237
     58 C                    -0.382750
     59 H                     0.216665
     60 C                    -0.204288
     61 H                     0.226730
     62 C                    -0.333358
     63 H                     0.220589
     64 C                    -0.335851
     65 H                     0.220745
     66 C                    -0.203213
     67 H                     0.226267
     68 C                    -0.158016
     69 C                    -0.379178
     70 H                     0.230348
     71 C                     0.092155
     72 C                     0.108501
     73 C                    -0.398802
     74 H                     0.233272
     75 C                    -0.148823
     76 C                     0.196020
     77 C                    -0.376840
     78 H                     0.218106
     79 C                    -0.063685
     80 C                     0.253701
     81 C                     0.197531
     82 C                    -0.385187
     83 H                     0.217578
     84 C                    -0.205603
     85 H                     0.226793
     86 C                    -0.333267
     87 H                     0.220416
     88 C                    -0.337304
     89 H                     0.220701
     90 C                    -0.202663
     91 H                     0.226138
     92 B                     0.682236
     93 C                    -0.218136
     94 C                     0.078160
     95 C                    -0.349874
     96 H                     0.230508
     97 C                     0.288211
     98 C                    -0.350072
     99 H                     0.232671
    100 C                     0.058049
    101 N                    -0.673252
    102 C                     0.302592
    103 C                    -0.280429
    104 H                     0.245353
    105 C                    -0.214133
    106 H                     0.219584
    107 C                    -0.238969
    108 H                     0.216626
    109 C                    -0.211830
    110 H                     0.216220
    111 C                    -0.280238
    112 H                     0.240186
    113 C                     0.297504
    114 C                    -0.282613
    115 H                     0.245871
    116 C                    -0.214358
    117 H                     0.219888
    118 C                    -0.238252
    119 H                     0.216949
    120 C                    -0.212257
    121 H                     0.216781
    122 C                    -0.274842
    123 H                     0.240138
    124 C                    -0.761716
    125 H                     0.239761
    126 H                     0.246079
    127 H                     0.245162
    128 C                    -0.552794
    129 H                     0.233423
    130 H                     0.252426
    131 C                    -0.646048
    132 H                     0.243613
    133 H                     0.217027
    134 H                     0.218700
  ----------------------------------------
  Sum of atomic charges =    -0.000000

                    Cartesian Multipole Moments
 -----------------------------------------------------------------
    Charge (ESU x 10^10)
                -0.0000
    Dipole Moment (Debye)
         X       0.3667      Y       0.0711      Z       0.5928
       Tot       0.7006
    Quadrupole Moments (Debye-Ang)
        XX    -397.7077     XY     -12.1503     YY    -430.0058
        XZ     -14.3661     YZ      17.9907     ZZ    -435.1128

 Total job time:  19751.93s(wall), 57209.61s(cpu)
        *  Thank you very much for using Q-Chem.  Have a nice day.  *
