 Q-Chem 5.0, Q-Chem, Inc., Pleasanton, CA (2017)
 Q-Chem 5.0.1 for Intel X86 EM64T Linux

User input:
--------------------------------------------------------------
$rem
threads 8
jobtype	opt
method PBEh-3c
basis def2-mSVP
mem_static	512
mem_total	6096
sym_ignore	true
$end

$molecule
read incoords.mol
$end

--------------------------------------------------------------

   15   -3006.2702420760      5.42E-09 Convergence criterion met
 Total energy in the final basis set = -3006.27024208
   12   -3006.3069661282      8.14E-09 Convergence criterion met
 Total energy in the final basis set = -3006.30696613
   12   -3006.3189930784      7.72E-09 Convergence criterion met
 Total energy in the final basis set = -3006.31899308
   12   -3006.3233719869      7.78E-09 Convergence criterion met
 Total energy in the final basis set = -3006.32337199
   12   -3006.3245668806      9.86E-09 Convergence criterion met
 Total energy in the final basis set = -3006.32456688
   12   -3006.3249166136      6.22E-09 Convergence criterion met
 Total energy in the final basis set = -3006.32491661
   12   -3006.3253822523      6.73E-09 Convergence criterion met
 Total energy in the final basis set = -3006.32538225
   12   -3006.3257003909      7.24E-09 Convergence criterion met
   11   -3006.3264131076      6.70E-09 Convergence criterion met
 Total energy in the final basis set = -3006.32641311
   11   -3006.3264311928      5.61E-09 Convergence criterion met
 Total energy in the final basis set = -3006.32643119
   10   -3006.3264651005      9.78E-09 Convergence criterion met
 Total energy in the final basis set = -3006.32646510
   10   -3006.3264883421      7.11E-09 Convergence criterion met
 Total energy in the final basis set = -3006.32648834
    9   -3006.3264987897      9.96E-09 Convergence criterion met
 Total energy in the final basis set = -3006.32649879
    9   -3006.3264965219      8.53E-09 Convergence criterion met
 Total energy in the final basis set = -3006.32649652

             Standard Nuclear Orientation (Angstroms)
    I     Atom           X                Y                Z
 ----------------------------------------------------------------
    1      C      -4.7521522544    -0.1710542294     4.4263450821
    2      C      -5.4082626041    -0.7702771433     3.3614815748
    3      C      -4.7075371224    -1.0741851724     2.1863029664
    4      C      -3.3453336227    -0.7647934094     2.1052090714
    5      C      -2.7093853255    -0.1409398424     3.1710313021
    6      C      -3.4032374244     0.1553597765     4.3366023709
    7      N      -2.7444710869     0.7601847121     5.4251073598
    8      C      -6.8624055210    -1.1367410492     3.4805221188
    9      C      -2.5667315591    -1.0568228612     0.8477699908
   10      C      -1.5306243957     0.2257058032     5.8802510206
   11      C      -0.5176276008     1.0596154428     6.3524680964
   12      C      -4.0423789774     2.8048661638     5.3882477043
   13      C      -3.3746922668     1.8127380225     6.1058429332
   14      C      -4.6973621109     3.8272959341     6.0523569248
   15      C      -4.6831256247     3.8919793241     7.4382703368
   16      C      -4.0112038992     2.9115393227     8.1532623761
   17      C      -3.3696972241     1.8731806323     7.4985261053
   18      C      -1.3156219519    -1.1525321562     5.8573391268
   19      C      -0.1097956147    -1.6793857552     6.2866281511
   20      C       0.8934613451    -0.8496692662     6.7648485234
   21      C       0.6770470177     0.5202592278     6.7988991995
   22      C      -6.8778749469    -1.6831564950    -1.1237585027
   23      C      -6.2882787874    -1.0054558877    -0.0298824444
   24      B      -5.4467480607    -1.8044817369     1.0081880679
   25      C      -5.3483493808    -3.3546019070     0.8920575309
   26      C      -5.9310815272    -4.0214232475    -0.2110909765
   27      B      -6.7008672517    -3.2202682178    -1.2933194849
   28      C      -4.6830196179    -4.0926442056     1.8757908773
   29      C      -4.5951758550    -5.4686632519     1.7674784364
   30      C      -5.1703893867    -6.1284212624     0.6592805927
   31      C      -5.8281232065    -5.4092078393    -0.3193924319
   32      C      -7.6258438936    -0.9686285222    -2.0599775259
   33      C      -7.8018691185     0.3925053351    -1.9081973797
   34      C      -7.2170521209     1.0762140393    -0.8205513830
   35      C      -6.4607830667     0.3766068239     0.1041754107
   36      C      -3.2793595612    -6.4754739439     3.8027740159
   37      C      -2.8249770124    -7.7075530416     4.3309401304
   38      C      -3.0561083321    -8.9101468904     3.7058845530
   39      C      -3.7728323536    -8.9483236187     2.4865264961
   40      C      -4.2055661562    -7.7218666756     1.9941767297
   41      C      -3.9762508375    -6.4842512859     2.6237755595
   42      C      -4.0983826006   -10.0854316870     1.7076370284
   43      C      -4.8030313262    -9.9405710647     0.5358945343
   44      C      -5.2284411381    -8.6783817265     0.0589313609
   45      C      -4.9260275815    -7.5637591239     0.7966606500
   46      C      -7.8877125875     4.8498478566    -0.6586723454
   47      C      -7.3336255387     3.6266241491    -0.2102077358
   48      C      -7.5810064097     2.4918360373    -0.9348828942
   49      C      -8.3772228644     2.6011400734    -2.0911873943
   50      C      -8.9385056017     3.7836282248    -2.5567002998
   51      C      -8.6650704851     4.9410676878    -1.7894896766
   52      C      -8.5420786958     1.3535433406    -2.7186815461
   53      C      -9.2985402942     1.2783603719    -3.8580363485
   54      C      -9.8820639380     2.4664063171    -4.3559432214
   55      C      -9.7154509768     3.6832542129    -3.7369255188
   56      C      -9.1585133558    -4.8775197675    -3.7817684365
   57      C      -8.6349750047    -4.3272719924    -2.6172100126
   58      C      -7.2944592626    -3.9381779778    -2.5594171755
   59      C      -6.4828780162    -4.1539715427    -3.6843900658
   60      C      -7.0111342625    -4.7300227272    -4.8283764750
   61      C      -8.3582567185    -5.0794340753    -4.8970517742
   62      N      -8.8915468697    -5.6113663561    -6.0843915339
   63      C      -9.5446986511    -4.1952705009    -1.4235199625
   64      C      -5.0308769626    -3.7654333391    -3.6514924931
   65      C      -8.5174588806    -5.0725092737    -7.3275553433
   66      C      -8.3791328701    -3.6966822607    -7.5006126426
   67      C     -11.0024192168    -6.5184125267    -6.8728682782
   68      C      -9.8877327969    -6.6003760769    -6.0391624736
   69      C     -11.9756021221    -7.5029801923    -6.8385968231
   70      C     -11.8677505430    -8.5719922963    -5.9618394684
   71      C     -10.7650389687    -8.6501684269    -5.1235321115
   72      C      -9.7762403069    -7.6816077065    -5.1655606438
   73      C      -8.2912367013    -5.9172952234    -8.4138932634
   74      C      -7.9478079277    -5.3930153638    -9.6482195999
   75      C      -7.8023991596    -4.0236244614    -9.8164674183
   76      C      -8.0148334979    -3.1823510037    -8.7343233322
   77      H      -5.2929057776     0.0388592707     5.3415069865
   78      H      -1.6559121020     0.1048654638     3.0997614672
   79      H      -7.0213727507    -2.2013169545     3.2930837966
   80      H      -7.4756455884    -0.5933630197     2.7585202377
   81      H      -7.2545777477    -0.9178782580     4.4730351611
   82      H      -2.9218597639    -1.9876549232     0.3953723070
   83      H      -1.5181679195    -1.2321133755     1.1006190330
   84      C      -2.6550066956     0.0706669978    -0.1786097507
   85      H      -0.6679480435     2.1313303901     6.3660835037
   86      H      -4.0511221687     2.7659220663     4.3064950441
   87      H      -5.2134386963     4.5864861214     5.4789350345
   88      H      -5.1912350897     4.6951651669     7.9545481514
   89      H      -3.9995265418     2.9417430458     9.2350926722
   90      H      -2.8680841410     1.1015139977     8.0681001930
   91      H      -2.0960296979    -1.8112325698     5.4987271621
   92      H       0.0397015747    -2.7511319144     6.2583757678
   93      H       1.8321764964    -1.2650647392     7.1056498966
   94      H       1.4527154996     1.1819146112     7.1620695180
   95      H      -4.2380850809    -3.5794893109     2.7202500221
   96      H      -6.2684202870    -5.9159431568    -1.1720260743
   97      H      -8.0712768796    -1.4891863192    -2.9005770139
   98      H      -5.9978703329     0.8933392785     0.9378418471
   99      H      -3.0695361414    -5.5568960601     4.3357859737
  100      H      -2.2747525822    -7.6987248913     5.2625283217
  101      H      -2.6881651763    -9.8284528938     4.1470305600
  102      H      -3.7925222730   -11.0722538370     2.0331698658
  103      H      -5.0421219591   -10.8208952821    -0.0466690533
  104      H      -5.7783993644    -8.6186566898    -0.8723155367
  105      H      -7.6901238199     5.7455872987    -0.0848826820
  106      H      -6.7314042270     3.6097829159     0.6893637118
  107      H      -9.0679372289     5.8999366635    -2.0913156583
  108      H      -9.4594259602     0.3419785958    -4.3784109386
  109      H     -10.4811990403     2.4116784151    -5.2555523916
  110      H     -10.1825049587     4.5666038066    -4.1546440319
  111      H     -10.2099799525    -5.1403688761    -3.8208789812
  112      H      -6.3739382788    -4.8953663846    -5.6892341956
  113      H     -10.5238243964    -3.8297540227    -1.7447558077
  114      H      -9.1623095401    -3.4447460237    -0.7262859263
  115      C      -9.7179730817    -5.5249000834    -0.6928079056
  116      H      -4.5469980474    -3.9397016184    -4.6118888600
  117      H      -4.4812451832    -4.3333397572    -2.8980389182
  118      H      -4.9043570513    -2.7076598202    -3.4095426598
  119      H      -8.5579541771    -3.0312657285    -6.6663130731
  120      H     -11.1046540285    -5.6827303350    -7.5530335639
  121      H     -12.8329133884    -7.4240631788    -7.4946388395
  122      H     -12.6332843665    -9.3357379342    -5.9323460855
  123      H     -10.6631276703    -9.4829487335    -4.4396756853
  124      H      -8.9116768365    -7.7607217287    -4.5192314286
  125      H      -8.3909083754    -6.9879400054    -8.2884375576
  126      H      -7.7786653583    -6.0631593872   -10.4812119607
  127      H      -7.5256561316    -3.6169301914   -10.7798892203
  128      H      -7.9104063536    -2.1116155514    -8.8526459884
  129      H     -10.1391683036    -6.2832436984    -1.3542023550
  130      H     -10.3852056905    -5.4198657276     0.1632213513
  131      H      -8.7618257591    -5.8984859502    -0.3251127582
  132      H      -2.0636270088    -0.1625213900    -1.0647293477
  133      H      -2.2824168980     1.0077276922     0.2361056809
  134      H      -3.6824792257     0.2364853002    -0.5020268896
 ----------------------------------------------------------------

    9   -3006.3264992774      5.34E-09 Convergence criterion met
 Total energy in the final basis set = -3006.32649928
 Final energy is   -3006.32649927745
 **  OPTIMIZATION CONVERGED  **

                    Orbital Energies (a.u.)
 --------------------------------------------------------------

 Alpha MOs
 -- Occupied --
-14.668 -14.667 -10.489 -10.489 -10.488 -10.488 -10.483 -10.481
-10.465 -10.465 -10.465 -10.465 -10.465 -10.465 -10.463 -10.463
-10.463 -10.463 -10.462 -10.462 -10.462 -10.462 -10.461 -10.461
-10.461 -10.460 -10.460 -10.460 -10.460 -10.460 -10.454 -10.453
-10.453 -10.452 -10.451 -10.451 -10.449 -10.449 -10.447 -10.447
-10.447 -10.447 -10.447 -10.446 -10.446 -10.446 -10.446 -10.446
-10.444 -10.444 -10.444 -10.443 -10.442 -10.442 -10.442 -10.442
-10.442 -10.442 -10.441 -10.440 -10.435 -10.435 -10.434 -10.434
-10.434 -10.433 -10.433 -10.433 -10.433 -10.432 -10.427 -10.426
-10.420 -10.420 -10.419 -10.418  -6.949  -6.948  -1.078  -1.078
 -1.016  -1.016  -0.964  -0.960  -0.959  -0.959  -0.958  -0.958
 -0.939  -0.938  -0.934  -0.934  -0.909  -0.901  -0.882  -0.882
 -0.863  -0.860  -0.854  -0.853  -0.850  -0.849  -0.848  -0.847
 -0.838  -0.837  -0.836  -0.835  -0.822  -0.816  -0.814  -0.812
 -0.812  -0.805  -0.792  -0.791  -0.765  -0.764  -0.735  -0.731
 -0.727  -0.721  -0.712  -0.712  -0.707  -0.705  -0.698  -0.698
 -0.689  -0.681  -0.681  -0.680  -0.679  -0.674  -0.667  -0.665
 -0.650  -0.648  -0.639  -0.638  -0.635  -0.634  -0.605  -0.605
 -0.596  -0.594  -0.593  -0.590  -0.586  -0.585  -0.584  -0.576
 -0.575  -0.562  -0.560  -0.552  -0.552  -0.544  -0.544  -0.541
 -0.541  -0.537  -0.529  -0.525  -0.522  -0.520  -0.516  -0.511
 -0.509  -0.508  -0.503  -0.501  -0.499  -0.497  -0.496  -0.496
 -0.495  -0.493  -0.492  -0.489  -0.485  -0.484  -0.484  -0.483
 -0.482  -0.481  -0.481  -0.480  -0.479  -0.477  -0.475  -0.472
 -0.469  -0.469  -0.467  -0.461  -0.456  -0.453  -0.448  -0.445
 -0.441  -0.441  -0.440  -0.437  -0.431  -0.429  -0.428  -0.426
 -0.425  -0.424  -0.423  -0.421  -0.420  -0.419  -0.417  -0.412
 -0.411  -0.410  -0.405  -0.403  -0.400  -0.399  -0.398  -0.397
 -0.395  -0.395  -0.395  -0.394  -0.392  -0.391  -0.388  -0.387
 -0.379  -0.376  -0.374  -0.367  -0.357  -0.355  -0.352  -0.351
 -0.343  -0.340  -0.318  -0.313  -0.303  -0.300  -0.298  -0.297
 -0.296  -0.295  -0.294  -0.292  -0.284  -0.282  -0.280  -0.274
 -0.273  -0.262  -0.257  -0.256  -0.219  -0.218

          Ground-State Mulliken Net Atomic Charges

     Atom                 Charge (a.u.)
  ----------------------------------------
      1 C                    -0.349924
      2 C                     0.058162
      3 C                    -0.218309
      4 C                     0.078211
      5 C                    -0.349860
      6 C                     0.288112
      7 N                    -0.673176
      8 C                    -0.761591
      9 C                    -0.552549
     10 C                     0.302421
     11 C                    -0.280437
     12 C                    -0.274767
     13 C                     0.297418
     14 C                    -0.212254
     15 C                    -0.238285
     16 C                    -0.214319
     17 C                    -0.282681
     18 C                    -0.280147
     19 C                    -0.211840
     20 C                    -0.238910
     21 C                    -0.214134
     22 C                    -0.158301
     23 C                    -0.148470
     24 B                     0.682663
     25 C                    -0.153936
     26 C                    -0.148896
     27 B                     0.683742
     28 C                    -0.383417
     29 C                     0.107257
     30 C                     0.091843
     31 C                    -0.394924
     32 C                    -0.379479
     33 C                     0.092131
     34 C                     0.108611
     35 C                    -0.399191
     36 C                    -0.382751
     37 C                    -0.203279
     38 C                    -0.335712
     39 C                     0.252250
     40 C                    -0.063786
     41 C                     0.197649
     42 C                    -0.333443
     43 C                    -0.204290
     44 C                    -0.380665
     45 C                     0.199204
     46 C                    -0.202732
     47 C                    -0.385079
     48 C                     0.197622
     49 C                    -0.063610
     50 C                     0.253698
     51 C                    -0.337350
     52 C                     0.196150
     53 C                    -0.376963
     54 C                    -0.205616
     55 C                    -0.333169
     56 C                    -0.359691
     57 C                     0.077817
     58 C                    -0.228185
     59 C                     0.059904
     60 C                    -0.364531
     61 C                     0.316233
     62 N                    -0.674341
     63 C                    -0.547147
     64 C                    -0.761042
     65 C                     0.284268
     66 C                    -0.271997
     67 C                    -0.279024
     68 C                     0.289978
     69 C                    -0.213707
     70 C                    -0.237393
     71 C                    -0.214468
     72 C                    -0.273159
     73 C                    -0.272953
     74 C                    -0.214380
     75 C                    -0.236606
     76 C                    -0.214506
     77 H                     0.232659
     78 H                     0.230489
     79 H                     0.245117
     80 H                     0.246057
     81 H                     0.239742
     82 H                     0.252376
     83 H                     0.233397
     84 C                    -0.646054
     85 H                     0.245352
     86 H                     0.240134
     87 H                     0.216784
     88 H                     0.216950
     89 H                     0.219907
     90 H                     0.245884
     91 H                     0.240217
     92 H                     0.216222
     93 H                     0.216590
     94 H                     0.219579
     95 H                     0.230467
     96 H                     0.232208
     97 H                     0.230301
     98 H                     0.233249
     99 H                     0.216714
    100 H                     0.226258
    101 H                     0.220745
    102 H                     0.220588
    103 H                     0.226748
    104 H                     0.218446
    105 H                     0.226154
    106 H                     0.217611
    107 H                     0.220715
    108 H                     0.218151
    109 H                     0.226781
    110 H                     0.220384
    111 H                     0.235176
    112 H                     0.234886
    113 H                     0.231558
    114 H                     0.251928
    115 C                    -0.638908
    116 H                     0.239814
    117 H                     0.244769
    118 H                     0.244778
    119 H                     0.239687
    120 H                     0.245771
    121 H                     0.220412
    122 H                     0.217824
    123 H                     0.219032
    124 H                     0.240636
    125 H                     0.244590
    126 H                     0.220566
    127 H                     0.218120
    128 H                     0.219616
    129 H                     0.218214
    130 H                     0.220039
    131 H                     0.231284
    132 H                     0.218681
    133 H                     0.217030
    134 H                     0.243602
  ----------------------------------------
  Sum of atomic charges =    -0.000000

                    Cartesian Multipole Moments
 -----------------------------------------------------------------
    Charge (ESU x 10^10)
                -0.0000
    Dipole Moment (Debye)
         X      -0.5723      Y      -0.2776      Z      -0.2917
       Tot       0.6997
    Quadrupole Moments (Debye-Ang)
        XX    -430.7534     XY     -10.6375     YY    -392.8684
        XZ      20.0053     YZ      -6.8855     ZZ    -422.3628

 Total job time:  21330.16s(wall), 91853.32s(cpu)
        *  Thank you very much for using Q-Chem.  Have a nice day.  *
