 Q-Chem 5.1, Q-Chem, Inc., Pleasanton, CA (2018)
 Q-Chem 5.1.1 for Intel X86 EM64T Linux

User input:
--------------------------------------------------------------
$rem
threads 8
jobtype	opt
method PBEh-3c
basis def2-mSVP
mem_static	1024
mem_total	12000
sym_ignore	true
cis_n_roots             2
cis_singlets            true
cis_triplets		false
rpa                     false
cis_state_deriv         1
$end

$molecule
read s1opt.mol
$end

--------------------------------------------------------------

   15   -3006.3190840722      7.24e-09  Convergence criterion met
 Total energy in the final basis set =    -3006.3190840722
   12   -3006.3185553341      7.01e-09  Convergence criterion met
 Total energy in the final basis set =    -3006.3185553341
   12   -3006.3179823002      6.46e-09  Convergence criterion met
 Total energy in the final basis set =    -3006.3179823002
   11   -3006.3188440655      8.11e-09  Convergence criterion met
 Total energy in the final basis set =    -3006.3188440655
   10   -3006.3190888518      9.61e-09  Convergence criterion met
 Total energy in the final basis set =    -3006.3190888518
   11   -3006.3189029161      6.19e-09  Convergence criterion met
 Total energy in the final basis set =    -3006.3189029161
   10   -3006.3187288715      9.31e-09  Convergence criterion met
 Total energy in the final basis set =    -3006.3187288715
   10   -3006.3189125081      4.90e-09  Convergence criterion met
 Total energy in the final basis set =    -3006.3189125081
    9   -3006.3188341693      5.83e-09  Convergence criterion met
 Total energy in the final basis set =    -3006.3188341693
    9   -3006.3187883911      4.93e-09  Convergence criterion met
 Total energy in the final basis set =    -3006.3187883911
    8   -3006.3187703192      9.32e-09  Convergence criterion met
 Total energy in the final basis set =    -3006.3187703192

             Standard Nuclear Orientation (Angstroms)
    I     Atom           X                Y                Z
 ----------------------------------------------------------------
    1      N       0.1957216839    -0.0731667551     0.0119787287
    2      C       0.1664410350    -0.0204808918     1.3823851409
    3      C       1.3669795160     0.0238323069     2.1184854133
    4      H       2.3143667395    -0.0182730740     1.5956625045
    5      C       1.3393538807     0.0324364049     3.4917316732
    6      C       1.2419801188     0.5284256449    -0.7122350376
    7      C       1.6761569430     1.8075154377    -0.3667023927
    8      H       1.2010881147     2.3381361852     0.4479488025
    9      C       2.6988025239     2.3979682285    -1.0860268980
   10      H       3.0305160637     3.3924545235    -0.8221398930
   11      C       3.2836292833     1.7263327113    -2.1506803759
   12      H       4.0815772551     2.1923886581    -2.7120223251
   13      C       2.8406600929     0.4565647309    -2.4979164484
   14      H       3.2989465533    -0.0715110759    -3.3227565945
   15      C       1.8216152135    -0.1467286357    -1.7853768047
   16      H       1.4869042334    -1.1425089942    -2.0449510698
   17      C      -0.8238365188    -0.7351628426    -0.7008731952
   18      C      -1.3834530014    -0.1415486666    -1.8309143934
   19      H      -1.0490087206     0.8351829326    -2.1548790759
   20      C      -2.3867180465    -0.7986682279    -2.5191752010
   21      H      -2.8303591636    -0.3323366158    -3.3880864095
   22      C      -2.8346570672    -2.0417689527    -2.0917090898
   23      H      -3.6216117825    -2.5488888893    -2.6328332029
   24      C      -2.2691078083    -2.6336197705    -0.9711295868
   25      H      -2.6047152698    -3.6071316016    -0.6416075896
   26      C      -1.2620316913    -1.9891527691    -0.2761611513
   27      H      -0.8066546095    -2.4593528186     0.5855726622
   28      C      -1.0708933132    -0.0295164466     2.0590684696
   29      H      -1.9908676243    -0.0193786903     1.4887745140
   30      C      -1.1093869383    -0.0048542480     3.4292714116
   31      C       0.0985013581     0.0119671967     4.1806208771
   32      C      -2.4233484844    -0.0024727180     4.1459241091
   33      H      -3.2632096208    -0.0015533517     3.4519247671
   34      H      -2.5128686426     0.8664395127     4.7978746385
   35      H      -2.5083564025    -0.8807590003     4.7873979237
   36      C       2.6348025543     0.0556669118     4.2503909510
   37      H       2.5249415323    -0.4975214951     5.1836047197
   38      H       3.4044490937    -0.4585950478     3.6696054508
   39      C       3.0855089814     1.4847844028     4.5471559646
   40      H       2.3611410039     2.0039397528     5.1727014351
   41      H       4.0373137703     1.4812075457     5.0771345041
   42      H       3.2151233391     2.0575660754     3.6275224211
   43      B       0.0316303259    -0.0880593877     5.7543037665
   44      C      -0.0981608746     1.1618428261     6.6132603266
   45      C      -0.1929689783     2.4438011437     6.0347242352
   46      H      -0.1609791618     2.5536260083     4.9543725668
   47      C      -0.3349650598     3.5582080836     6.8208577399
   48      C      -0.3801660409     3.4335825995     8.2394249078
   49      C      -0.2833064715     2.1891760944     8.8218400201
   50      H      -0.3213110957     2.0884011061     9.9013598740
   51      C      -0.1519968051     1.0298248814     8.0347293507
   52      C      -0.4811066185     4.9672694326     6.4796013345
   53      C      -0.5279404519     5.6812289739     5.3094028955
   54      H      -0.4369337418     5.1995107509     4.3433145739
   55      C      -0.6132871087     5.6568798691     7.6997080429
   56      C      -0.7965293837     7.0314737400     7.7997135412
   57      C      -0.5581648461     4.7701786204     8.7959568839
   58      C      -0.6906848333     5.2937932190    10.0564638887
   59      H      -0.6616391154     4.6673949755    10.9391362576
   60      C      -0.7067139561     7.0798385897     5.3809819803
   61      H      -0.7453496855     7.6457748277     4.4586971459
   62      C      -0.8380396272     7.7462424418     6.5778087610
   63      H      -0.9774432090     8.8202722272     6.5832305904
   64      C      -0.8749700336     6.6886576030    10.1907851929
   65      H      -0.9802128033     7.0994052843    11.1867450943
   66      C      -0.9286550072     7.5424397781     9.1129252443
   67      H      -1.0754996162     8.6036842183     9.2704696651
   68      C       0.0508187123    -1.4802651894     6.3756909107
   69      C       0.1051816708    -2.6389552466     5.5766360216
   70      H       0.1476487338    -2.5554285077     4.4951611032
   71      C       0.0992683765    -3.8832901114     6.1495114665
   72      C       0.0511062222    -4.0268600305     7.5674161197
   73      C       0.0057697860    -2.9049906332     8.3627152596
   74      H      -0.0324355937    -3.0040785928     9.4428404057
   75      C      -0.0041490596    -1.6163946278     7.7957359173
   76      C       0.1279123951    -5.2156739760     5.5552251686
   77      C       0.1721980846    -5.7147381699     4.2765792755
   78      H       0.2008414781    -5.0637371770     3.4113113946
   79      C       0.0946259259    -6.1259676869     6.6285896687
   80      C       0.1023104165    -7.5114430691     6.4753012157
   81      C       0.0493849831    -5.4574894337     7.8697802602
   82      C       0.0107741695    -6.2236953172     9.0089650030
   83      H      -0.0257329364    -5.7775808857     9.9946386688
   84      C       0.1816007608    -7.1153957586     4.0919083432
   85      H       0.2169322474    -7.5059157562     3.0824609583
   86      C       0.1478754371    -7.9978850860     5.1466535617
   87      H       0.1562446299    -9.0651183928     4.9604522152
   88      C       0.0182332810    -7.6321499738     8.8843128208
   89      H      -0.0128359087    -8.2282940328     9.7874804429
   90      C       0.0622138205    -8.2721839446     7.6676325400
   91      H       0.0652957998    -9.3545170793     7.6226028925
   92      B      -0.0937883722    -0.3670057855     8.6860605140
   93      C      -0.1161294215    -0.5019967660    10.2586203186
   94      C      -1.3139355780    -0.4512030435    10.9810064412
   95      C      -1.2945365682    -0.5089455735    12.3701453714
   96      H      -2.2239519368    -0.4615094005    12.9277547123
   97      C      -0.0949531948    -0.6020858227    13.0568955461
   98      C       1.0968086899    -0.6708612918    12.3470328726
   99      H       2.0340544203    -0.7470379407    12.8863544937
  100      C       1.0924239527    -0.6311150837    10.9595594784
  101      N      -0.0857241704    -0.6119412383    14.4723855568
  102      C      -0.6938372067     0.4461481128    15.1553012159
  103      C      -1.3515958457     0.2438187934    16.3702074903
  104      H      -1.3928837981    -0.7477781161    16.8019871714
  105      C      -1.9616013948     1.3022614043    17.0216652358
  106      H      -2.4672268997     1.1208373543    17.9615408980
  107      C      -1.9512711093     2.5760785183    16.4728771386
  108      H      -2.4380245902     3.3978369496    16.9805216471
  109      C      -1.3105626491     2.7770402627    15.2591100302
  110      H      -1.2901644145     3.7633985678    14.8133468257
  111      C      -0.6810668552     1.7309395995    14.6077920027
  112      H      -0.1805926257     1.9071064246    13.6647175075
  113      C       0.5311472628    -1.6794314978    15.1320050588
  114      C       1.2407564136    -1.4862221534    16.3183509768
  115      H       1.3175865605    -0.4939000958    16.7432519780
  116      C       1.8538259610    -2.5552111307    16.9493918328
  117      H       2.4000417663    -2.3826269516    17.8679565152
  118      C       1.7943921082    -3.8300266116    16.4057703554
  119      H       2.2829405652    -4.6604064528    16.8975613534
  120      C       1.1027417030    -4.0220944259    15.2187622935
  121      H       1.0441528405    -5.0095813999    14.7789808179
  122      C       0.4697239576    -2.9645734505    14.5890655644
  123      H      -0.0734898490    -3.1321971078    13.6681251595
  124      C       2.3907697940    -0.7022621064    10.2046962783
  125      H       3.2485121344    -0.7098678525    10.8772443844
  126      H       2.4414903629    -1.6030741195     9.5899532813
  127      H       2.5040863370     0.1460994384     9.5266396469
  128      C      -2.6446199259    -0.3887928012    10.2742810239
  129      H      -2.5496075354     0.1728973886     9.3419092287
  130      H      -3.3602631454     0.1624143659    10.8902320769
  131      C      -3.2061588358    -1.7761786860     9.9695471196
  132      H      -2.5456482688    -2.3294432353     9.3022667977
  133      H      -3.3261451326    -2.3615072516    10.8821484816
  134      H      -4.1819444380    -1.7053631417     9.4865773779
 ----------------------------------------------------------------

    8   -3006.3187689984      6.92e-09  Convergence criterion met
 Total energy in the final basis set =    -3006.3187689984

         TDDFT/TDA Excitation Energies
 ---------------------------------------------------

 Excited state   1: excitation energy (eV) =    2.1140
 Total energy for state  1:                 -3006.24108222 au
    Multiplicity: Singlet
    Trans. Mom.:  0.0037 X  -0.0218 Y  -0.0594 Z
    Strength   :     0.0002082496
    D(262) --> V(  1) amplitude =  0.9729

 Excited state   2: excitation energy (eV) =    2.4945
 Total energy for state  2:                 -3006.22709711 au
    Multiplicity: Singlet
    Trans. Mom.: -0.0099 X   0.0238 Y  -0.3898 Z
    Strength   :     0.0093279349
    D(261) --> V(  1) amplitude =  0.9762

 ---------------------------------------------------

 Final energy is   -3006.24108222223
 **  OPTIMIZATION CONVERGED  **

                    Orbital Energies (a.u.)
 --------------------------------------------------------------

 Alpha MOs
 -- Occupied --
-14.668 -14.667 -10.490 -10.489 -10.488 -10.488 -10.482 -10.481
-10.466 -10.466 -10.466 -10.466 -10.466 -10.466 -10.465 -10.464
-10.464 -10.463 -10.463 -10.463 -10.463 -10.463 -10.463 -10.462
-10.462 -10.461 -10.461 -10.461 -10.461 -10.461 -10.455 -10.454
-10.454 -10.453 -10.452 -10.450 -10.449 -10.449 -10.448 -10.448
-10.448 -10.448 -10.447 -10.446 -10.446 -10.445 -10.445 -10.444
-10.444 -10.444 -10.444 -10.444 -10.444 -10.443 -10.440 -10.440
-10.440 -10.440 -10.438 -10.438 -10.436 -10.436 -10.436 -10.435
-10.434 -10.433 -10.433 -10.431 -10.428 -10.428 -10.427 -10.423
-10.423 -10.420 -10.417 -10.414  -6.947  -6.939  -1.084  -1.077
 -1.016  -1.016  -0.963  -0.961  -0.959  -0.959  -0.956  -0.956
 -0.937  -0.937  -0.935  -0.934  -0.908  -0.900  -0.883  -0.881
 -0.863  -0.858  -0.856  -0.854  -0.851  -0.848  -0.848  -0.848
 -0.840  -0.840  -0.835  -0.833  -0.824  -0.815  -0.813  -0.812
 -0.812  -0.804  -0.791  -0.787  -0.766  -0.761  -0.736  -0.732
 -0.728  -0.721  -0.712  -0.712  -0.708  -0.705  -0.699  -0.696
 -0.690  -0.684  -0.682  -0.681  -0.676  -0.675  -0.667  -0.667
 -0.648  -0.646  -0.639  -0.638  -0.634  -0.632  -0.605  -0.604
 -0.598  -0.594  -0.594  -0.591  -0.585  -0.584  -0.584  -0.577
 -0.577  -0.562  -0.560  -0.552  -0.552  -0.545  -0.543  -0.541
 -0.539  -0.537  -0.529  -0.525  -0.524  -0.517  -0.517  -0.513
 -0.509  -0.508  -0.505  -0.501  -0.500  -0.496  -0.495  -0.495
 -0.494  -0.492  -0.490  -0.488  -0.488  -0.485  -0.485  -0.484
 -0.483  -0.482  -0.481  -0.480  -0.478  -0.476  -0.475  -0.472
 -0.468  -0.468  -0.466  -0.461  -0.456  -0.454  -0.448  -0.445
 -0.442  -0.441  -0.441  -0.437  -0.431  -0.429  -0.429  -0.427
 -0.424  -0.423  -0.423  -0.421  -0.419  -0.419  -0.417  -0.413
 -0.411  -0.409  -0.405  -0.400  -0.400  -0.399  -0.398  -0.397
 -0.396  -0.396  -0.395  -0.394  -0.392  -0.392  -0.389  -0.385
 -0.379  -0.377  -0.371  -0.365  -0.358  -0.356  -0.352  -0.350
 -0.346  -0.335  -0.320  -0.314  -0.305  -0.299  -0.298  -0.296
 -0.296  -0.295  -0.295  -0.291  -0.283  -0.281  -0.280  -0.274
 -0.273  -0.262  -0.256  -0.255  -0.219  -0.212

          Ground-State Mulliken Net Atomic Charges

     Atom                 Charge (a.u.)
  ----------------------------------------
      1 N                    -0.658867
      2 C                     0.316484
      3 C                    -0.379476
      4 H                     0.238939
      5 C                     0.093813
      6 C                     0.271982
      7 C                    -0.265186
      8 H                     0.247162
      9 C                    -0.216633
     10 H                     0.220465
     11 C                    -0.235864
     12 H                     0.217841
     13 C                    -0.215567
     14 H                     0.221277
     15 C                    -0.271344
     16 H                     0.244879
     17 C                     0.265766
     18 C                    -0.267938
     19 H                     0.245091
     20 C                    -0.216184
     21 H                     0.221641
     22 C                    -0.235396
     23 H                     0.218221
     24 C                    -0.215864
     25 H                     0.220412
     26 C                    -0.260768
     27 H                     0.243438
     28 C                    -0.383600
     29 H                     0.241434
     30 C                     0.072635
     31 C                    -0.246547
     32 C                    -0.760931
     33 H                     0.237387
     34 H                     0.244704
     35 H                     0.245059
     36 C                    -0.545368
     37 H                     0.249464
     38 H                     0.230348
     39 C                    -0.646365
     40 H                     0.242966
     41 H                     0.217830
     42 H                     0.215745
     43 B                     0.653351
     44 C                    -0.137250
     45 C                    -0.400028
     46 H                     0.236707
     47 C                     0.097154
     48 C                     0.115632
     49 C                    -0.390353
     50 H                     0.227814
     51 C                    -0.152640
     52 C                     0.197496
     53 C                    -0.377337
     54 H                     0.219363
     55 C                    -0.065715
     56 C                     0.254470
     57 C                     0.195355
     58 C                    -0.379828
     59 H                     0.217334
     60 C                    -0.204764
     61 H                     0.227103
     62 C                    -0.333210
     63 H                     0.221059
     64 C                    -0.202615
     65 H                     0.225987
     66 C                    -0.335790
     67 H                     0.221480
     68 C                    -0.147041
     69 C                    -0.380700
     70 H                     0.233072
     71 C                     0.098170
     72 C                     0.109630
     73 C                    -0.406913
     74 H                     0.234783
     75 C                    -0.143460
     76 C                     0.201281
     77 C                    -0.377828
     78 H                     0.217702
     79 C                    -0.066719
     80 C                     0.250615
     81 C                     0.198824
     82 C                    -0.383799
     83 H                     0.217885
     84 C                    -0.203912
     85 H                     0.226725
     86 C                    -0.332233
     87 H                     0.221177
     88 C                    -0.202239
     89 H                     0.226457
     90 C                    -0.334034
     91 H                     0.221484
     92 B                     0.676895
     93 C                    -0.215056
     94 C                     0.069719
     95 C                    -0.329071
     96 H                     0.227620
     97 C                     0.258530
     98 C                    -0.333457
     99 H                     0.228852
    100 C                     0.048376
    101 N                    -0.675514
    102 C                     0.318630
    103 C                    -0.291976
    104 H                     0.248859
    105 C                    -0.212628
    106 H                     0.218712
    107 C                    -0.241837
    108 H                     0.215170
    109 C                    -0.209047
    110 H                     0.212482
    111 C                    -0.286425
    112 H                     0.241347
    113 C                     0.316362
    114 C                    -0.290097
    115 H                     0.248501
    116 C                    -0.213305
    117 H                     0.218964
    118 C                    -0.240811
    119 H                     0.215756
    120 C                    -0.210366
    121 H                     0.215285
    122 C                    -0.284987
    123 H                     0.240362
    124 C                    -0.760991
    125 H                     0.239723
    126 H                     0.246978
    127 H                     0.246141
    128 C                    -0.548153
    129 H                     0.252162
    130 H                     0.232870
    131 C                    -0.644665
    132 H                     0.241233
    133 H                     0.215801
    134 H                     0.220265
  ----------------------------------------
  Sum of atomic charges =    -0.000000

                    Cartesian Multipole Moments
 -----------------------------------------------------------------
    Charge (ESU x 10^10)
                -0.0000
    Dipole Moment (Debye)
         X      -0.3444      Y      -0.0929      Z      -1.5545
       Tot       1.5949
    Quadrupole Moments (Debye-Ang)
        XX    -451.1655     XY      -2.5412     YY    -383.3986
        XZ      -3.5492     YZ       2.0970     ZZ    -440.6993

 Total job time:  47078.55s(wall), 327435.03s(cpu)
        *  Thank you very much for using Q-Chem.  Have a nice day.  *
