 Q-Chem 5.0, Q-Chem, Inc., Pleasanton, CA (2017)
 Q-Chem 5.0.1 for Intel X86 EM64T Linux

User input:
--------------------------------------------------------------
$rem
threads 8
jobtype	sp
method PBEh-3c
basis def2-mSVP
mem_static	1024
mem_total	14000
sym_ignore	true
cis_n_roots             6
cis_singlets            true
cis_triplets		true
rpa                     false
calc_soc 		true
cis_moments             true
cis_relaxed_density	true
$end

$molecule
read s1opt.mol
$end

--------------------------------------------------------------

             Standard Nuclear Orientation (Angstroms)
    I     Atom           X                Y                Z
 ----------------------------------------------------------------
    1      N       0.0000000000     0.0000000000     0.0000000000
    2      C       0.0000000000     0.0000000000     1.3691580000
    3      C       1.2169463350     0.0000000000     2.0800822811
    4      H       2.1528020890    -0.0353696241     1.5359115764
    5      C       1.2253405910    -0.0355438291     3.4531866693
    6      C       1.0663750037     0.5634433886    -0.7298594632
    7      C       1.5636547040     1.8175673487    -0.3804368769
    8      H       1.1294811429     2.3617475672     0.4480146411
    9      C       2.5981855166     2.3699039587    -1.1143975334
   10      H       2.9791172143     3.3458903730    -0.8473842792
   11      C       3.1315041676     1.6857644313    -2.1974806757
   12      H       3.9374221853     2.1234281757    -2.7704262061
   13      C       2.6269069126     0.4403077948    -2.5474511412
   14      H       3.0450862290    -0.0985013562    -3.3865542205
   15      C       1.5957651620    -0.1245622320    -1.8201731213
   16      H       1.2112307918    -1.1004098003    -2.0861289270
   17      C      -1.0627098139    -0.5713761372    -0.7296853600
   18      C      -1.5853466671     0.1076757451    -1.8287211790
   19      H      -1.1963798010     1.0800688501    -2.1006540958
   20      C      -2.6130694925    -0.4619287536    -2.5569096460
   21      H      -3.0262848444     0.0704862784    -3.4025766662
   22      C      -3.1202835941    -1.7043296967    -2.1995383927
   23      H      -3.9239981876    -2.1457016879    -2.7726683165
   24      C      -2.5910613017    -2.3814150874    -1.1098016048
   25      H      -2.9729128043    -3.3554278390    -0.8372364819
   26      C      -1.5603000601    -1.8238361352    -0.3743274109
   27      H      -1.1290297442    -2.3621740014     0.4593522654
   28      C      -1.2183239541    -0.0148389287     2.0803684946
   29      H      -2.1535117735     0.0386604036     1.5380073110
   30      C      -1.2204320222    -0.0473050688     3.4513585161
   31      C       0.0045826315    -0.0716316458     4.1769543115
   32      C      -2.5167318634    -0.0406962946     4.1985193449
   33      H      -3.3712251656    -0.0515270973     3.5230771710
   34      H      -2.5928095530     0.8397041793     4.8370622094
   35      H      -2.5847212522    -0.9084131760     4.8556249541
   36      C       2.5469933950    -0.0363132167     4.1669889179
   37      H       2.4522309457    -0.5504628617     5.1231823744
   38      H       3.2752417878    -0.6009068342     3.5791089079
   39      C       3.0633302163     1.3842814255     4.3911064577
   40      H       2.3792853884     1.9588940706     5.0137426935
   41      H       4.0297025293     1.3642370081     4.8937085112
   42      H       3.1894809484     1.9147427757     3.4455692454
   43      B      -0.0178581154    -0.1775141861     5.7556824910
   44      C      -0.1081519552     1.0857598379     6.6010196794
   45      C      -0.1588119445     2.3642895491     6.0089983251
   46      H      -0.1478125826     2.4640430589     4.9269875394
   47      C      -0.2167896343     3.4931016304     6.7849254303
   48      C      -0.2310549346     3.3874714833     8.2063044826
   49      C      -0.1970092664     2.1473318061     8.8005229205
   50      H      -0.2127687090     2.0617428228     9.8813839693
   51      C      -0.1407214798     0.9746795361     8.0254960084
   52      C      -0.2617082889     4.9087045526     6.4293836625
   53      C      -0.2723662459     5.6232232640     5.2568440482
   54      H      -0.2471874204     5.1357063477     4.2896871286
   55      C      -0.3000956978     5.6160744266     7.6471517254
   56      C      -0.3480230336     7.0046197021     7.7409977150
   57      C      -0.2846409923     4.7406237050     8.7526655019
   58      C      -0.3209552071     5.2886883193    10.0106855700
   59      H      -0.3119364242     4.6719942528    10.9003131073
   60      C      -0.3195565070     7.0336251620     5.3226795735
   61      H      -0.3278535264     7.5956504845     4.3969929564
   62      C      -0.3566109985     7.7160257319     6.5166808240
   63      H      -0.3924207067     8.7987662228     6.5184835324
   64      C      -0.3707156573     6.6956975551    10.1367544095
   65      H      -0.3989349099     7.1235281250    11.1306900931
   66      C      -0.3842779764     7.5397655941     9.0506177505
   67      H      -0.4231235433     8.6123148533     9.1971101198
   68      C       0.0398194670    -1.5567168550     6.4061653352
   69      C       0.1476114979    -2.7254384477     5.6272336636
   70      H       0.1824219204    -2.6535637626     4.5441930381
   71      C       0.2176401391    -3.9595620835     6.2200065684
   72      C       0.1776618253    -4.0804049612     7.6391037025
   73      C       0.0677081355    -2.9485684356     8.4155132382
   74      H       0.0337663656    -3.0313830649     9.4969449929
   75      C      -0.0025140476    -1.6701747089     7.8308494378
   76      C       0.3432415470    -5.2929569771     5.6470437702
   77      C       0.4378131565    -5.7995753950     4.3750107949
   78      H       0.4260501926    -5.1574338367     3.5024338132
   79      C       0.3714269173    -6.1866807229     6.7357103762
   80      C       0.4884555835    -7.5667678095     6.6050872111
   81      C       0.2741867025    -5.5011667126     7.9651098247
   82      C       0.2936840099    -6.2430411225     9.1192147825
   83      H       0.2254922745    -5.7785787867    10.0947566982
   84      C       0.5568843638    -7.1973434356     4.2135825696
   85      H       0.6326000780    -7.5996575085     3.2110605296
   86      C       0.5819782818    -8.0640405045     5.2822153608
   87      H       0.6758043177    -9.1292188320     5.1096096531
   88      C       0.4080057682    -7.6486113923     9.0188182272
   89      H       0.4220508126    -8.2294736685     9.9321064760
   90      C       0.5035339373    -8.3045931691     7.8129903629
   91      H       0.5909690306    -9.3837973521     7.7890926690
   92      B      -0.1183095993    -0.4075013314     8.7035990136
   93      C      -0.1973043266    -0.5055160707    10.2803497706
   94      C      -1.4222924274    -0.4543429220    10.9580484146
   95      C      -1.4599054640    -0.5262504399    12.3462204580
   96      H      -2.4123431764    -0.4924312478    12.8634569501
   97      C      -0.2880212031    -0.6182155910    13.0816797313
   98      C       0.9314648660    -0.6489245883    12.4182136069
   99      H       1.8498983739    -0.7036428272    12.9912612029
  100      C       0.9829486617    -0.6041908022    11.0319193365
  101      N      -0.3311289919    -0.6566393351    14.4945060839
  102      C      -1.0285174282     0.3429091286    15.1827798128
  103      C      -1.7167636681     0.0549683508    16.3619665677
  104      H      -1.7109570510    -0.9541191583    16.7530630122
  105      C      -2.4091814104     1.0523617590    17.0274056864
  106      H      -2.9376572026     0.8095079922    17.9403575011
  107      C      -2.4489815262     2.3452332937    16.5256696417
  108      H      -2.9995606169     3.1186704848    17.0440867169
  109      C      -1.7746641012     2.6307289738    15.3476857725
  110      H      -1.7910695926     3.6344491836    14.9423605521
  111      C      -1.0633818797     1.6461841075    14.6841207815
  112      H      -0.5337001845     1.8842166826    13.7707262208
  113      C       0.4116129637    -1.6331054331    15.1691277230
  114      C       1.1134115211    -1.3302546031    16.3362063580
  115      H       1.0823078066    -0.3248078803    16.7357760153
  116      C       1.8573385031    -2.3067779074    16.9772714395
  117      H       2.3978154318    -2.0511187447    17.8796638222
  118      C       1.9341262248    -3.5923822132    16.4622987664
  119      H       2.5248502701    -4.3489574413    16.9609567977
  120      C       1.2465511009    -3.8922498561    15.2949699889
  121      H       1.2937123143    -4.8902742514    14.8784325998
  122      C       0.4853849223    -2.9289966980    14.6565539981
  123      H      -0.0508869771    -3.1742181354    13.7489629808
  124      C       2.3149261188    -0.6254616435    10.3335659826
  125      H       3.1414234084    -0.6329978380    11.0440169133
  126      H       2.4173348264    -1.5045817296     9.6943304518
  127      H       2.4356444217     0.2470010053     9.6881511968
  128      C      -2.7197995221    -0.3618759425    10.1959295460
  129      H      -2.5871286357     0.2716166100     9.3153726109
  130      H      -3.4710887179     0.1338866511    10.8163086520
  131      C      -3.2470920757    -1.7271701746     9.7604997709
  132      H      -2.5524598397    -2.2194637552     9.0805378808
  133      H      -3.3941276742    -2.3832915528    10.6193534012
  134      H      -4.2040124756    -1.6303774155     9.2452272859
 ----------------------------------------------------------------

   15   -3006.3190840745      6.95E-09 Convergence criterion met
 Total energy in the final basis set = -3006.31908407

         TDDFT/TDA Excitation Energies
 ---------------------------------------------------

 Excited state   1: excitation energy (eV) =    2.0959
 Total energy for state  1:                 -3006.24206043 au
    Multiplicity: Triplet
    Trans. Mom.:  0.0000 X   0.0000 Y   0.0000 Z
    Strength   :     0.0000000000
    D(262) --> V(  1) amplitude =  0.9677

 Excited state   2: excitation energy (eV) =    2.1174
 Total energy for state  2:                 -3006.24127247 au
    Multiplicity: Singlet
    Trans. Mom.:  0.0062 X   0.0107 Y   0.1021 Z
    Strength   :     0.0005490208
    D(262) --> V(  1) amplitude =  0.9729

 Excited state   3: excitation energy (eV) =    2.1914
 Total energy for state  3:                 -3006.23855112 au
    Multiplicity: Triplet
    Trans. Mom.:  0.0000 X   0.0000 Y   0.0000 Z
    Strength   :     0.0000000000
    D(259) --> V(  1) amplitude =  0.3545
    D(260) --> V(  1) amplitude =  0.8499

 Excited state   4: excitation energy (eV) =    2.4247
 Total energy for state  4:                 -3006.22997857 au
    Multiplicity: Triplet
    Trans. Mom.:  0.0000 X   0.0000 Y   0.0000 Z
    Strength   :     0.0000000000
    D(258) --> V(  2) amplitude = -0.4534
    D(259) --> V(  1) amplitude =  0.7062
    D(260) --> V(  1) amplitude = -0.2911
    D(261) --> V(  1) amplitude =  0.2963

 Excited state   5: excitation energy (eV) =    2.4422
 Total energy for state  5:                 -3006.22933593 au
    Multiplicity: Triplet
    Trans. Mom.:  0.0000 X   0.0000 Y   0.0000 Z
    Strength   :     0.0000000000
    D(258) --> V(  1) amplitude =  0.2160
    D(259) --> V(  1) amplitude = -0.2322
    D(261) --> V(  1) amplitude =  0.8748

 Excited state   6: excitation energy (eV) =    2.4653
 Total energy for state  6:                 -3006.22848624 au
    Multiplicity: Singlet
    Trans. Mom.: -0.0075 X   0.0114 Y   0.3665 Z
    Strength   :     0.0081231984
    D(261) --> V(  1) amplitude =  0.9747

 Excited state   7: excitation energy (eV) =    2.4927
 Total energy for state  7:                 -3006.22747932 au
    Multiplicity: Triplet
    Trans. Mom.:  0.0000 X   0.0000 Y   0.0000 Z
    Strength   :     0.0000000000
    D(258) --> V(  1) amplitude = -0.7030
    D(258) --> V(  4) amplitude = -0.2239
    D(259) --> V(  2) amplitude =  0.4762
    D(260) --> V(  2) amplitude = -0.2334
    D(261) --> V(  1) amplitude =  0.2798

 Excited state   8: excitation energy (eV) =    2.6971
 Total energy for state  8:                 -3006.21996827 au
    Multiplicity: Triplet
    Trans. Mom.:  0.0000 X   0.0000 Y   0.0000 Z
    Strength   :     0.0000000000
    D(253) --> V(  1) amplitude =  0.2963
    D(254) --> V(  1) amplitude =  0.5976
    D(255) --> V(  1) amplitude = -0.2310
    D(259) --> V(  2) amplitude =  0.2337
    D(260) --> V(  2) amplitude =  0.5136

 Excited state   9: excitation energy (eV) =    2.8692
 Total energy for state  9:                 -3006.21364157 au
    Multiplicity: Singlet
    Trans. Mom.: -0.0078 X  -0.0335 Y   0.0009 Z
    Strength   :     0.0000830822
    D(259) --> V(  1) amplitude =  0.3811
    D(260) --> V(  1) amplitude =  0.8888

 Excited state  10: excitation energy (eV) =    3.2081
 Total energy for state 10:                 -3006.20118987 au
    Multiplicity: Singlet
    Trans. Mom.: -0.1954 X   3.4367 Y   0.2732 Z
    Strength   :     0.9371881286
    D(259) --> V(  1) amplitude =  0.8727
    D(260) --> V(  1) amplitude = -0.3743

 Excited state  11: excitation energy (eV) =    3.3536
 Total energy for state 11:                 -3006.19583983 au
    Multiplicity: Singlet
    Trans. Mom.:  0.0211 X   0.0110 Y  -0.0137 Z
    Strength   :     0.0000617341
    D(262) --> V(  2) amplitude =  0.9941

 Excited state  12: excitation energy (eV) =    3.6157
 Total energy for state 12:                 -3006.18621043 au
    Multiplicity: Singlet
    Trans. Mom.: -0.0146 X  -0.0567 Y  -0.0236 Z
    Strength   :     0.0003532695
    D(261) --> V(  2) amplitude =  0.9945

 ---------------------------------------------------

                    Orbital Energies (a.u.)
 --------------------------------------------------------------

 Alpha MOs
 -- Occupied --
-14.668 -14.666 -10.490 -10.490 -10.487 -10.487 -10.483 -10.481
-10.466 -10.466 -10.466 -10.465 -10.465 -10.465 -10.464 -10.464
-10.463 -10.463 -10.463 -10.463 -10.462 -10.462 -10.462 -10.461
-10.461 -10.461 -10.460 -10.460 -10.460 -10.460 -10.454 -10.453
-10.453 -10.452 -10.452 -10.449 -10.449 -10.449 -10.449 -10.449
-10.448 -10.447 -10.447 -10.446 -10.446 -10.446 -10.446 -10.445
-10.445 -10.445 -10.445 -10.444 -10.444 -10.444 -10.441 -10.441
-10.440 -10.440 -10.439 -10.439 -10.435 -10.434 -10.434 -10.434
-10.433 -10.432 -10.432 -10.430 -10.428 -10.427 -10.426 -10.422
-10.422 -10.418 -10.417 -10.414  -6.947  -6.939  -1.084  -1.077
 -1.015  -1.015  -0.962  -0.961  -0.958  -0.958  -0.957  -0.956
 -0.937  -0.937  -0.934  -0.934  -0.908  -0.899  -0.881  -0.880
 -0.862  -0.858  -0.855  -0.853  -0.851  -0.848  -0.848  -0.847
 -0.840  -0.840  -0.836  -0.834  -0.823  -0.815  -0.813  -0.812
 -0.811  -0.803  -0.790  -0.787  -0.765  -0.760  -0.736  -0.731
 -0.728  -0.721  -0.711  -0.711  -0.708  -0.705  -0.698  -0.696
 -0.690  -0.684  -0.682  -0.680  -0.677  -0.675  -0.667  -0.666
 -0.648  -0.645  -0.638  -0.638  -0.633  -0.631  -0.604  -0.603
 -0.597  -0.594  -0.593  -0.590  -0.585  -0.584  -0.583  -0.576
 -0.576  -0.562  -0.560  -0.552  -0.551  -0.544  -0.543  -0.540
 -0.539  -0.536  -0.528  -0.525  -0.524  -0.518  -0.516  -0.513
 -0.508  -0.508  -0.504  -0.501  -0.499  -0.496  -0.495  -0.495
 -0.494  -0.491  -0.490  -0.488  -0.488  -0.485  -0.484  -0.484
 -0.483  -0.482  -0.481  -0.480  -0.479  -0.476  -0.474  -0.471
 -0.468  -0.467  -0.466  -0.460  -0.455  -0.453  -0.447  -0.444
 -0.441  -0.441  -0.439  -0.435  -0.430  -0.429  -0.429  -0.427
 -0.424  -0.423  -0.423  -0.421  -0.419  -0.418  -0.416  -0.413
 -0.411  -0.409  -0.405  -0.401  -0.400  -0.399  -0.398  -0.397
 -0.395  -0.395  -0.395  -0.394  -0.392  -0.391  -0.387  -0.385
 -0.378  -0.376  -0.370  -0.364  -0.357  -0.355  -0.351  -0.349
 -0.344  -0.335  -0.319  -0.314  -0.306  -0.299  -0.299  -0.296
 -0.296  -0.295  -0.295  -0.291  -0.283  -0.280  -0.280  -0.273
 -0.272  -0.262  -0.255  -0.255  -0.218  -0.212

          Ground-State Mulliken Net Atomic Charges

     Atom                 Charge (a.u.)
  ----------------------------------------
      1 N                    -0.659972
      2 C                     0.327610
      3 C                    -0.382041
      4 H                     0.239278
      5 C                     0.090438
      6 C                     0.265661
      7 C                    -0.262319
      8 H                     0.246088
      9 C                    -0.217241
     10 H                     0.220813
     11 C                    -0.234791
     12 H                     0.218331
     13 C                    -0.215777
     14 H                     0.221601
     15 C                    -0.267392
     16 H                     0.244948
     17 C                     0.265797
     18 C                    -0.267730
     19 H                     0.245262
     20 C                    -0.216041
     21 H                     0.221593
     22 C                    -0.234785
     23 H                     0.218282
     24 C                    -0.217274
     25 H                     0.221084
     26 C                    -0.260943
     27 H                     0.245498
     28 C                    -0.387661
     29 H                     0.240954
     30 C                     0.072750
     31 C                    -0.249486
     32 C                    -0.759979
     33 H                     0.236949
     34 H                     0.244059
     35 H                     0.244434
     36 C                    -0.544951
     37 H                     0.250244
     38 H                     0.229911
     39 C                    -0.644625
     40 H                     0.240720
     41 H                     0.218034
     42 H                     0.215090
     43 B                     0.657475
     44 C                    -0.139302
     45 C                    -0.399000
     46 H                     0.237523
     47 C                     0.093952
     48 C                     0.114731
     49 C                    -0.389328
     50 H                     0.229407
     51 C                    -0.150398
     52 C                     0.202062
     53 C                    -0.379585
     54 H                     0.219186
     55 C                    -0.067326
     56 C                     0.251314
     57 C                     0.196593
     58 C                    -0.379908
     59 H                     0.217230
     60 C                    -0.203644
     61 H                     0.226855
     62 C                    -0.332476
     63 H                     0.220948
     64 C                    -0.203084
     65 H                     0.226136
     66 C                    -0.334319
     67 H                     0.221287
     68 C                    -0.149761
     69 C                    -0.383051
     70 H                     0.231700
     71 C                     0.097472
     72 C                     0.112975
     73 C                    -0.403123
     74 H                     0.232953
     75 C                    -0.145306
     76 C                     0.198985
     77 C                    -0.375943
     78 H                     0.219248
     79 C                    -0.067097
     80 C                     0.252912
     81 C                     0.197150
     82 C                    -0.382445
     83 H                     0.218134
     84 C                    -0.204781
     85 H                     0.226735
     86 C                    -0.332594
     87 H                     0.220843
     88 C                    -0.202668
     89 H                     0.226238
     90 C                    -0.335612
     91 H                     0.221207
     92 B                     0.675245
     93 C                    -0.216986
     94 C                     0.074178
     95 C                    -0.341198
     96 H                     0.228909
     97 C                     0.274203
     98 C                    -0.340360
     99 H                     0.231207
    100 C                     0.050937
    101 N                    -0.673543
    102 C                     0.308602
    103 C                    -0.283362
    104 H                     0.246490
    105 C                    -0.213971
    106 H                     0.219104
    107 C                    -0.239923
    108 H                     0.215960
    109 C                    -0.210833
    110 H                     0.214749
    111 C                    -0.283195
    112 H                     0.240403
    113 C                     0.306016
    114 C                    -0.287093
    115 H                     0.246930
    116 C                    -0.213804
    117 H                     0.219283
    118 C                    -0.239716
    119 H                     0.216171
    120 C                    -0.211137
    121 H                     0.215780
    122 C                    -0.279208
    123 H                     0.239979
    124 C                    -0.760783
    125 H                     0.239279
    126 H                     0.246235
    127 H                     0.245307
    128 C                    -0.549565
    129 H                     0.251224
    130 H                     0.232753
    131 C                    -0.647332
    132 H                     0.244417
    133 H                     0.216402
    134 H                     0.219327
  ----------------------------------------
  Sum of atomic charges =    -0.000000

                    Cartesian Multipole Moments
 -----------------------------------------------------------------
    Charge (ESU x 10^10)
                -0.0000
    Dipole Moment (Debye)
         X       0.2335      Y       0.0679      Z      -1.5105
       Tot       1.5300
    Quadrupole Moments (Debye-Ang)
        XX    -450.5062     XY      -2.6840     YY    -383.8458
        XZ       1.5871     YZ       3.4345     ZZ    -435.9138

 Total job time:  19017.56s(wall), 58279.22s(cpu)
        *  Thank you very much for using Q-Chem.  Have a nice day.  *
