 Q-Chem 5.0, Q-Chem, Inc., Pleasanton, CA (2017)
 Q-Chem 5.0.1 for Intel X86 EM64T Linux

User input:
--------------------------------------------------------------
$rem
threads 8
jobtype	opt
method PBEh-3c
basis def2-mSVP
mem_static	1024
mem_total	14000
sym_ignore	true
cis_n_roots             2
cis_singlets            true
cis_triplets		false
rpa                     false
cis_state_deriv         1
$end

$molecule
read s1preopt.mol
$end

--------------------------------------------------------------

   15   -3006.3192485187      6.96E-09 Convergence criterion met
 Total energy in the final basis set = -3006.31924852
   11   -3006.3190563272      8.78E-09 Convergence criterion met
 Total energy in the final basis set = -3006.31905633
   11   -3006.3193341384      9.75E-09 Convergence criterion met
 Total energy in the final basis set = -3006.31933414
   12   -3006.3194394658      5.95E-09 Convergence criterion met
 Total energy in the final basis set = -3006.31943947
   11   -3006.3194113817      5.73E-09 Convergence criterion met
 Total energy in the final basis set = -3006.31941138
   12   -3006.3192910662      6.95E-09 Convergence criterion met
 Total energy in the final basis set = -3006.31929107
   11   -3006.3194771694      7.52E-09 Convergence criterion met
 Total energy in the final basis set = -3006.31947717
   10   -3006.3194644895      5.42E-09 Convergence criterion met
 Total energy in the final basis set = -3006.31946449

             Standard Nuclear Orientation (Angstroms)
    I     Atom           X                Y                Z
 ----------------------------------------------------------------
    1      C      -4.8283782360    -0.2282415635     4.4468091184
    2      C      -5.4395930395    -0.8184488814     3.3492960560
    3      C      -4.7057715945    -1.0784568159     2.1824660818
    4      C      -3.3493876278    -0.7295833440     2.1508651367
    5      C      -2.7569764322    -0.1152794482     3.2487212112
    6      C      -3.4884190286     0.1331635621     4.4002147372
    7      N      -2.8715946163     0.7271275617     5.5254471739
    8      C      -6.8887316041    -1.2140802021     3.4253703251
    9      C      -2.5203509846    -0.9756381148     0.9159344246
   10      C      -1.7016908754     0.1577294093     6.0414689924
   11      C      -0.6945736082     0.9563490407     6.5846039392
   12      C      -4.1450862160     2.7804859611     5.3894389814
   13      C      -3.5048074516     1.8053318637     6.1553537710
   14      C      -4.8056586805     3.8304619345     6.0026279954
   15      C      -4.8284446888     3.9416169826     7.3855458225
   16      C      -4.1874326702     2.9771221907     8.1489107514
   17      C      -3.5391590614     1.9121564788     7.5459368335
   18      C      -1.5154916698    -1.2250265777     6.0000218500
   19      C      -0.3480962189    -1.7889382952     6.4845435083
   20      C       0.6471615508    -0.9945000817     7.0342592162
   21      C       0.4608901386     0.3794348004     7.0837212713
   22      C      -6.8233803510    -1.6630301119    -1.1857025655
   23      C      -6.2232510693    -0.9959373881    -0.0724990723
   24      B      -5.4054458611    -1.7949823562     0.9581149191
   25      C      -5.2829228908    -3.3215539956     0.7990097903
   26      C      -5.8751897117    -3.9853596379    -0.3195232732
   27      B      -6.6596650430    -3.1723100078    -1.3403843851
   28      C      -4.5825591185    -4.0829886149     1.7522446553
   29      C      -4.4546473079    -5.4456345820     1.6142756392
   30      C      -5.0313211664    -6.1013060737     0.4876777323
   31      C      -5.7212637055    -5.3804606632    -0.4525364973
   32      C      -7.5687982593    -0.9121745540    -2.1156653223
   33      C      -7.7267368118     0.4405963008    -1.9594225021
   34      C      -7.1330431679     1.1119956454    -0.8518181530
   35      C      -6.3971234354     0.3940812194     0.0641392078
   36      C      -3.0914305877    -6.4653601270     3.6093440694
   37      C      -2.6023268088    -7.6962235461     4.1031028071
   38      C      -2.8083996967    -8.8921383369     3.4552998177
   39      C      -3.5365550058    -8.9208120362     2.2421354247
   40      C      -4.0054482641    -7.6939829507     1.7793256637
   41      C      -3.8016899527    -6.4619912991     2.4346834069
   42      C      -3.8417559487   -10.0502514733     1.4444242121
   43      C      -4.5634690676    -9.8991010270     0.2829739062
   44      C      -5.0261331703    -8.6412342913    -0.1636898781
   45      C      -4.7452254595    -7.5294834118     0.5916915444
   46      C      -7.7534004403     4.8891916744    -0.6602089808
   47      C      -7.2196165568     3.6564099108    -0.2196414541
   48      C      -7.4775319406     2.5278327189    -0.9561938122
   49      C      -8.2669319627     2.6615653199    -2.1179901433
   50      C      -8.8085596653     3.8589175966    -2.5744820877
   51      C      -8.5232143031     5.0053695690    -1.7948221772
   52      C      -8.4475369913     1.4208360252    -2.7604102981
   53      C      -9.2024221105     1.3746668952    -3.9057008481
   54      C      -9.7636303074     2.5758726957    -4.3916463202
   55      C      -9.5811663793     3.7843757095    -3.7591922512
   56      C      -9.2131683966    -4.9073339690    -3.6931700470
   57      C      -8.6566553897    -4.3370405018    -2.5743274706
   58      C      -7.3090784168    -3.8908099514    -2.5918299247
   59      C      -6.5464990174    -4.0679540097    -3.7812989097
   60      C      -7.1120675793    -4.6357181358    -4.8941546441
   61      C      -8.4582355118    -5.0573491655    -4.8738243517
   62      N      -9.0302944392    -5.5945069056    -5.9957890580
   63      C      -9.5011123555    -4.1962838472    -1.3400830164
   64      C      -5.1119080920    -3.6435562853    -3.8041670874
   65      C      -8.5762909245    -5.2461490991    -7.2845055738
   66      C      -8.3478839108    -3.9096459296    -7.6071836031
   67      C     -11.2050584903    -6.3638217485    -6.7398135212
   68      C     -10.0995085905    -6.5086236949    -5.9036425736
   69      C     -12.2423379363    -7.2744970110    -6.6624467873
   70      C     -12.1840615561    -8.3286234649    -5.7604045683
   71      C     -11.0792183308    -8.4723144142    -4.9332291311
   72      C     -10.0327120777    -7.5701097651    -5.0030894546
   73      C      -8.3938324776    -6.2424267566    -8.2417304585
   74      C      -7.9689520787    -5.8988062746    -9.5115031639
   75      C      -7.7285718803    -4.5696849671    -9.8342954488
   76      C      -7.9200584855    -3.5795497266    -8.8808741818
   77      H      -5.3981736147    -0.0507040594     5.3516360815
   78      H      -1.7080900232     0.1576282910     3.2144593746
   79      H      -7.0188002818    -2.2772555031     3.2130862521
   80      H      -7.4901530302    -0.6724584380     2.6926353754
   81      H      -7.3084520164    -1.0160082751     4.4115234500
   82      H      -2.8258172989    -1.9139838804     0.4463670431
   83      H      -1.4730853472    -1.1056513989     1.2012704577
   84      C      -2.6282231087     0.1568607453    -0.1026301601
   85      H      -0.8183378996     2.0311818257     6.6103789191
   86      H      -4.1292890699     2.7052763208     4.3098392509
   87      H      -5.2995218956     4.5739496622     5.3901693099
   88      H      -5.3422850773     4.7659722593     7.8613896961
   89      H      -4.2061183805     3.0403099002     9.2293958223
   90      H      -3.0641907489     1.1535294984     8.1545713506
   91      H      -2.2884428632    -1.8569723364     5.5820460036
   92      H      -0.2226156721    -2.8633268091     6.4403169887
   93      H       1.5559661545    -1.4394883450     7.4165654587
   94      H       1.2312653927     1.0154839182     7.5005050048
   95      H      -4.1412644304    -3.5790649767     2.6049787161
   96      H      -6.1549634550    -5.8972734431    -1.3043752315
   97      H      -8.0313065428    -1.4064402489    -2.9648666375
   98      H      -5.9390972396     0.8976195713     0.9092229252
   99      H      -2.8999588418    -5.5538128464     4.1609329125
  100      H      -2.0430229982    -7.6941985456     5.0298810550
  101      H      -2.4137164873    -9.8105467370     3.8725316852
  102      H      -3.5073014269   -11.0350588221     1.7475865056
  103      H      -4.7859168476   -10.7749205134    -0.3139300733
  104      H      -5.5883093150    -8.5778953762    -1.0876194601
  105      H      -7.5463687556     5.7767494182    -0.0761948466
  106      H      -6.6232017291     3.6219817684     0.6832212258
  107      H      -8.9105382319     5.9728086081    -2.0896754842
  108      H      -9.3772822809     0.4468480655    -4.4371621326
  109      H     -10.3604449056     2.5421335722    -5.2945941786
  110      H     -10.0322260011     4.6799803080    -4.1686282488
  111      H     -10.2594074635    -5.1876355869    -3.6895862180
  112      H      -6.5153090209    -4.7983281226    -5.7824285481
  113      H     -10.5341283309    -3.9881883637    -1.6304085070
  114      H      -9.1634437605    -3.3413243466    -0.7547122923
  115      C      -9.4565971552    -5.4610540974    -0.4837565164
  116      H      -4.6584954362    -3.8081459094    -4.7808069640
  117      H      -4.5331796886    -4.1894084906    -3.0586817729
  118      H      -5.0212084761    -2.5857159385    -3.5549892790
  119      H      -8.5228873903    -3.1363684581    -6.8708150794
  120      H     -11.2566327844    -5.5357949101    -7.4344993455
  121      H     -13.1050751966    -7.1556799365    -7.3034218949
  122      H     -12.9977353559    -9.0386648246    -5.7047693660
  123      H     -11.0240490945    -9.2996718299    -4.2394062659
  124      H      -9.1590966792    -7.6963193076    -4.3771189710
  125      H      -8.5717952540    -7.2787953984    -7.9866606027
  126      H      -7.8162204816    -6.6732876456   -10.2505682989
  127      H      -7.3966901681    -4.3061247377   -10.8290995453
  128      H      -7.7484351337    -2.5422064914    -9.1324067385
  129      H      -9.8123857876    -6.3300622404    -1.0401591006
  130      H     -10.0875703531    -5.3479137545     0.3971278751
  131      H      -8.4444686963    -5.6693503885    -0.1402708872
  132      H      -1.9892542134    -0.0323773148    -0.9666208751
  133      H      -2.3257349701     1.1088886599     0.3354193467
  134      H      -3.6504377685     0.2663296220    -0.4636135605
 ----------------------------------------------------------------

    9   -3006.3194737267      8.34E-09 Convergence criterion met
 Total energy in the final basis set = -3006.31947373

         TDDFT/TDA Excitation Energies
 ---------------------------------------------------

 Excited state   1: excitation energy (eV) =    2.1169
 Total energy for state  1:                 -3006.24167956 au
    Multiplicity: Singlet
    Trans. Mom.: -0.0404 X  -0.0302 Y  -0.0897 Z
    Strength   :     0.0005489223
    D(262) --> V(  1) amplitude =  0.9729

 Excited state   2: excitation energy (eV) =    2.4647
 Total energy for state  2:                 -3006.22889630 au
    Multiplicity: Singlet
    Trans. Mom.: -0.1621 X  -0.1363 Y  -0.2994 Z
    Strength   :     0.0081242050
    D(261) --> V(  1) amplitude =  0.9747

 ---------------------------------------------------

 Final energy is   -3006.24167955913
 **  OPTIMIZATION CONVERGED  **

                    Orbital Energies (a.u.)
 --------------------------------------------------------------

 Alpha MOs
 -- Occupied --
-14.668 -14.666 -10.490 -10.490 -10.487 -10.487 -10.483 -10.481
-10.466 -10.466 -10.466 -10.465 -10.465 -10.465 -10.464 -10.464
-10.463 -10.463 -10.463 -10.463 -10.462 -10.462 -10.462 -10.462
-10.461 -10.461 -10.460 -10.460 -10.460 -10.460 -10.454 -10.453
-10.453 -10.452 -10.452 -10.449 -10.449 -10.449 -10.449 -10.449
-10.448 -10.447 -10.447 -10.446 -10.446 -10.446 -10.446 -10.445
-10.445 -10.445 -10.445 -10.444 -10.444 -10.444 -10.441 -10.441
-10.440 -10.440 -10.439 -10.439 -10.435 -10.434 -10.434 -10.434
-10.433 -10.432 -10.432 -10.430 -10.428 -10.427 -10.426 -10.422
-10.422 -10.418 -10.417 -10.414  -6.947  -6.939  -1.084  -1.077
 -1.015  -1.015  -0.962  -0.962  -0.958  -0.958  -0.957  -0.956
 -0.937  -0.937  -0.934  -0.934  -0.908  -0.899  -0.881  -0.880
 -0.862  -0.858  -0.855  -0.853  -0.851  -0.848  -0.848  -0.847
 -0.840  -0.840  -0.836  -0.834  -0.823  -0.815  -0.813  -0.812
 -0.811  -0.803  -0.790  -0.787  -0.765  -0.760  -0.736  -0.731
 -0.728  -0.721  -0.711  -0.711  -0.708  -0.705  -0.698  -0.696
 -0.690  -0.684  -0.682  -0.680  -0.677  -0.675  -0.667  -0.666
 -0.648  -0.645  -0.638  -0.638  -0.633  -0.631  -0.604  -0.603
 -0.597  -0.594  -0.593  -0.590  -0.585  -0.584  -0.583  -0.576
 -0.576  -0.562  -0.560  -0.552  -0.551  -0.544  -0.543  -0.540
 -0.539  -0.536  -0.528  -0.525  -0.524  -0.518  -0.516  -0.513
 -0.508  -0.508  -0.504  -0.501  -0.499  -0.496  -0.495  -0.495
 -0.494  -0.491  -0.490  -0.488  -0.488  -0.485  -0.484  -0.484
 -0.483  -0.482  -0.481  -0.480  -0.479  -0.476  -0.474  -0.471
 -0.468  -0.467  -0.466  -0.460  -0.455  -0.453  -0.447  -0.444
 -0.441  -0.441  -0.439  -0.435  -0.430  -0.429  -0.429  -0.427
 -0.424  -0.423  -0.423  -0.421  -0.419  -0.418  -0.416  -0.413
 -0.411  -0.409  -0.405  -0.401  -0.400  -0.399  -0.398  -0.397
 -0.395  -0.395  -0.395  -0.394  -0.392  -0.391  -0.387  -0.385
 -0.378  -0.376  -0.370  -0.364  -0.357  -0.355  -0.351  -0.349
 -0.344  -0.335  -0.319  -0.314  -0.306  -0.299  -0.299  -0.296
 -0.296  -0.295  -0.295  -0.291  -0.283  -0.280  -0.280  -0.273
 -0.272  -0.262  -0.255  -0.255  -0.218  -0.212

          Ground-State Mulliken Net Atomic Charges

     Atom                 Charge (a.u.)
  ----------------------------------------
      1 C                    -0.340210
      2 C                     0.050718
      3 C                    -0.216863
      4 C                     0.073754
      5 C                    -0.341151
      6 C                     0.274516
      7 N                    -0.673755
      8 C                    -0.760390
      9 C                    -0.549335
     10 C                     0.308511
     11 C                    -0.283058
     12 C                    -0.279247
     13 C                     0.305805
     14 C                    -0.211154
     15 C                    -0.239743
     16 C                    -0.213633
     17 C                    -0.286949
     18 C                    -0.283352
     19 C                    -0.210912
     20 C                    -0.239885
     21 C                    -0.213903
     22 C                    -0.149623
     23 C                    -0.145450
     24 B                     0.674863
     25 C                    -0.150268
     26 C                    -0.139746
     27 B                     0.657171
     28 C                    -0.389143
     29 C                     0.113994
     30 C                     0.094503
     31 C                    -0.398939
     32 C                    -0.382762
     33 C                     0.096798
     34 C                     0.113559
     35 C                    -0.403010
     36 C                    -0.380013
     37 C                    -0.203128
     38 C                    -0.334147
     39 C                     0.251431
     40 C                    -0.067568
     41 C                     0.197029
     42 C                    -0.332688
     43 C                    -0.203672
     44 C                    -0.379671
     45 C                     0.202024
     46 C                    -0.202689
     47 C                    -0.382429
     48 C                     0.197028
     49 C                    -0.067445
     50 C                     0.253104
     51 C                    -0.335799
     52 C                     0.199074
     53 C                    -0.375965
     54 C                    -0.204798
     55 C                    -0.332420
     56 C                    -0.381851
     57 C                     0.091167
     58 C                    -0.249470
     59 C                     0.072471
     60 C                    -0.387942
     61 C                     0.327597
     62 N                    -0.659700
     63 C                    -0.545027
     64 C                    -0.759684
     65 C                     0.265465
     66 C                    -0.261004
     67 C                    -0.267098
     68 C                     0.265059
     69 C                    -0.215979
     70 C                    -0.234692
     71 C                    -0.217410
     72 C                    -0.262197
     73 C                    -0.267359
     74 C                    -0.216072
     75 C                    -0.234820
     76 C                    -0.217266
     77 H                     0.231130
     78 H                     0.228824
     79 H                     0.245228
     80 H                     0.246177
     81 H                     0.239213
     82 H                     0.251246
     83 H                     0.232750
     84 C                    -0.647262
     85 H                     0.246427
     86 H                     0.239999
     87 H                     0.215788
     88 H                     0.216176
     89 H                     0.219258
     90 H                     0.246948
     91 H                     0.240484
     92 H                     0.214746
     93 H                     0.215955
     94 H                     0.219107
     95 H                     0.229433
     96 H                     0.237555
     97 H                     0.231661
     98 H                     0.232976
     99 H                     0.217219
    100 H                     0.226199
    101 H                     0.221287
    102 H                     0.220992
    103 H                     0.226830
    104 H                     0.219250
    105 H                     0.226214
    106 H                     0.218189
    107 H                     0.221251
    108 H                     0.219237
    109 H                     0.226780
    110 H                     0.220821
    111 H                     0.239265
    112 H                     0.240967
    113 H                     0.229917
    114 H                     0.250260
    115 C                    -0.644975
    116 H                     0.236884
    117 H                     0.243988
    118 H                     0.244361
    119 H                     0.245560
    120 H                     0.245046
    121 H                     0.221651
    122 H                     0.218356
    123 H                     0.220859
    124 H                     0.246212
    125 H                     0.245233
    126 H                     0.221603
    127 H                     0.218304
    128 H                     0.221060
    129 H                     0.215176
    130 H                     0.218137
    131 H                     0.240770
    132 H                     0.219312
    133 H                     0.216395
    134 H                     0.244414
  ----------------------------------------
  Sum of atomic charges =    -0.000000

                    Cartesian Multipole Moments
 -----------------------------------------------------------------
    Charge (ESU x 10^10)
                -0.0000
    Dipole Moment (Debye)
         X      -0.8140      Y      -0.6786      Z      -1.1035
       Tot       1.5300
    Quadrupole Moments (Debye-Ang)
        XX    -427.0839     XY      -7.5261     YY    -388.1195
        XZ      26.0761     YZ      -3.7314     ZZ    -419.5098

 Total job time:  32859.91s(wall), 190509.07s(cpu)
        *  Thank you very much for using Q-Chem.  Have a nice day.  *
