 Q-Chem 5.0, Q-Chem, Inc., Pleasanton, CA (2017)
 Q-Chem 5.0.1 for Intel X86 EM64T Linux

User input:
--------------------------------------------------------------
$rem
threads 8
jobtype	sp
method PBEh-3c
basis def2-mSVP
mem_static	1024
mem_total	14000
sym_ignore	true
cis_n_roots             6
cis_singlets            true
cis_triplets		true
rpa                     false
calc_soc 		true
cis_moments             true
cis_relaxed_density	true
$end

$molecule
read t1opt.mol
$end

--------------------------------------------------------------

             Standard Nuclear Orientation (Angstroms)
    I     Atom           X                Y                Z
 ----------------------------------------------------------------
    1      N       0.0000000000     0.0000000000     0.0000000000
    2      C       0.0000000000     0.0000000000     1.4040320000
    3      C       1.2023036197     0.0000000000     2.1106356384
    4      H       2.1416258170    -0.0091809471     1.5730528269
    5      C       1.2004852666     0.0170691628     3.4952272347
    6      H       2.1435230263     0.0191931252     4.0265480742
    7      C       0.0060830278     0.0127473925     4.1998127598
    8      H       0.0079371646     0.0188707326     5.2815558400
    9      C      -1.1914518399     0.0011578794     3.4994562090
   10      H      -2.1317744603     0.0054941941     4.0355259994
   11      C      -1.1998960477     0.0053637269     2.1147483431
   12      H      -2.1397335767     0.0128861758     1.5780411687
   13      C       0.9570215093     0.7671706937    -0.6857436566
   14      C       1.6651615512     0.2358413666    -1.7620650021
   15      H       1.4741955472    -0.7810515232    -2.0786429929
   16      C       2.6082555720     1.0047917397    -2.4241999274
   17      H       3.1490365379     0.5780612820    -3.2589921021
   18      C       2.8753584632     2.3031970533    -2.0160240788
   19      H       3.6181099362     2.8972860293    -2.5313318790
   20      C       2.1771592902     2.8313290073    -0.9398238454
   21      H       2.3686161208     3.8455287705    -0.6137067414
   22      C       1.2182953569     2.0774039485    -0.2852970598
   23      H       0.6694191158     2.5019078055     0.5456505898
   24      C      -0.8668818835    -0.8466994863    -0.7150770102
   25      C      -1.1545024899    -2.1250992073    -0.2598960256
   26      H      -0.7122385521    -2.4770066065     0.6657854773
   27      C      -1.9906308379    -2.9699220048    -0.9820125716
   28      C      -1.4395922436    -0.4163541011    -1.9093582034
   29      H      -1.2315355242     0.5847602646    -2.2685672942
   30      C      -2.2497227853    -1.2588838517    -2.6544418836
   31      C      -2.5359065207    -2.5579698424    -2.2024057499
   32      C      -2.8259525627    -0.7651934434    -3.9525300789
   33      H      -2.4660945804     0.2342079268    -4.1951538143
   34      H      -3.9164024962    -0.7237615700    -3.9179664419
   35      H      -2.5604269943    -1.4214658212    -4.7838863042
   36      C      -2.3068553520    -4.3189342903    -0.3905706353
   37      H      -2.6024869820    -5.0236771317    -1.1714532119
   38      H      -1.4080048154    -4.7388043828     0.0691701717
   39      C      -3.4126535614    -4.2297911352     0.6588802189
   40      H      -4.3369063298    -3.8488777555     0.2233227527
   41      H      -3.6272071491    -5.2079212043     1.0907737135
   42      H      -3.1277934038    -3.5601280473     1.4715873304
   43      B      -3.4044118648    -3.5257878575    -3.0946788632
   44      C      -4.9366018917    -3.4948989149    -3.0487647656
   45      C      -5.5850301670    -2.6358339221    -2.1556179750
   46      H      -4.9935872881    -1.9866767600    -1.5185932662
   47      C      -6.9578301692    -2.6208106180    -2.0815270271
   48      C      -7.8633323840    -1.8543111312    -1.2569514664
   49      C      -7.7163475604    -0.8911002940    -0.2839452573
   50      H      -6.7417005069    -0.5374250766     0.0277388132
   51      C      -8.8766622748    -0.3589369614     0.3124317996
   52      H      -8.7645915236     0.3982241066     1.0777126387
   53      C     -10.1451314707    -0.7647068754    -0.0427474767
   54      H     -11.0057670319    -0.3240559999     0.4452653639
   55      C      -9.1668250922    -2.2654036461    -1.6148779126
   56      C     -10.3266197287    -1.7529846069    -1.0412285699
   57      C      -9.1472234985    -3.2526308819    -2.6233953402
   58      C     -10.3467133292    -3.7467534348    -3.0773082295
   59      H     -10.3955367258    -4.5039912762    -3.8488083685
   60      C     -11.5379980929    -3.2440239676    -2.5129978304
   61      H     -12.4828565661    -3.6323585546    -2.8695693356
   62      C     -11.5453924836    -2.2809236703    -1.5285333042
   63      H     -12.4867441458    -1.9263462749    -1.1271755266
   64      C      -7.7493272382    -3.4922651262    -2.9319223200
   65      C      -7.1274973541    -4.3324792929    -3.8215867670
   66      H      -7.7108763477    -4.9820654636    -4.4631194307
   67      C      -5.7254650030    -4.3585073350    -3.9140492969
   68      C      -2.7222192268    -4.5209186353    -4.0474532917
   69      C      -1.3275103337    -4.6090737851    -4.0665797961
   70      H      -0.7465752724    -3.9647124855    -3.4163220499
   71      C      -0.6994678798    -5.5108295200    -4.8928928590
   72      C       0.6977209712    -5.8094177714    -5.0839826343
   73      C       1.8711030533    -5.3374117872    -4.5412522666
   74      H       1.8793562252    -4.5592964522    -3.7883258004
   75      C       3.0835583591    -5.8967902820    -4.9891035680
   76      H       4.0104272989    -5.5313500945    -4.5664669890
   77      C       3.1326648267    -6.8913041049    -5.9427858781
   78      H       4.0910188907    -7.2888293707    -6.2528236627
   79      C       0.7549785011    -6.8293027599    -6.0600048490
   80      C       1.9394926239    -7.3962113562    -6.5164371415
   81      C      -0.5331705588    -7.2009714157    -6.5034426391
   82      C      -0.6355899054    -8.1882801230    -7.4530133731
   83      H      -1.5949069516    -8.5178314422    -7.8303639271
   84      C       0.5507903909    -8.7793286432    -7.9372821300
   85      H       0.4708928966    -9.5564561825    -8.6858419253
   86      C       1.8018110075    -8.4089233221    -7.4952449963
   87      H       2.6813015639    -8.8952815700    -7.8982919378
   88      C      -1.4725432706    -6.3729311185    -5.7678976434
   89      C      -2.8435040401    -6.2885373147    -5.7703129426
   90      H      -3.4317044600    -6.9213931022    -6.4253742950
   91      C      -3.5050007466    -5.3798152481    -4.9243048223
   92      B      -5.0405817078    -5.2970946364    -4.9208506706
   93      C      -5.9134596093    -6.1695061834    -5.9020766033
   94      C      -6.4137506130    -5.6372407458    -7.0971710980
   95      C      -7.1938538342    -6.4209858649    -7.9388418954
   96      H      -7.5710620804    -6.0049919296    -8.8662521293
   97      C      -7.5118807456    -7.7282964573    -7.5982494096
   98      C      -7.0347347322    -8.2540842255    -6.4031721520
   99      H      -7.2964920426    -9.2678006006    -6.1238267677
  100      C      -6.2356703132    -7.4918054134    -5.5632448525
  101      N      -8.3266456782    -8.5085948773    -8.4437647503
  102      C      -9.5426772307    -7.9847287332    -8.9034782612
  103      C     -10.0050337346    -8.2755777343   -10.1867060572
  104      H      -9.4182899816    -8.9114989904   -10.8368386717
  105      C     -11.2072705522    -7.7505867929   -10.6297667409
  106      H     -11.5508255335    -7.9864065958   -11.6286376577
  107      C     -11.9586435005    -6.9140934825    -9.8171017666
  108      H     -12.8923636800    -6.4989127224   -10.1716160934
  109      C     -11.4952611473    -6.6164164218    -8.5442131089
  110      H     -12.0713574682    -5.9701056648    -7.8944209655
  111      C     -10.3050099338    -7.1520876597    -8.0836584854
  112      H      -9.9601966690    -6.9229563260    -7.0836109914
  113      C      -7.9543007956    -9.8325014940    -8.7182144933
  114      C      -8.8965755460   -10.8600522407    -8.7171159438
  115      H      -9.9346220714   -10.6367289988    -8.5069404549
  116      C      -8.5065931491   -12.1637612032    -8.9751013344
  117      H      -9.2510266524   -12.9493819168    -8.9676906786
  118      C      -7.1757423080   -12.4702939673    -9.2175501036
  119      H      -6.8746715697   -13.4914347342    -9.4085305360
  120      C      -6.2354580215   -11.4500626478    -9.2087401077
  121      H      -5.1932707396   -11.6711245614    -9.3999652624
  122      C      -6.6179665112   -10.1413729231    -8.9715045608
  123      H      -5.8794565497    -9.3499736124    -8.9746381217
  124      C      -5.7461447511    -8.0736444641    -4.2653272555
  125      H      -6.1348105530    -9.0783048279    -4.1018047169
  126      H      -4.6562062108    -8.1342318187    -4.2355962016
  127      H      -6.0494864300    -7.4594403056    -3.4147608725
  128      C      -6.0759092192    -4.2282275355    -7.5138192744
  129      H      -6.8759174233    -3.8333522420    -8.1449991659
  130      H      -6.0377554095    -3.5771837563    -6.6361497019
  131      C      -4.7507000833    -4.1370134805    -8.2667407580
  132      H      -3.9166043503    -4.4607361218    -7.6442661783
  133      H      -4.7624417574    -4.7652266350    -9.1580102784
  134      H      -4.5497928539    -3.1121549415    -8.5809875773
 ----------------------------------------------------------------

   15   -3006.3198870662      6.50E-09 Convergence criterion met
 Total energy in the final basis set = -3006.31988707

         TDDFT/TDA Excitation Energies
 ---------------------------------------------------

 Excited state   1: excitation energy (eV) =    1.9877
 Total energy for state  1:                 -3006.24684100 au
    Multiplicity: Triplet
    Trans. Mom.:  0.0000 X   0.0000 Y   0.0000 Z
    Strength   :     0.0000000000
    D(255) --> V(  2) amplitude = -0.2482
    D(260) --> V(  1) amplitude =  0.9232

 Excited state   2: excitation energy (eV) =    2.3322
 Total energy for state  2:                 -3006.23417949 au
    Multiplicity: Triplet
    Trans. Mom.:  0.0000 X   0.0000 Y   0.0000 Z
    Strength   :     0.0000000000
    D(261) --> V(  1) amplitude = -0.5787
    D(262) --> V(  1) amplitude =  0.7406

 Excited state   3: excitation energy (eV) =    2.3609
 Total energy for state  3:                 -3006.23312641 au
    Multiplicity: Singlet
    Trans. Mom.:  0.0334 X   0.0619 Y   0.0326 Z
    Strength   :     0.0003473649
    D(261) --> V(  1) amplitude =  0.7179
    D(262) --> V(  1) amplitude = -0.6563

 Excited state   4: excitation energy (eV) =    2.3651
 Total energy for state  4:                 -3006.23297051 au
    Multiplicity: Triplet
    Trans. Mom.:  0.0000 X   0.0000 Y   0.0000 Z
    Strength   :     0.0000000000
    D(258) --> V(  2) amplitude =  0.3676
    D(259) --> V(  1) amplitude =  0.6249
    D(261) --> V(  1) amplitude = -0.5297
    D(262) --> V(  1) amplitude = -0.2650

 Excited state   5: excitation energy (eV) =    2.3795
 Total energy for state  5:                 -3006.23244361 au
    Multiplicity: Triplet
    Trans. Mom.:  0.0000 X   0.0000 Y   0.0000 Z
    Strength   :     0.0000000000
    D(258) --> V(  2) amplitude =  0.3072
    D(259) --> V(  1) amplitude =  0.4957
    D(261) --> V(  1) amplitude =  0.5462
    D(262) --> V(  1) amplitude =  0.4643

 Excited state   6: excitation energy (eV) =    2.3982
 Total energy for state  6:                 -3006.23175546 au
    Multiplicity: Singlet
    Trans. Mom.:  0.3027 X   0.2514 Y   0.2541 Z
    Strength   :     0.0128901979
    D(261) --> V(  1) amplitude =  0.6612
    D(262) --> V(  1) amplitude =  0.7195

 Excited state   7: excitation energy (eV) =    2.4326
 Total energy for state  7:                 -3006.23049100 au
    Multiplicity: Triplet
    Trans. Mom.:  0.0000 X   0.0000 Y   0.0000 Z
    Strength   :     0.0000000000
    D(258) --> V(  1) amplitude = -0.6844
    D(258) --> V(  4) amplitude =  0.2122
    D(259) --> V(  2) amplitude = -0.4932
    D(262) --> V(  1) amplitude = -0.2987

 Excited state   8: excitation energy (eV) =    2.5069
 Total energy for state  8:                 -3006.22776028 au
    Multiplicity: Triplet
    Trans. Mom.:  0.0000 X   0.0000 Y   0.0000 Z
    Strength   :     0.0000000000
    D(255) --> V(  1) amplitude =  0.6670
    D(259) --> V(  2) amplitude =  0.2302
    D(260) --> V(  2) amplitude = -0.5272

 Excited state   9: excitation energy (eV) =    2.6726
 Total energy for state  9:                 -3006.22167191 au
    Multiplicity: Singlet
    Trans. Mom.: -0.1825 X   0.0914 Y   0.0743 Z
    Strength   :     0.0030898798
    D(260) --> V(  1) amplitude =  0.9641

 Excited state  10: excitation energy (eV) =    3.1709
 Total energy for state 10:                 -3006.20335854 au
    Multiplicity: Singlet
    Trans. Mom.: -2.9202 X   1.3322 Y   1.2965 Z
    Strength   :     0.9309311049
    D(259) --> V(  1) amplitude =  0.9433

 Excited state  11: excitation energy (eV) =    3.5043
 Total energy for state 11:                 -3006.19110786 au
    Multiplicity: Singlet
    Trans. Mom.:  0.0531 X  -0.0100 Y  -0.0459 Z
    Strength   :     0.0004313007
    D(261) --> V(  2) amplitude = -0.6036
    D(262) --> V(  2) amplitude =  0.7896

 Excited state  12: excitation energy (eV) =    3.5208
 Total energy for state 12:                 -3006.19050076 au
    Multiplicity: Singlet
    Trans. Mom.:  0.0630 X   0.0258 Y   0.0240 Z
    Strength   :     0.0004497404
    D(261) --> V(  2) amplitude =  0.7900
    D(262) --> V(  2) amplitude =  0.6039

 ---------------------------------------------------

                    Orbital Energies (a.u.)
 --------------------------------------------------------------

 Alpha MOs
 -- Occupied --
-14.668 -14.666 -10.489 -10.489 -10.488 -10.488 -10.483 -10.481
-10.467 -10.467 -10.467 -10.466 -10.466 -10.466 -10.464 -10.464
-10.464 -10.464 -10.464 -10.464 -10.464 -10.463 -10.462 -10.462
-10.461 -10.461 -10.461 -10.461 -10.461 -10.460 -10.454 -10.453
-10.453 -10.452 -10.451 -10.451 -10.449 -10.449 -10.448 -10.448
-10.447 -10.447 -10.447 -10.447 -10.446 -10.446 -10.445 -10.445
-10.444 -10.444 -10.443 -10.443 -10.442 -10.442 -10.442 -10.442
-10.441 -10.441 -10.440 -10.439 -10.436 -10.436 -10.434 -10.434
-10.434 -10.434 -10.434 -10.433 -10.432 -10.432 -10.426 -10.425
-10.420 -10.420 -10.419 -10.418  -6.944  -6.943  -1.078  -1.077
 -1.015  -1.015  -0.961  -0.959  -0.959  -0.958  -0.957  -0.956
 -0.938  -0.937  -0.935  -0.935  -0.906  -0.897  -0.882  -0.881
 -0.864  -0.859  -0.858  -0.855  -0.849  -0.849  -0.849  -0.849
 -0.838  -0.836  -0.836  -0.835  -0.818  -0.816  -0.813  -0.812
 -0.812  -0.798  -0.791  -0.790  -0.764  -0.763  -0.734  -0.734
 -0.731  -0.719  -0.712  -0.711  -0.706  -0.705  -0.697  -0.697
 -0.690  -0.683  -0.681  -0.679  -0.678  -0.673  -0.668  -0.668
 -0.646  -0.643  -0.638  -0.638  -0.634  -0.633  -0.605  -0.604
 -0.599  -0.595  -0.593  -0.591  -0.586  -0.585  -0.584  -0.577
 -0.576  -0.561  -0.560  -0.552  -0.551  -0.543  -0.543  -0.540
 -0.540  -0.537  -0.528  -0.525  -0.522  -0.520  -0.518  -0.511
 -0.510  -0.508  -0.503  -0.502  -0.499  -0.497  -0.496  -0.495
 -0.494  -0.492  -0.492  -0.490  -0.484  -0.484  -0.483  -0.483
 -0.482  -0.482  -0.481  -0.480  -0.480  -0.477  -0.475  -0.471
 -0.468  -0.466  -0.465  -0.461  -0.454  -0.454  -0.446  -0.445
 -0.442  -0.440  -0.438  -0.436  -0.430  -0.430  -0.429  -0.427
 -0.424  -0.423  -0.421  -0.421  -0.419  -0.419  -0.416  -0.412
 -0.410  -0.409  -0.404  -0.402  -0.400  -0.399  -0.397  -0.397
 -0.397  -0.396  -0.396  -0.395  -0.392  -0.390  -0.388  -0.386
 -0.377  -0.376  -0.373  -0.365  -0.359  -0.356  -0.351  -0.348
 -0.345  -0.337  -0.322  -0.316  -0.303  -0.300  -0.298  -0.297
 -0.297  -0.296  -0.294  -0.292  -0.284  -0.282  -0.276  -0.273
 -0.272  -0.262  -0.255  -0.249  -0.219  -0.218

          Ground-State Mulliken Net Atomic Charges

     Atom                 Charge (a.u.)
  ----------------------------------------
      1 N                    -0.674596
      2 C                     0.290879
      3 C                    -0.279501
      4 H                     0.245809
      5 C                    -0.213429
      6 H                     0.220257
      7 C                    -0.237675
      8 H                     0.217646
      9 C                    -0.214183
     10 H                     0.218825
     11 C                    -0.273536
     12 H                     0.240421
     13 C                     0.284832
     14 C                    -0.272280
     15 H                     0.239586
     16 C                    -0.214424
     17 H                     0.219330
     18 C                    -0.236734
     19 H                     0.217988
     20 C                    -0.214241
     21 H                     0.220451
     22 C                    -0.273166
     23 H                     0.244720
     24 C                     0.314399
     25 C                    -0.356987
     26 H                     0.234759
     27 C                     0.074216
     28 C                    -0.361743
     29 H                     0.234760
     30 C                     0.058333
     31 C                    -0.228831
     32 C                    -0.759490
     33 H                     0.239052
     34 H                     0.244425
     35 H                     0.245133
     36 C                    -0.545534
     37 H                     0.251918
     38 H                     0.230732
     39 C                    -0.639545
     40 H                     0.232547
     41 H                     0.219727
     42 H                     0.217627
     43 B                     0.669531
     44 C                    -0.146676
     45 C                    -0.391107
     46 H                     0.233403
     47 C                     0.083515
     48 C                     0.202124
     49 C                    -0.371936
     50 H                     0.219902
     51 C                    -0.204567
     52 H                     0.227244
     53 C                    -0.331687
     54 H                     0.221204
     55 C                    -0.071820
     56 C                     0.249991
     57 C                     0.202496
     58 C                    -0.375180
     59 H                     0.218122
     60 C                    -0.204136
     61 H                     0.226783
     62 C                    -0.333489
     63 H                     0.221384
     64 C                     0.099267
     65 C                    -0.379239
     66 H                     0.231137
     67 C                    -0.154519
     68 C                    -0.155796
     69 C                    -0.375207
     70 H                     0.230884
     71 C                     0.084207
     72 C                     0.198893
     73 C                    -0.368245
     74 H                     0.219501
     75 C                    -0.205728
     76 H                     0.227282
     77 C                    -0.331673
     78 H                     0.221030
     79 C                    -0.071772
     80 C                     0.251604
     81 C                     0.203070
     82 C                    -0.377575
     83 H                     0.218879
     84 C                    -0.203586
     85 H                     0.226636
     86 C                    -0.334982
     87 H                     0.221314
     88 C                     0.100566
     89 C                    -0.394368
     90 H                     0.234221
     91 C                    -0.149683
     92 B                     0.667712
     93 C                    -0.218845
     94 C                     0.077295
     95 C                    -0.346946
     96 H                     0.229920
     97 C                     0.285015
     98 C                    -0.346156
     99 H                     0.232024
    100 C                     0.054401
    101 N                    -0.673541
    102 C                     0.304103
    103 C                    -0.281198
    104 H                     0.245564
    105 C                    -0.214079
    106 H                     0.219410
    107 C                    -0.239171
    108 H                     0.216394
    109 C                    -0.211651
    110 H                     0.215731
    111 C                    -0.280723
    112 H                     0.240118
    113 C                     0.299346
    114 C                    -0.283314
    115 H                     0.246027
    116 C                    -0.214275
    117 H                     0.219714
    118 C                    -0.238496
    119 H                     0.216715
    120 C                    -0.212022
    121 H                     0.216323
    122 C                    -0.275597
    123 H                     0.239842
    124 C                    -0.759606
    125 H                     0.238783
    126 H                     0.245805
    127 H                     0.245084
    128 C                    -0.550930
    129 H                     0.232647
    130 H                     0.252164
    131 C                    -0.646860
    132 H                     0.244431
    133 H                     0.216373
    134 H                     0.218773
  ----------------------------------------
  Sum of atomic charges =    -0.000000

                    Cartesian Multipole Moments
 -----------------------------------------------------------------
    Charge (ESU x 10^10)
                -0.0000
    Dipole Moment (Debye)
         X       0.3878      Y       0.1022      Z       0.6199
       Tot       0.7383
    Quadrupole Moments (Debye-Ang)
        XX    -396.0720     XY     -13.8222     YY    -430.2990
        XZ     -16.2157     YZ      18.1742     ZZ    -435.6607

 Total job time:  18650.73s(wall), 56411.31s(cpu)
        *  Thank you very much for using Q-Chem.  Have a nice day.  *
