 Q-Chem 5.0, Q-Chem, Inc., Pleasanton, CA (2017)
 Q-Chem 5.0.1 for Intel X86 EM64T Linux

User input:
--------------------------------------------------------------
$rem
threads 8
jobtype	opt
method PBEh-3c
basis def2-mSVP
mem_static	1024
mem_total	14000
sym_ignore	true
cis_n_roots             2
cis_singlets            false
cis_triplets		true
rpa                     false
cis_state_deriv         1
$end

$molecule
read incoords.mol
$end

--------------------------------------------------------------

   15   -3006.2702420760      5.42E-09 Convergence criterion met
 Total energy in the final basis set = -3006.27024208
   12   -3006.3041609162      7.45E-09 Convergence criterion met
 Total energy in the final basis set = -3006.30416092
   12   -3006.3142483982      9.24E-09 Convergence criterion met
 Total energy in the final basis set = -3006.31424840
   12   -3006.3135767806      9.06E-09 Convergence criterion met
 Total energy in the final basis set = -3006.31357678
   13   -3006.3144314333      4.66E-09 Convergence criterion met
 Total energy in the final basis set = -3006.31443143
   12   -3006.3145165265      6.38E-09 Convergence criterion met
 Total energy in the final basis set = -3006.31451653
   12   -3006.3141424349      7.33E-09 Convergence criterion met
 Total energy in the final basis set = -3006.31414243
   12   -3006.3141382507      6.15E-09 Convergence criterion met
   11   -3006.3196901152      5.35E-09 Convergence criterion met
 Total energy in the final basis set = -3006.31969012
   10   -3006.3199627431      7.99E-09 Convergence criterion met
 Total energy in the final basis set = -3006.31996274
   10   -3006.3197857702      7.33E-09 Convergence criterion met
 Total energy in the final basis set = -3006.31978577
   10   -3006.3199068169      5.77E-09 Convergence criterion met
 Total energy in the final basis set = -3006.31990682
   10   -3006.3199029760      5.10E-09 Convergence criterion met
 Total energy in the final basis set = -3006.31990298
    9   -3006.3199234553      7.22E-09 Convergence criterion met
 Total energy in the final basis set = -3006.31992346

             Standard Nuclear Orientation (Angstroms)
    I     Atom           X                Y                Z
 ----------------------------------------------------------------
    1      C      -4.7559627082    -0.1699933921     4.4491479725
    2      C      -5.3957376721    -0.7773967390     3.3782603939
    3      C      -4.6840258617    -1.0781397069     2.2077384042
    4      C      -3.3222634183    -0.7566710806     2.1436236755
    5      C      -2.7013378457    -0.1276862291     3.2160311051
    6      C      -3.4092313744     0.1659623380     4.3731232872
    7      N      -2.7660976879     0.7792182116     5.4676100990
    8      C      -6.8488193190    -1.1503507600     3.4888074802
    9      C      -2.5215922408    -1.0406669844     0.8981024147
   10      C      -1.5623511956     0.2445213713     5.9467745137
   11      C      -0.5539875190     1.0779510949     6.4301350676
   12      C      -4.0563791985     2.8264814205     5.3784555842
   13      C      -3.4003816823     1.8453289086     6.1216620885
   14      C      -4.7149713318     3.8633080575     6.0160359301
   15      C      -4.7167125477     3.9536756787     7.4005629317
   16      C      -4.0569662353     2.9840062776     8.1410927576
   17      C      -3.4116574286     1.9316115331     7.5131255225
   18      C      -1.3512617651    -1.1345629505     5.9360070883
   19      C      -0.1544855545    -1.6624954256     6.3885193730
   20      C       0.8437788986    -0.8332484937     6.8778027053
   21      C       0.6313901120     0.5375669580     6.8993443704
   22      C      -6.8468856451    -1.7168136543    -1.1472011285
   23      C      -6.2358103009    -1.0249461669    -0.0214900606
   24      B      -5.4089881797    -1.8073003549     1.0125072073
   25      C      -5.3193943295    -3.3363346074     0.8795160727
   26      C      -5.9231168252    -4.0196206546    -0.2542740748
   27      B      -6.6930962759    -3.2362152572    -1.3238895887
   28      C      -4.6517066056    -4.0875030950     1.8617893602
   29      C      -4.5587723799    -5.4522973766     1.7484951654
   30      C      -5.1495027250    -6.1279625946     0.6067479437
   31      C      -5.8099006903    -5.4095108250    -0.3617537523
   32      C      -7.5927806967    -0.9881535404    -2.0778162210
   33      C      -7.7635127008     0.3673409644    -1.9232864401
   34      C      -7.1602819267     1.0642463652    -0.8021563521
   35      C      -6.4131178766     0.3641022337     0.1133800059
   36      C      -3.2428602565    -6.4623588790     3.7685116268
   37      C      -2.7888043291    -7.6944022904     4.2845016413
   38      C      -3.0198431233    -8.8956296293     3.6516823774
   39      C      -3.7379862129    -8.9307607737     2.4332286322
   40      C      -4.1738918609    -7.7021699376     1.9460725179
   41      C      -3.9436779533    -6.4655120804     2.5862198490
   42      C      -4.0639496835   -10.0644589878     1.6489632483
   43      C      -4.7727090147    -9.9187306697     0.4758306709
   44      C      -5.2022611530    -8.6635461517     0.0012872586
   45      C      -4.9000425542    -7.5443672209     0.7444049247
   46      C      -7.8197968516     4.8229823255    -0.6354068361
   47      C      -7.2689154262     3.6032642982    -0.1880016337
   48      C      -7.5199835120     2.4665541325    -0.9172524315
   49      C      -8.3179252035     2.5775284871    -2.0770271640
   50      C      -8.8759770311     3.7641082990    -2.5389764941
   51      C      -8.5982654623     4.9177961804    -1.7679471398
   52      C      -8.4899879782     1.3285355270    -2.7145807738
   53      C      -9.2510735916     1.2619866811    -3.8593482107
   54      C      -9.8259532399     2.4519824480    -4.3461209742
   55      C      -9.6533356205     3.6680434028    -3.7197190272
   56      C      -9.1870784007    -4.8858045056    -3.7975345359
   57      C      -8.6516208431    -4.3357482038    -2.6377886263
   58      C      -7.3067254740    -3.9549496593    -2.5864286856
   59      C      -6.5073262351    -4.1811670662    -3.7194110887
   60      C      -7.0468238633    -4.7586457477    -4.8581733128
   61      C      -8.3961498155    -5.0982698372    -4.9171384596
   62      N      -8.9415174682    -5.6296082231    -6.1003426293
   63      C      -9.5585639472    -4.1958086936    -1.4430049121
   64      C      -5.0520059253    -3.8034410567    -3.7064265638
   65      C      -8.5773149799    -5.0906501769    -7.3459612675
   66      C      -8.4333708244    -3.7151913003    -7.5181053643
   67      C     -11.0576106722    -6.5375616483    -6.8737017886
   68      C      -9.9380115719    -6.6172110225    -6.0460694312
   69      C     -12.0311510061    -7.5213158224    -6.8308702389
   70      C     -11.9192690673    -8.5875457140    -5.9512722554
   71      C     -10.8121371544    -8.6632226207    -5.1186530226
   72      C      -9.8229913425    -7.6954689538    -5.1691273310
   73      C      -8.3647805881    -5.9343032034    -8.4361034779
   74      C      -8.0300607188    -5.4094713713    -9.6725267143
   75      C      -7.8795520253    -4.0405433829    -9.8398418996
   76      C      -8.0779071406    -3.2004535361    -8.7541570953
   77      H      -5.3079070371     0.0397183605     5.3577460124
   78      H      -1.6488391725     0.1255190997     3.1563677811
   79      H      -7.0007246943    -2.2163261269     3.3061955008
   80      H      -7.4594324255    -0.6166992987     2.7574463786
   81      H      -7.2489552271    -0.9247899990     4.4768141133
   82      H      -2.8505507437    -1.9812351175     0.4478412284
   83      H      -1.4721519673    -1.1875469773     1.1653649845
   84      C      -2.6245642160     0.0767232979    -0.1373811544
   85      H      -0.7004925590     2.1502647594     6.4342166114
   86      H      -4.0526458333     2.7677712126     4.2975956097
   87      H      -5.2215063011     4.6136559442     5.4227484795
   88      H      -5.2277710128     4.7680685790     7.8959708730
   89      H      -4.0579067381     3.0338355414     9.2222734158
   90      H      -2.9196118188     1.1687337700     8.1026135003
   91      H      -2.1279397062    -1.7928067715     5.5686119774
   92      H      -0.0082085987    -2.7349126957     6.3695595465
   93      H       1.7753798877    -1.2495221367     7.2365860443
   94      H       1.4033645989     1.1990951581     7.2705857280
   95      H      -4.2093445115    -3.5753132422     2.7078597192
   96      H      -6.2534152767    -5.9144366528    -1.2134308389
   97      H      -8.0425953984    -1.5049121045    -2.9181433532
   98      H      -5.9506172051     0.8747196144     0.9506105559
   99      H      -3.0349165924    -5.5458828518     4.3050162633
  100      H      -2.2370256689    -7.6930791788     5.2152231779
  101      H      -2.6499793204    -9.8154571139     4.0876563659
  102      H      -3.7556268422   -11.0516765711     1.9704640098
  103      H      -5.0087905438   -10.8004552436    -0.1058348900
  104      H      -5.7541890066    -8.6008264141    -0.9280194809
  105      H      -7.6217396236     5.7188505267    -0.0619558162
  106      H      -6.6666431179     3.5814331492     0.7109305180
  107      H      -8.9985996510     5.8782681900    -2.0674827894
  108      H      -9.4149223126     0.3281652397    -4.3823781645
  109      H     -10.4263995959     2.4075697482    -5.2454241641
  110      H     -10.1174392688     4.5543204113    -4.1341025511
  111      H     -10.2409279332    -5.1402074736    -3.8291896170
  112      H      -6.4166598398    -4.9313276589    -5.7228252973
  113      H     -10.5491803626    -3.8678171375    -1.7696331360
  114      H      -9.1917949521    -3.4186502345    -0.7682136714
  115      C      -9.6919798201    -5.5111478863    -0.6786975516
  116      H      -4.5834520324    -3.9844204995    -4.6733136401
  117      H      -4.4959884764    -4.3725147487    -2.9587686303
  118      H      -4.9145555813    -2.7470491241    -3.4666479148
  119      H      -8.6002891670    -3.0506834226    -6.6806522957
  120      H     -11.1633892845    -5.7040666157    -7.5559801178
  121      H     -12.8920355037    -7.4438411527    -7.4824078517
  122      H     -12.6850267015    -9.3507718205    -5.9150744648
  123      H     -10.7071037790    -9.4935917871    -4.4323207884
  124      H      -8.9552826541    -7.7726799957    -4.5268454416
  125      H      -8.4679021203    -7.0047389118    -8.3116998374
  126      H      -7.8714620489    -6.0790412636   -10.5080697572
  127      H      -7.6095232022    -3.6334523930   -10.8049970483
  128      H      -7.9689677319    -2.1300286217    -8.8713896937
  129      H     -10.0926942902    -6.2974569500    -1.3199718740
  130      H     -10.3593204405    -5.4047653595     0.1772481339
  131      H      -8.7242316607    -5.8478989128    -0.3057222841
  132      H      -2.0112000300    -0.1434696744    -1.0118803406
  133      H      -2.2885354423     1.0275499514     0.2775448960
  134      H      -3.6510795885     0.2087526468    -0.4791712316
 ----------------------------------------------------------------

    8   -3006.3199098641      9.81E-09 Convergence criterion met
 Total energy in the final basis set = -3006.31990986

         TDDFT/TDA Excitation Energies
 ---------------------------------------------------

 Excited state   1: excitation energy (eV) =    1.9875
 Total energy for state  1:                 -3006.24687234 au
    Multiplicity: Triplet
    Trans. Mom.:  0.0000 X   0.0000 Y   0.0000 Z
    Strength   :     0.0000000000
    D(255) --> V(  2) amplitude = -0.2482
    D(260) --> V(  1) amplitude = -0.9235

 Excited state   2: excitation energy (eV) =    2.3318
 Total energy for state  2:                 -3006.23421732 au
    Multiplicity: Triplet
    Trans. Mom.:  0.0000 X   0.0000 Y   0.0000 Z
    Strength   :     0.0000000000
    D(261) --> V(  1) amplitude =  0.5847
    D(262) --> V(  1) amplitude =  0.7407

 ---------------------------------------------------

 Final energy is   -3006.24687233522
 **  OPTIMIZATION CONVERGED  **

                    Orbital Energies (a.u.)
 --------------------------------------------------------------

 Alpha MOs
 -- Occupied --
-14.668 -14.666 -10.489 -10.489 -10.488 -10.488 -10.483 -10.481
-10.467 -10.467 -10.467 -10.466 -10.466 -10.466 -10.464 -10.464
-10.464 -10.464 -10.464 -10.464 -10.464 -10.463 -10.462 -10.462
-10.461 -10.461 -10.461 -10.461 -10.461 -10.460 -10.454 -10.453
-10.453 -10.452 -10.451 -10.451 -10.449 -10.448 -10.448 -10.448
-10.447 -10.447 -10.447 -10.447 -10.446 -10.446 -10.445 -10.445
-10.444 -10.444 -10.443 -10.443 -10.442 -10.442 -10.442 -10.442
-10.441 -10.441 -10.440 -10.439 -10.436 -10.435 -10.434 -10.434
-10.434 -10.434 -10.434 -10.433 -10.432 -10.432 -10.426 -10.425
-10.421 -10.420 -10.419 -10.418  -6.944  -6.943  -1.078  -1.077
 -1.015  -1.015  -0.961  -0.959  -0.959  -0.958  -0.957  -0.956
 -0.938  -0.937  -0.935  -0.935  -0.906  -0.897  -0.882  -0.881
 -0.864  -0.859  -0.858  -0.855  -0.849  -0.849  -0.849  -0.849
 -0.838  -0.836  -0.836  -0.835  -0.818  -0.816  -0.813  -0.812
 -0.812  -0.798  -0.791  -0.790  -0.764  -0.763  -0.734  -0.734
 -0.731  -0.719  -0.712  -0.711  -0.706  -0.705  -0.697  -0.697
 -0.690  -0.683  -0.681  -0.679  -0.678  -0.673  -0.668  -0.668
 -0.646  -0.643  -0.638  -0.638  -0.634  -0.633  -0.605  -0.605
 -0.599  -0.595  -0.593  -0.591  -0.586  -0.585  -0.584  -0.577
 -0.576  -0.561  -0.560  -0.552  -0.551  -0.543  -0.543  -0.540
 -0.540  -0.537  -0.528  -0.525  -0.522  -0.520  -0.518  -0.511
 -0.510  -0.508  -0.503  -0.502  -0.499  -0.497  -0.496  -0.495
 -0.494  -0.492  -0.492  -0.490  -0.484  -0.484  -0.483  -0.483
 -0.482  -0.482  -0.481  -0.480  -0.480  -0.477  -0.475  -0.471
 -0.468  -0.466  -0.465  -0.461  -0.454  -0.454  -0.446  -0.445
 -0.442  -0.440  -0.438  -0.436  -0.430  -0.430  -0.429  -0.427
 -0.425  -0.423  -0.421  -0.421  -0.419  -0.419  -0.416  -0.412
 -0.410  -0.409  -0.404  -0.402  -0.400  -0.399  -0.397  -0.397
 -0.397  -0.396  -0.396  -0.395  -0.392  -0.390  -0.388  -0.386
 -0.377  -0.376  -0.373  -0.365  -0.359  -0.356  -0.351  -0.348
 -0.345  -0.337  -0.322  -0.316  -0.303  -0.300  -0.298  -0.297
 -0.297  -0.296  -0.294  -0.292  -0.284  -0.282  -0.276  -0.273
 -0.272  -0.262  -0.255  -0.249  -0.219  -0.218

          Ground-State Mulliken Net Atomic Charges

     Atom                 Charge (a.u.)
  ----------------------------------------
      1 C                    -0.346085
      2 C                     0.054642
      3 C                    -0.218996
      4 C                     0.077400
      5 C                    -0.346969
      6 C                     0.284936
      7 N                    -0.673457
      8 C                    -0.759512
      9 C                    -0.550673
     10 C                     0.303936
     11 C                    -0.281196
     12 C                    -0.275516
     13 C                     0.299247
     14 C                    -0.212027
     15 C                    -0.238527
     16 C                    -0.214226
     17 C                    -0.283421
     18 C                    -0.280647
     19 C                    -0.211645
     20 C                    -0.239130
     21 C                    -0.214083
     22 C                    -0.156068
     23 C                    -0.149414
     24 B                     0.668032
     25 C                    -0.155150
     26 C                    -0.146495
     27 B                     0.669562
     28 C                    -0.379467
     29 C                     0.098940
     30 C                     0.083875
     31 C                    -0.391485
     32 C                    -0.375535
     33 C                     0.084130
     34 C                     0.100601
     35 C                    -0.394749
     36 C                    -0.375162
     37 C                    -0.204201
     38 C                    -0.333342
     39 C                     0.249964
     40 C                    -0.071891
     41 C                     0.203004
     42 C                    -0.331768
     43 C                    -0.204578
     44 C                    -0.371924
     45 C                     0.202129
     46 C                    -0.203659
     47 C                    -0.377480
     48 C                     0.203278
     49 C                    -0.071814
     50 C                     0.251573
     51 C                    -0.335031
     52 C                     0.199160
     53 C                    -0.368366
     54 C                    -0.205743
     55 C                    -0.331558
     56 C                    -0.357192
     57 C                     0.074950
     58 C                    -0.228762
     59 C                     0.058328
     60 C                    -0.362076
     61 C                     0.314583
     62 N                    -0.674484
     63 C                    -0.545649
     64 C                    -0.759325
     65 C                     0.284905
     66 C                    -0.272297
     67 C                    -0.279639
     68 C                     0.291064
     69 C                    -0.213550
     70 C                    -0.237600
     71 C                    -0.214242
     72 C                    -0.273678
     73 C                    -0.273232
     74 C                    -0.214311
     75 C                    -0.236755
     76 C                    -0.214351
     77 H                     0.232013
     78 H                     0.229922
     79 H                     0.245034
     80 H                     0.245784
     81 H                     0.238770
     82 H                     0.252129
     83 H                     0.232628
     84 C                    -0.646866
     85 H                     0.245560
     86 H                     0.239847
     87 H                     0.216323
     88 H                     0.216723
     89 H                     0.219730
     90 H                     0.246064
     91 H                     0.240160
     92 H                     0.215730
     93 H                     0.216358
     94 H                     0.219408
     95 H                     0.231046
     96 H                     0.233366
     97 H                     0.230843
     98 H                     0.234213
     99 H                     0.218172
    100 H                     0.226776
    101 H                     0.221387
    102 H                     0.221200
    103 H                     0.227263
    104 H                     0.219911
    105 H                     0.226652
    106 H                     0.218911
    107 H                     0.221328
    108 H                     0.219557
    109 H                     0.227272
    110 H                     0.220999
    111 H                     0.234782
    112 H                     0.234741
    113 H                     0.230722
    114 H                     0.251972
    115 C                    -0.639923
    116 H                     0.239014
    117 H                     0.244379
    118 H                     0.245091
    119 H                     0.239531
    120 H                     0.245866
    121 H                     0.220282
    122 H                     0.217682
    123 H                     0.218836
    124 H                     0.240501
    125 H                     0.244703
    126 H                     0.220462
    127 H                     0.218004
    128 H                     0.219329
    129 H                     0.217721
    130 H                     0.219807
    131 H                     0.232612
    132 H                     0.218756
    133 H                     0.216385
    134 H                     0.244425
  ----------------------------------------
  Sum of atomic charges =    -0.000000

                    Cartesian Multipole Moments
 -----------------------------------------------------------------
    Charge (ESU x 10^10)
                -0.0000
    Dipole Moment (Debye)
         X      -0.5897      Y      -0.3035      Z      -0.3230
       Tot       0.7377
    Quadrupole Moments (Debye-Ang)
        XX    -430.8206     XY     -11.7254     YY    -390.3596
        XZ      20.4233     YZ      -8.1514     ZZ    -422.9498

 Total job time:  95093.38s(wall), 576230.44s(cpu)
        *  Thank you very much for using Q-Chem.  Have a nice day.  *
