 Q-Chem 5.0, Q-Chem, Inc., Pleasanton, CA (2017)
 Q-Chem 5.0.1 for Intel X86 EM64T Linux

User input:
--------------------------------------------------------------
$rem
threads 8
jobtype	opt
method PBEh-3c
basis def2-mSVP
mem_static	1024
mem_total	14000
sym_ignore	true
cis_n_roots             3
cis_singlets            false
cis_triplets		true
rpa                     false
cis_state_deriv         2
state_follow		true
$end

$molecule
read incoords.mol
$end

--------------------------------------------------------------

   15   -3006.2702420759      5.42E-09 Convergence criterion met
 Total energy in the final basis set = -3006.27024208
   12   -3006.3041549561      7.44E-09 Convergence criterion met
 Total energy in the final basis set = -3006.30415496
   12   -3006.3141191509      9.53E-09 Convergence criterion met
 Total energy in the final basis set = -3006.31411915
   12   -3006.3136162538      9.39E-09 Convergence criterion met
 Total energy in the final basis set = -3006.31361625
   13   -3006.3141795013      4.35E-09 Convergence criterion met
 Total energy in the final basis set = -3006.31417950
   12   -3006.3132288150      7.81E-09 Convergence criterion met
 Total energy in the final basis set = -3006.31322881
   12   -3006.3119001486      9.14E-09 Convergence criterion met
 Total energy in the final basis set = -3006.31190015
   12   -3006.3128942969      8.54E-09 Convergence criterion met
   10   -3006.3197997951      6.19E-09 Convergence criterion met
 Total energy in the final basis set = -3006.31979980
   10   -3006.3198344665      5.08E-09 Convergence criterion met
 Total energy in the final basis set = -3006.31983447
   10   -3006.3198936641      4.06E-09 Convergence criterion met
 Total energy in the final basis set = -3006.31989366
    9   -3006.3199011005      5.78E-09 Convergence criterion met
 Total energy in the final basis set = -3006.31990110
    8   -3006.3198928708      9.29E-09 Convergence criterion met
 Total energy in the final basis set = -3006.31989287
    8   -3006.3199147161      4.28E-09 Convergence criterion met
 Total energy in the final basis set = -3006.31991472

             Standard Nuclear Orientation (Angstroms)
    I     Atom           X                Y                Z
 ----------------------------------------------------------------
    1      C      -4.7571156057    -0.1715446414     4.4500366984
    2      C      -5.3962713468    -0.7781759015     3.3783532347
    3      C      -4.6840471986    -1.0775798036     2.2077760870
    4      C      -3.3223772172    -0.7556610355     2.1445409044
    5      C      -2.7020734055    -0.1273887562     3.2177455395
    6      C      -3.4104784665     0.1650861826     4.3748457617
    7      N      -2.7680600378     0.7776943062     5.4700795466
    8      C      -6.8493056858    -1.1515480563     3.4880240084
    9      C      -2.5210894713    -1.0384909369     0.8991705905
   10      C      -1.5633861836     0.2439362971     5.9482420791
   11      C      -0.5549469107     1.0780706007     6.4301324696
   12      C      -4.0599113198     2.8242009901     5.3832935662
   13      C      -3.4031526247     1.8426628699     6.1253204572
   14      C      -4.7194474941     3.8596790471     6.0220871324
   15      C      -4.7214643723     3.9483080919     7.4066929645
   16      C      -4.0610798281     2.9782096253     8.1460933457
   17      C      -3.4148261300     1.9271540042     7.5169207742
   18      C      -1.3514117905    -1.1350222252     5.9372903896
   19      C      -0.1538036085    -1.6621542682     6.3884396326
   20      C       0.8444954317    -0.8321798400     6.8764612157
   21      C       0.6313267143     0.5384782656     6.8980170567
   22      C      -6.8461522985    -1.7155224982    -1.1490434973
   23      C      -6.2347158226    -1.0231479900    -0.0218662047
   24      B      -5.4084497584    -1.8062019448     1.0118785847
   25      C      -5.3185572037    -3.3351519770     0.8775426631
   26      C      -5.9215645569    -4.0175200143    -0.2556537460
   27      B      -6.6916355557    -3.2345444125    -1.3256438233
   28      C      -4.6504935277    -4.0865020022     1.8587802233
   29      C      -4.5574437242    -5.4517591899     1.7446227527
   30      C      -5.1476412179    -6.1265366249     0.6036967652
   31      C      -5.8078295533    -5.4085562714    -0.3638846565
   32      C      -7.5921840147    -0.9868903213    -2.0795962994
   33      C      -7.7634347979     0.3683078284    -1.9247936366
   34      C      -7.1597704369     1.0656437042    -0.8021085380
   35      C      -6.4122738722     0.3651972291     0.1134000276
   36      C      -3.2409000692    -6.4611573841     3.7641760946
   37      C      -2.7859187105    -7.6928969539     4.2802617662
   38      C      -3.0162277869    -8.8943356449     3.6474809988
   39      C      -3.7345136255    -8.9302316755     2.4289881698
   40      C      -4.1713291392    -7.7019271995     1.9418497304
   41      C      -3.9418417580    -6.4648596792     2.5819742659
   42      C      -4.0595618236   -10.0642728548     1.6450708820
   43      C      -4.7682743271    -9.9188467269     0.4724492564
   44      C      -5.1987099229    -8.6631719952    -0.0018445579
   45      C      -4.8972985339    -7.5446096516     0.7409143776
   46      C      -7.8198841816     4.8229496240    -0.6334544357
   47      C      -7.2688223987     3.6033903896    -0.1866116709
   48      C      -7.5196980451     2.4668534623    -0.9167657453
   49      C      -8.3177580453     2.5782528451    -2.0768605590
   50      C      -8.8759754436     3.7650481803    -2.5381378844
   51      C      -8.5983319910     4.9182267606    -1.7661726328
   52      C      -8.4897134697     1.3295695220    -2.7152629243
   53      C      -9.2508704202     1.2636258642    -3.8601050883
   54      C      -9.8257513742     2.4538350231    -4.3460106875
   55      C      -9.6532791458     3.6695494947    -3.7189256106
   56      C      -9.1871837249    -4.8851320327    -3.7971989338
   57      C      -8.6510202727    -4.3345009744    -2.6380577305
   58      C      -7.3061218548    -3.9536921793    -2.5875976760
   59      C      -6.5073248627    -4.1806023920    -3.7209000052
   60      C      -7.0474943659    -4.7585698710    -4.8590833322
   61      C      -8.3968910590    -5.0981846319    -4.9171551037
   62      N      -8.9430060332    -5.6300728626    -6.0996993855
   63      C      -9.5571241354    -4.1944479058    -1.4426202818
   64      C      -5.0520469800    -3.8025802815    -3.7091133716
   65      C      -8.5778129766    -5.0934710064    -7.3460611794
   66      C      -8.4319746587    -3.7184690302    -7.5201894222
   67      C     -11.0600841821    -6.5359962014    -6.8722999394
   68      C      -9.9407276499    -6.6163926588    -6.0444446075
   69      C     -12.0349994162    -7.5183544932    -6.8286860422
   70      C     -11.9247050331    -8.5839019480    -5.9480192749
   71      C     -10.8177739898    -8.6603017877    -5.1151605105
   72      C      -9.8272884203    -7.6939378439    -5.1664533528
   73      C      -8.3663885090    -5.9390198010    -8.4349331373
   74      C      -8.0307554573    -5.4164644563    -9.6720842546
   75      C      -7.8782954083    -4.0479843635    -9.8413797400
   76      C      -8.0756323827    -3.2060106904    -8.7569440527
   77      H      -5.3095213398     0.0371257793     5.3585961324
   78      H      -1.6496415542     0.1262115386     3.1586096739
   79      H      -7.0010589137    -2.2170765552     3.3027968154
   80      H      -7.4600110434    -0.6161177115     2.7580343171
   81      H      -7.2494039147    -0.9284383382     4.4766064966
   82      H      -2.8502545138    -1.9782974193     0.4475039480
   83      H      -1.4719329284    -1.1862771607     1.1670279084
   84      C      -2.6225070234     0.0803503046    -0.1348894565
   85      H      -0.7020639153     2.1502920771     6.4341614604
   86      H      -4.0560543113     2.7668683188     4.3023685671
   87      H      -5.2265194161     4.6103468509     5.4296764563
   88      H      -5.2332743178     4.7616382424     7.9030533493
   89      H      -4.0622963173     3.0266640639     9.2273299764
   90      H      -2.9224255103     1.1638788050     8.1055686152
   91      H      -2.1281161298    -1.7937316892     5.5708049878
   92      H      -0.0068120309    -2.7344645843     6.3694326976
   93      H       1.7767755631    -1.2478169247     7.2341966156
   94      H       1.4033549238     1.2005220570     7.2682123736
   95      H      -4.2078386688    -3.5749062249     2.7050688281
   96      H      -6.2511253112    -5.9129713094    -1.2159552144
   97      H      -8.0416096099    -1.5035872408    -2.9201543762
   98      H      -5.9499521126     0.8756746204     0.9508100070
   99      H      -3.0334988884    -5.5444881066     4.3005904759
  100      H      -2.2340452367    -7.6911480928     5.2109341746
  101      H      -2.6456465696    -9.8138421126     4.0835598367
  102      H      -3.7505085004   -11.0512663535     1.9666126099
  103      H      -5.0040567342   -10.8004200072    -0.1095524893
  104      H      -5.7507724143    -8.6008248484    -0.9311279516
  105      H      -7.6221658540     5.7186227618    -0.0595853157
  106      H      -6.6666660030     3.5810167808     0.7123512535
  107      H      -8.9987622633     5.8788538854    -2.0650761271
  108      H      -9.4145661217     0.3300285280    -4.3835273072
  109      H     -10.4262259646     2.4100914871    -5.2453234464
  110      H     -10.1175243969     4.5559563805    -4.1328573484
  111      H     -10.2410353922    -5.1396663879    -3.8280546161
  112      H      -6.4178094054    -4.9317363727    -5.7239963136
  113      H     -10.5479734943    -3.8663142113    -1.7684214636
  114      H      -9.1896479028    -3.4174691291    -0.7680072756
  115      C      -9.6899068330    -5.5098737335    -0.6782742733
  116      H      -4.5830259163    -3.9882798087    -4.6748948300
  117      H      -4.4961394300    -4.3677730096    -2.9584351401
  118      H      -4.9149549873    -2.7449574469    -3.4745712623
  119      H      -8.5981609842    -3.0525289981    -6.6837386983
  120      H     -11.1645328757    -5.7030257151    -7.5554242387
  121      H     -12.8956580462    -7.4403685110    -7.4804771452
  122      H     -12.6915361976    -9.3460314658    -5.9111834361
  123      H     -10.7140008190    -9.4901181245    -4.4279583127
  124      H      -8.9597918785    -7.7716698201    -4.5239564398
  125      H      -8.4710821877    -7.0091164528    -8.3089740423
  126      H      -7.8730018682    -6.0874654423   -10.5066465487
  127      H      -7.6075700510    -3.6426767464   -10.8071035640
  128      H      -7.9652132072    -2.1359073004    -8.8757553710
  129      H     -10.0911460014    -6.2961326874    -1.3192822524
  130      H     -10.3564876329    -5.4035808409     0.1782900275
  131      H      -8.7217794851    -5.8465931662    -0.3061947490
  132      H      -2.0090139277    -0.1393806323    -1.0094195576
  133      H      -2.2856065921     1.0302711188     0.2814060360
  134      H      -3.6487330642     0.2139027627    -0.4769315582
 ----------------------------------------------------------------

    8   -3006.3198962574      6.16E-09 Convergence criterion met
 Total energy in the final basis set = -3006.31989626

         TDDFT/TDA Excitation Energies
 ---------------------------------------------------

 Excited state   1: excitation energy (eV) =    1.9867
 Total energy for state  1:                 -3006.24688752 au
    Multiplicity: Triplet
    Trans. Mom.:  0.0000 X   0.0000 Y   0.0000 Z
    Strength   :     0.0000000000
    D(255) --> V(  2) amplitude =  0.2481
    D(260) --> V(  1) amplitude =  0.9242

 Excited state   2: excitation energy (eV) =    2.3306
 Total energy for state  2:                 -3006.23424756 au
    Multiplicity: Triplet
    Trans. Mom.:  0.0000 X   0.0000 Y   0.0000 Z
    Strength   :     0.0000000000
    D(261) --> V(  1) amplitude =  0.5725
    D(262) --> V(  1) amplitude =  0.7453

 Excited state   3: excitation energy (eV) =    2.3635
 Total energy for state  3:                 -3006.23303912 au
    Multiplicity: Triplet
    Trans. Mom.:  0.0000 X   0.0000 Y   0.0000 Z
    Strength   :     0.0000000000
    D(258) --> V(  2) amplitude =  0.3563
    D(259) --> V(  1) amplitude = -0.6099
    D(261) --> V(  1) amplitude =  0.5488
    D(262) --> V(  1) amplitude = -0.2611

 ---------------------------------------------------

 Final energy is   -3006.24688751508
 **  OPTIMIZATION CONVERGED  **

                    Orbital Energies (a.u.)
 --------------------------------------------------------------

 Alpha MOs
 -- Occupied --
-14.668 -14.666 -10.489 -10.489 -10.488 -10.488 -10.483 -10.481
-10.467 -10.467 -10.467 -10.466 -10.466 -10.466 -10.465 -10.464
-10.464 -10.464 -10.464 -10.464 -10.463 -10.463 -10.462 -10.462
-10.461 -10.461 -10.461 -10.461 -10.461 -10.460 -10.454 -10.453
-10.453 -10.452 -10.451 -10.451 -10.449 -10.448 -10.448 -10.448
-10.447 -10.447 -10.447 -10.447 -10.446 -10.446 -10.445 -10.445
-10.444 -10.444 -10.443 -10.443 -10.442 -10.442 -10.442 -10.442
-10.441 -10.441 -10.440 -10.439 -10.436 -10.435 -10.434 -10.434
-10.434 -10.434 -10.434 -10.433 -10.432 -10.432 -10.426 -10.425
-10.421 -10.420 -10.419 -10.418  -6.944  -6.943  -1.078  -1.077
 -1.015  -1.015  -0.961  -0.959  -0.959  -0.958  -0.957  -0.956
 -0.938  -0.937  -0.935  -0.935  -0.906  -0.897  -0.882  -0.881
 -0.864  -0.859  -0.858  -0.855  -0.849  -0.849  -0.849  -0.849
 -0.838  -0.836  -0.836  -0.835  -0.818  -0.816  -0.813  -0.812
 -0.812  -0.798  -0.791  -0.790  -0.764  -0.763  -0.734  -0.734
 -0.731  -0.719  -0.712  -0.711  -0.706  -0.705  -0.697  -0.697
 -0.690  -0.683  -0.681  -0.679  -0.678  -0.673  -0.668  -0.668
 -0.646  -0.643  -0.638  -0.638  -0.634  -0.633  -0.605  -0.605
 -0.599  -0.595  -0.593  -0.591  -0.586  -0.585  -0.584  -0.577
 -0.576  -0.561  -0.560  -0.552  -0.551  -0.543  -0.543  -0.540
 -0.540  -0.537  -0.528  -0.525  -0.522  -0.520  -0.518  -0.511
 -0.510  -0.508  -0.503  -0.502  -0.499  -0.497  -0.496  -0.495
 -0.494  -0.492  -0.492  -0.490  -0.484  -0.484  -0.483  -0.483
 -0.482  -0.482  -0.481  -0.480  -0.480  -0.477  -0.475  -0.471
 -0.468  -0.466  -0.465  -0.461  -0.454  -0.454  -0.446  -0.445
 -0.442  -0.440  -0.438  -0.436  -0.430  -0.430  -0.429  -0.427
 -0.424  -0.423  -0.421  -0.421  -0.419  -0.419  -0.416  -0.412
 -0.410  -0.409  -0.404  -0.402  -0.400  -0.399  -0.398  -0.397
 -0.396  -0.396  -0.396  -0.395  -0.392  -0.390  -0.388  -0.386
 -0.377  -0.376  -0.373  -0.365  -0.359  -0.356  -0.351  -0.348
 -0.345  -0.337  -0.322  -0.316  -0.303  -0.300  -0.298  -0.297
 -0.297  -0.296  -0.294  -0.292  -0.284  -0.282  -0.276  -0.273
 -0.272  -0.262  -0.255  -0.249  -0.219  -0.218

          Ground-State Mulliken Net Atomic Charges

     Atom                 Charge (a.u.)
  ----------------------------------------
      1 C                    -0.346176
      2 C                     0.054691
      3 C                    -0.219102
      4 C                     0.077402
      5 C                    -0.347010
      6 C                     0.285116
      7 N                    -0.673518
      8 C                    -0.759510
      9 C                    -0.550673
     10 C                     0.303731
     11 C                    -0.281026
     12 C                    -0.275530
     13 C                     0.299236
     14 C                    -0.212017
     15 C                    -0.238518
     16 C                    -0.214220
     17 C                    -0.283304
     18 C                    -0.280515
     19 C                    -0.211673
     20 C                    -0.239081
     21 C                    -0.214098
     22 C                    -0.156222
     23 C                    -0.149334
     24 B                     0.668186
     25 C                    -0.154670
     26 C                    -0.146989
     27 B                     0.669393
     28 C                    -0.379635
     29 C                     0.099512
     30 C                     0.084531
     31 C                    -0.391893
     32 C                    -0.375359
     33 C                     0.083652
     34 C                     0.099790
     35 C                    -0.394321
     36 C                    -0.375294
     37 C                    -0.204082
     38 C                    -0.333517
     39 C                     0.249879
     40 C                    -0.071401
     41 C                     0.202457
     42 C                    -0.331671
     43 C                    -0.204727
     44 C                    -0.372698
     45 C                     0.202577
     46 C                    -0.203646
     47 C                    -0.377036
     48 C                     0.203373
     49 C                    -0.072242
     50 C                     0.251495
     51 C                    -0.334999
     52 C                     0.199616
     53 C                    -0.368129
     54 C                    -0.205803
     55 C                    -0.331420
     56 C                    -0.357337
     57 C                     0.074824
     58 C                    -0.228840
     59 C                     0.058462
     60 C                    -0.362252
     61 C                     0.314805
     62 N                    -0.674488
     63 C                    -0.545620
     64 C                    -0.759356
     65 C                     0.284838
     66 C                    -0.272277
     67 C                    -0.279604
     68 C                     0.291010
     69 C                    -0.213553
     70 C                    -0.237603
     71 C                    -0.214257
     72 C                    -0.273701
     73 C                    -0.273252
     74 C                    -0.214308
     75 C                    -0.236758
     76 C                    -0.214361
     77 H                     0.232025
     78 H                     0.229927
     79 H                     0.245071
     80 H                     0.245751
     81 H                     0.238779
     82 H                     0.252134
     83 H                     0.232639
     84 C                    -0.646809
     85 H                     0.245469
     86 H                     0.239829
     87 H                     0.216324
     88 H                     0.216731
     89 H                     0.219736
     90 H                     0.245988
     91 H                     0.240154
     92 H                     0.215764
     93 H                     0.216383
     94 H                     0.219423
     95 H                     0.231030
     96 H                     0.233476
     97 H                     0.230864
     98 H                     0.234201
     99 H                     0.218103
    100 H                     0.226727
    101 H                     0.221327
    102 H                     0.221162
    103 H                     0.227233
    104 H                     0.219844
    105 H                     0.226677
    106 H                     0.218972
    107 H                     0.221350
    108 H                     0.219628
    109 H                     0.227301
    110 H                     0.221042
    111 H                     0.234846
    112 H                     0.234801
    113 H                     0.230688
    114 H                     0.251998
    115 C                    -0.639922
    116 H                     0.238996
    117 H                     0.244427
    118 H                     0.245008
    119 H                     0.239569
    120 H                     0.245879
    121 H                     0.220283
    122 H                     0.217690
    123 H                     0.218859
    124 H                     0.240547
    125 H                     0.244719
    126 H                     0.220466
    127 H                     0.218005
    128 H                     0.219328
    129 H                     0.217685
    130 H                     0.219783
    131 H                     0.232645
    132 H                     0.218760
    133 H                     0.216367
    134 H                     0.244366
  ----------------------------------------
  Sum of atomic charges =    -0.000000

                    Cartesian Multipole Moments
 -----------------------------------------------------------------
    Charge (ESU x 10^10)
                -0.0000
    Dipole Moment (Debye)
         X      -0.5934      Y      -0.2777      Z      -0.3297
       Tot       0.7334
    Quadrupole Moments (Debye-Ang)
        XX    -430.7136     XY     -11.8686     YY    -390.5133
        XZ      20.4734     YZ      -8.0944     ZZ    -422.9192

 Total job time:  101283.73s(wall), 614866.40s(cpu)
        *  Thank you very much for using Q-Chem.  Have a nice day.  *
