 Q-Chem 5.0, Q-Chem, Inc., Pleasanton, CA (2017)
 Q-Chem 5.0.1 for Intel X86 EM64T Linux

User input:
--------------------------------------------------------------
$rem
threads 8
jobtype	opt
method PBEh-3c
basis def2-mSVP
mem_static	1024
mem_total	14000
sym_ignore	true
cis_n_roots             4
cis_singlets            false
cis_triplets		true
rpa                     false
cis_state_deriv         3
state_follow		true
$end

$molecule
read incoords.mol
$end

--------------------------------------------------------------

   15   -3006.2702420760      5.42E-09 Convergence criterion met
 Total energy in the final basis set = -3006.27024208
   12   -3006.3048829314      7.53E-09 Convergence criterion met
 Total energy in the final basis set = -3006.30488293
   12   -3006.3156342498      7.45E-09 Convergence criterion met
 Total energy in the final basis set = -3006.31563425
   12   -3006.3178435263      7.96E-09 Convergence criterion met
 Total energy in the final basis set = -3006.31784353
   12   -3006.3187437749      9.28E-09 Convergence criterion met
 Total energy in the final basis set = -3006.31874377
   12   -3006.3184695290      6.67E-09 Convergence criterion met
 Total energy in the final basis set = -3006.31846953
   12   -3006.3181711444      8.08E-09 Convergence criterion met
 Total energy in the final basis set = -3006.31817114
   12   -3006.3187651533      7.42E-09 Convergence criterion met
   10   -3006.3198589244      8.82E-09 Convergence criterion met
 Total energy in the final basis set = -3006.31985892
   10   -3006.3199057696      5.47E-09 Convergence criterion met
 Total energy in the final basis set = -3006.31990577
   10   -3006.3199272213      4.68E-09 Convergence criterion met
 Total energy in the final basis set = -3006.31992722
    9   -3006.3199187025      9.79E-09 Convergence criterion met
 Total energy in the final basis set = -3006.31991870
    9   -3006.3199060532      5.93E-09 Convergence criterion met
 Total energy in the final basis set = -3006.31990605
    8   -3006.3199078239      8.34E-09 Convergence criterion met
 Total energy in the final basis set = -3006.31990782

             Standard Nuclear Orientation (Angstroms)
    I     Atom           X                Y                Z
 ----------------------------------------------------------------
    1      C      -4.7574578914    -0.1707783661     4.4498216036
    2      C      -5.3964558551    -0.7779924071     3.3783338372
    3      C      -4.6839044317    -1.0785072726     2.2082529422
    4      C      -3.3221052710    -0.7571188004     2.1453084953
    5      C      -2.7019590207    -0.1283171055     3.2182529760
    6      C      -3.4106994465     0.1653386284     4.3748621328
    7      N      -2.7684516230     0.7786309574     5.4698301443
    8      C      -6.8498076840    -1.1502962691     3.4875740460
    9      C      -2.5206648123    -1.0409849929     0.9003032918
   10      C      -1.5640025603     0.2449953134     5.9486231692
   11      C      -0.5556345921     1.0792263078     6.4305472583
   12      C      -4.0596651793     2.8254828185     5.3810012806
   13      C      -3.4034421329     1.8443279690     6.1240174320
   14      C      -4.7190276790     3.8617236645     6.0187465692
   15      C      -4.7214547132     3.9514915822     7.4032836384
   16      C      -4.0615869696     2.9817963944     8.1436661356
   17      C      -3.4154558390     1.9300209336     7.5155403169
   18      C      -1.3520465755    -1.1339575848     5.9380905542
   19      C      -0.1546120658    -1.6610207182     6.3898278967
   20      C       0.8435738872    -0.8309709636     6.8779175580
   21      C       0.6304725338     0.5397171514     6.8989469883
   22      C      -6.8456639451    -1.7160866656    -1.1486902437
   23      C      -6.2341885766    -1.0238860965    -0.0215566471
   24      B      -5.4083306498    -1.8070831937     1.0123479657
   25      C      -5.3187041743    -3.3360713266     0.8781171900
   26      C      -5.9216081825    -4.0182903902    -0.2551843472
   27      B      -6.6914952182    -3.2351406434    -1.3252474486
   28      C      -4.6509351996    -4.0875566263     1.8593958962
   29      C      -4.5581810939    -5.4528613091     1.7452656578
   30      C      -5.1483188420    -6.1274870607     0.6042985258
   31      C      -5.8081751790    -5.4093681479    -0.3633931182
   32      C      -7.5912826611    -0.9872312138    -2.0793887149
   33      C      -7.7619494400     0.3681083180    -1.9247579925
   34      C      -7.1582045699     1.0652302179    -0.8021532496
   35      C      -6.4112256135     0.3645707451     0.1135775668
   36      C      -3.2422134028    -6.4625047463     3.7651026176
   37      C      -2.7876607829    -7.6943481090     4.2813141172
   38      C      -3.0182014269    -8.8957601061     3.6485462410
   39      C      -3.7362934276    -8.9315241558     2.4299196558
   40      C      -4.1726782998    -7.7031176463     1.9426542658
   41      C      -3.9429688196    -6.4660747038     2.5827652671
   42      C      -4.0615366047   -10.0654989064     1.6459965324
   43      C      -4.7700061272    -9.9199207224     0.4732497597
   44      C      -5.1999966224    -8.6641284345    -0.0011617497
   45      C      -4.8983878027    -7.5456524382     0.7416152050
   46      C      -7.8161790627     4.8230261829    -0.6342786157
   47      C      -7.2659383869     3.6032779325    -0.1871089112
   48      C      -7.5173279187     2.4666777184    -0.9170924703
   49      C      -8.3150848045     2.5783263103    -2.0773383787
   50      C      -8.8725056520     3.7653650872    -2.5389520827
   51      C      -8.5943809656     4.9185588857    -1.7672025739
   52      C      -8.4875792399     1.3295897853    -2.7155474980
   53      C      -9.2485296445     1.2638662033    -3.8606326853
   54      C      -9.8226108338     2.4542928672    -4.3468682368
   55      C      -9.6495905402     3.6701041925    -3.7199196923
   56      C      -9.1871239364    -4.8856122696    -3.7967857668
   57      C      -8.6508532517    -4.3351794937    -2.6375914373
   58      C      -7.3059815660    -3.9541993277    -2.5872459852
   59      C      -6.5073356366    -4.1807849120    -3.7207167797
   60      C      -7.0476007806    -4.7585673012    -4.8589485799
   61      C      -8.3970022029    -5.0982775077    -4.9169230576
   62      N      -8.9433463435    -5.6298199502    -6.0995172242
   63      C      -9.5569679180    -4.1952105609    -1.4421405656
   64      C      -5.0521492687    -3.8024161878    -3.7091077757
   65      C      -8.5784224577    -5.0929493644    -7.3458725838
   66      C      -8.4335055611    -3.7178535367    -7.5200034383
   67      C     -11.0606235821    -6.5353614846    -6.8718762525
   68      C      -9.9410420915    -6.6161545512    -6.0443622011
   69      C     -12.0355578514    -7.5177119302    -6.8284493669
   70      C     -11.9250445251    -8.5836754743    -5.9483207811
   71      C     -10.8178971937    -8.6604722204    -5.1157816453
   72      C      -9.8274223078    -7.6940873523    -5.1668528627
   73      C      -8.3667295058    -5.9383115796    -8.4348487972
   74      C      -8.0315241244    -5.4155200950    -9.6720277740
   75      C      -7.8798480902    -4.0469541298    -9.8412798791
   76      C      -8.0776408669    -3.2051376701    -8.7567938452
   77      H      -5.3101438189     0.0388221735     5.3579981830
   78      H      -1.6494237077     0.1248960086     3.1592845723
   79      H      -7.0023532858    -2.2157265689     3.3024203169
   80      H      -7.4598559326    -0.6144756052     2.7573007621
   81      H      -7.2500638302    -0.9267655122     4.4759890101
   82      H      -2.8496817059    -1.9812504355     0.4495244142
   83      H      -1.4714819590    -1.1883151841     1.1683287671
   84      C      -2.6224196837     0.0768745751    -0.1347944834
   85      H      -0.7026585575     2.1514647750     6.4341736574
   86      H      -4.0555320214     2.7672758260     4.3001212444
   87      H      -5.2256701636     4.6120611080     5.4255408377
   88      H      -5.2331455475     4.7654035574     7.8988214222
   89      H      -4.0630936053     3.0311129421     9.2248682897
   90      H      -2.9234554069     1.1671023674     8.1049899554
   91      H      -2.1286517629    -1.7927661507     5.5715517809
   92      H      -0.0077069149    -2.7333535328     6.3711887239
   93      H       1.7757225132    -1.2465519479     7.2360791155
   94      H       1.4024197053     1.2018564347     7.2691496437
   95      H      -4.2082740493    -3.5761101077     2.7057793939
   96      H      -6.2515237996    -5.9136578582    -1.2155151744
   97      H      -8.0408586441    -1.5037892153    -2.9199652906
   98      H      -5.9488564605     0.8749073694     0.9510354954
   99      H      -3.0346520409    -5.5458689488     4.3015133901
  100      H      -2.2359374870    -7.6927343307     5.2120803475
  101      H      -2.6479356781    -9.8153295037     4.0847512448
  102      H      -3.7528165458   -11.0525666963     1.9676282705
  103      H      -5.0059515802   -10.8014442261    -0.1087699880
  104      H      -5.7518757533    -8.6016669968    -0.9305493365
  105      H      -7.6180407652     5.7186941650    -0.0605683861
  106      H      -6.6639337911     3.5807493000     0.7119441154
  107      H      -8.9941855616     5.8793598577    -2.0663786722
  108      H      -9.4126265427     0.3302953476    -4.3839784368
  109      H     -10.4228821837     2.4107172572    -5.2463216339
  110      H     -10.1132170741     4.5567184955    -4.1341048473
  111      H     -10.2409727914    -5.1401619897    -3.8275933167
  112      H      -6.4180087220    -4.9314388297    -5.7239780624
  113      H     -10.5477173381    -3.8668427511    -1.7680194401
  114      H      -9.1894529049    -3.4183895144    -0.7673624369
  115      C      -9.6901373093    -5.5107187920    -0.6779862635
  116      H      -4.5832506990    -3.9879016046    -4.6749853432
  117      H      -4.4959827899    -4.3675432003    -2.9585708257
  118      H      -4.9153100285    -2.7447812660    -3.4744919677
  119      H      -8.6000954099    -3.0520184011    -6.6835506961
  120      H     -11.1652540306    -5.7020804655    -7.5545961150
  121      H     -12.8963782899    -7.4393735145    -7.4799817788
  122      H     -12.6918656882    -9.3458204067    -5.9116346413
  123      H     -10.7139224002    -9.4906287772    -4.4290247819
  124      H      -8.9597339012    -7.7721987370    -4.5246555378
  125      H      -8.4708576410    -7.0084657325    -8.3089541794
  126      H      -7.8735104530    -6.0863978714   -10.5066406468
  127      H      -7.6094780728    -3.6414585201   -10.8070217714
  128      H      -7.9679348725    -2.1349576039    -8.8755767222
  129      H     -10.0917119000    -6.2967636584    -1.3190416015
  130      H     -10.3566162695    -5.4042776616     0.1786342570
  131      H      -8.7221216864    -5.8478593332    -0.3060076645
  132      H      -2.0087907557    -0.1433705782    -1.0091008249
  133      H      -2.2859116970     1.0272790547     0.2807064820
  134      H      -3.6487000118     0.2097092703    -0.4769963010
 ----------------------------------------------------------------

    7   -3006.3199125804      8.10E-09 Convergence criterion met
 Total energy in the final basis set = -3006.31991258

         TDDFT/TDA Excitation Energies
 ---------------------------------------------------

 Excited state   1: excitation energy (eV) =    1.9872
 Total energy for state  1:                 -3006.24688610 au
    Multiplicity: Triplet
    Trans. Mom.:  0.0000 X   0.0000 Y   0.0000 Z
    Strength   :     0.0000000000
    D(255) --> V(  2) amplitude =  0.2482
    D(260) --> V(  1) amplitude =  0.9242

 Excited state   2: excitation energy (eV) =    2.3307
 Total energy for state  2:                 -3006.23426003 au
    Multiplicity: Triplet
    Trans. Mom.:  0.0000 X   0.0000 Y   0.0000 Z
    Strength   :     0.0000000000
    D(261) --> V(  1) amplitude =  0.5735
    D(262) --> V(  1) amplitude =  0.7436

 Excited state   3: excitation energy (eV) =    2.3633
 Total energy for state  3:                 -3006.23306121 au
    Multiplicity: Triplet
    Trans. Mom.:  0.0000 X   0.0000 Y   0.0000 Z
    Strength   :     0.0000000000
    D(258) --> V(  2) amplitude =  0.3584
    D(259) --> V(  1) amplitude = -0.6126
    D(261) --> V(  1) amplitude =  0.5462
    D(262) --> V(  1) amplitude = -0.2562

 Excited state   4: excitation energy (eV) =    2.3805
 Total energy for state  4:                 -3006.23243155 au
    Multiplicity: Triplet
    Trans. Mom.:  0.0000 X   0.0000 Y   0.0000 Z
    Strength   :     0.0000000000
    D(258) --> V(  2) amplitude = -0.3141
    D(259) --> V(  1) amplitude =  0.5092
    D(261) --> V(  1) amplitude =  0.5378
    D(262) --> V(  1) amplitude = -0.4816

 ---------------------------------------------------

 Final energy is   -3006.24688610469
 **  OPTIMIZATION CONVERGED  **

                    Orbital Energies (a.u.)
 --------------------------------------------------------------

 Alpha MOs
 -- Occupied --
-14.668 -14.666 -10.489 -10.489 -10.488 -10.488 -10.483 -10.481
-10.467 -10.467 -10.467 -10.466 -10.466 -10.466 -10.465 -10.464
-10.464 -10.464 -10.464 -10.464 -10.463 -10.463 -10.462 -10.462
-10.461 -10.461 -10.461 -10.461 -10.461 -10.460 -10.454 -10.453
-10.453 -10.452 -10.451 -10.451 -10.449 -10.448 -10.448 -10.448
-10.447 -10.447 -10.447 -10.447 -10.446 -10.446 -10.445 -10.445
-10.444 -10.444 -10.443 -10.443 -10.442 -10.442 -10.442 -10.442
-10.441 -10.441 -10.440 -10.439 -10.436 -10.435 -10.434 -10.434
-10.434 -10.434 -10.434 -10.433 -10.432 -10.432 -10.426 -10.425
-10.421 -10.420 -10.419 -10.418  -6.944  -6.943  -1.078  -1.077
 -1.015  -1.015  -0.961  -0.959  -0.959  -0.958  -0.957  -0.956
 -0.938  -0.937  -0.935  -0.935  -0.906  -0.897  -0.882  -0.881
 -0.864  -0.859  -0.858  -0.855  -0.849  -0.849  -0.849  -0.849
 -0.838  -0.836  -0.836  -0.835  -0.818  -0.816  -0.813  -0.812
 -0.812  -0.798  -0.791  -0.790  -0.764  -0.763  -0.734  -0.734
 -0.731  -0.719  -0.712  -0.711  -0.706  -0.705  -0.697  -0.697
 -0.690  -0.683  -0.681  -0.679  -0.678  -0.673  -0.668  -0.668
 -0.646  -0.643  -0.638  -0.638  -0.634  -0.633  -0.605  -0.605
 -0.599  -0.595  -0.593  -0.591  -0.586  -0.585  -0.584  -0.577
 -0.576  -0.561  -0.560  -0.552  -0.551  -0.543  -0.543  -0.540
 -0.540  -0.537  -0.528  -0.525  -0.522  -0.520  -0.518  -0.511
 -0.510  -0.508  -0.503  -0.502  -0.499  -0.497  -0.496  -0.495
 -0.494  -0.492  -0.492  -0.490  -0.484  -0.484  -0.483  -0.483
 -0.482  -0.482  -0.481  -0.480  -0.480  -0.477  -0.475  -0.471
 -0.468  -0.466  -0.465  -0.461  -0.454  -0.454  -0.446  -0.445
 -0.442  -0.440  -0.438  -0.436  -0.430  -0.430  -0.429  -0.427
 -0.424  -0.423  -0.421  -0.421  -0.419  -0.419  -0.416  -0.412
 -0.410  -0.409  -0.404  -0.402  -0.400  -0.399  -0.398  -0.397
 -0.396  -0.396  -0.396  -0.395  -0.392  -0.390  -0.388  -0.386
 -0.377  -0.376  -0.373  -0.365  -0.359  -0.356  -0.351  -0.348
 -0.345  -0.337  -0.322  -0.316  -0.303  -0.300  -0.298  -0.297
 -0.297  -0.296  -0.294  -0.292  -0.284  -0.282  -0.276  -0.273
 -0.272  -0.262  -0.255  -0.249  -0.219  -0.218

          Ground-State Mulliken Net Atomic Charges

     Atom                 Charge (a.u.)
  ----------------------------------------
      1 C                    -0.346181
      2 C                     0.054664
      3 C                    -0.219062
      4 C                     0.077416
      5 C                    -0.347025
      6 C                     0.285094
      7 N                    -0.673522
      8 C                    -0.759505
      9 C                    -0.550670
     10 C                     0.303785
     11 C                    -0.281066
     12 C                    -0.275524
     13 C                     0.299237
     14 C                    -0.212011
     15 C                    -0.238520
     16 C                    -0.214214
     17 C                    -0.283319
     18 C                    -0.280581
     19 C                    -0.211661
     20 C                    -0.239099
     21 C                    -0.214090
     22 C                    -0.156181
     23 C                    -0.149352
     24 B                     0.668153
     25 C                    -0.154662
     26 C                    -0.147032
     27 B                     0.669435
     28 C                    -0.379622
     29 C                     0.099500
     30 C                     0.084568
     31 C                    -0.391893
     32 C                    -0.375400
     33 C                     0.083714
     34 C                     0.099829
     35 C                    -0.394299
     36 C                    -0.375292
     37 C                    -0.204075
     38 C                    -0.333521
     39 C                     0.249878
     40 C                    -0.071380
     41 C                     0.202434
     42 C                    -0.331678
     43 C                    -0.204732
     44 C                    -0.372707
     45 C                     0.202568
     46 C                    -0.203645
     47 C                    -0.376996
     48 C                     0.203263
     49 C                    -0.072190
     50 C                     0.251509
     51 C                    -0.335004
     52 C                     0.199514
     53 C                    -0.368085
     54 C                    -0.205799
     55 C                    -0.331448
     56 C                    -0.357349
     57 C                     0.074831
     58 C                    -0.228851
     59 C                     0.058465
     60 C                    -0.362251
     61 C                     0.314863
     62 N                    -0.674501
     63 C                    -0.545629
     64 C                    -0.759351
     65 C                     0.284775
     66 C                    -0.272187
     67 C                    -0.279570
     68 C                     0.290975
     69 C                    -0.213554
     70 C                    -0.237602
     71 C                    -0.214259
     72 C                    -0.273674
     73 C                    -0.273220
     74 C                    -0.214308
     75 C                    -0.236741
     76 C                    -0.214373
     77 H                     0.232022
     78 H                     0.229957
     79 H                     0.245066
     80 H                     0.245758
     81 H                     0.238781
     82 H                     0.252142
     83 H                     0.232629
     84 C                    -0.646843
     85 H                     0.245478
     86 H                     0.239822
     87 H                     0.216322
     88 H                     0.216734
     89 H                     0.219740
     90 H                     0.246000
     91 H                     0.240195
     92 H                     0.215763
     93 H                     0.216376
     94 H                     0.219419
     95 H                     0.231012
     96 H                     0.233466
     97 H                     0.230856
     98 H                     0.234228
     99 H                     0.218107
    100 H                     0.226728
    101 H                     0.221327
    102 H                     0.221160
    103 H                     0.227231
    104 H                     0.219844
    105 H                     0.226678
    106 H                     0.218967
    107 H                     0.221357
    108 H                     0.219624
    109 H                     0.227300
    110 H                     0.221046
    111 H                     0.234848
    112 H                     0.234767
    113 H                     0.230691
    114 H                     0.251985
    115 C                    -0.639919
    116 H                     0.238992
    117 H                     0.244415
    118 H                     0.245013
    119 H                     0.239525
    120 H                     0.245862
    121 H                     0.220281
    122 H                     0.217688
    123 H                     0.218857
    124 H                     0.240537
    125 H                     0.244701
    126 H                     0.220472
    127 H                     0.218013
    128 H                     0.219326
    129 H                     0.217689
    130 H                     0.219783
    131 H                     0.232636
    132 H                     0.218765
    133 H                     0.216372
    134 H                     0.244404
  ----------------------------------------
  Sum of atomic charges =    -0.000000

                    Cartesian Multipole Moments
 -----------------------------------------------------------------
    Charge (ESU x 10^10)
                -0.0000
    Dipole Moment (Debye)
         X      -0.5944      Y      -0.2761      Z      -0.3322
       Tot       0.7347
    Quadrupole Moments (Debye-Ang)
        XX    -430.7307     XY     -11.8633     YY    -390.5009
        XZ      20.4871     YZ      -8.0973     ZZ    -422.9028

 Total job time:  79234.30s(wall), 472297.90s(cpu)
        *  Thank you very much for using Q-Chem.  Have a nice day.  *
