 Q-Chem 5.0, Q-Chem, Inc., Pleasanton, CA (2017)
 Q-Chem 5.0.1 for Intel X86 EM64T Linux

User input:
--------------------------------------------------------------
$rem
threads 8
jobtype	opt
method PBEh-3c
basis def2-mSVP
mem_static	1024
mem_total	14000
sym_ignore	true
cis_n_roots             6
cis_singlets            false
cis_triplets		true
rpa                     false
cis_state_deriv         5
state_follow		true
$end

$molecule
read incoords.mol
$end

--------------------------------------------------------------

   15   -3006.2702420760      5.42E-09 Convergence criterion met
 Total energy in the final basis set = -3006.27024208
   12   -3006.3060131498      8.89E-09 Convergence criterion met
 Total energy in the final basis set = -3006.30601315
   12   -3006.3172254603      8.78E-09 Convergence criterion met
 Total energy in the final basis set = -3006.31722546
   12   -3006.3173083727      9.33E-09 Convergence criterion met
 Total energy in the final basis set = -3006.31730837
   13   -3006.3183827169      4.80E-09 Convergence criterion met
 Total energy in the final basis set = -3006.31838272
   12   -3006.3191438469      5.77E-09 Convergence criterion met
 Total energy in the final basis set = -3006.31914385
   12   -3006.3195474237      7.02E-09 Convergence criterion met
 Total energy in the final basis set = -3006.31954742
   12   -3006.3174867511      7.67E-09 Convergence criterion met
   11   -3006.3198247415      7.00E-09 Convergence criterion met
 Total energy in the final basis set = -3006.31982474
   10   -3006.3198699517      6.79E-09 Convergence criterion met
 Total energy in the final basis set = -3006.31986995
   10   -3006.3199081640      5.51E-09 Convergence criterion met
 Total energy in the final basis set = -3006.31990816
   10   -3006.3198935273      5.98E-09 Convergence criterion met
 Total energy in the final basis set = -3006.31989353
    9   -3006.3199038200      6.77E-09 Convergence criterion met
 Total energy in the final basis set = -3006.31990382
    9   -3006.3199159487      7.71E-09 Convergence criterion met
 Total energy in the final basis set = -3006.31991595

             Standard Nuclear Orientation (Angstroms)
    I     Atom           X                Y                Z
 ----------------------------------------------------------------
    1      C      -4.7554074312    -0.1727749915     4.4497624196
    2      C      -5.3946628311    -0.7792176334     3.3779850504
    3      C      -4.6824048456    -1.0789625208     2.2075297768
    4      C      -3.3205774316    -0.7576558980     2.1445933953
    5      C      -2.7002164164    -0.1294095791     3.2177337748
    6      C      -3.4086814349     0.1634820080     4.3747218439
    7      N      -2.7662315629     0.7760240702     5.4699301247
    8      C      -6.8478049537    -1.1522611327     3.4876210380
    9      C      -2.5193003039    -1.0410695798     0.8993710219
   10      C      -1.5613015087     0.2424546084     5.9476983196
   11      C      -0.5529961944     1.0767508968     6.4297239972
   12      C      -4.0586833993     2.8221776326     5.3840903779
   13      C      -3.4016643837     1.8404732369     6.1257150144
   14      C      -4.7186696618     3.8571103736     6.0232787877
   15      C      -4.7209910381     3.9450353602     7.4079700715
   16      C      -4.0604267764     2.9747695232     8.1469696241
   17      C      -3.4136661786     1.9242365267     7.5173494991
   18      C      -1.3487582531    -1.1363736183     5.9358164876
   19      C      -0.1508365998    -1.6633153618     6.3864980550
   20      C       0.8472387948    -0.8332522861     6.8747667801
   21      C       0.6335797940     0.5373708344     6.8970374245
   22      C      -6.8458912261    -1.7153640821    -1.1484712840
   23      C      -6.2334295725    -1.0235089154    -0.0217596385
   24      B      -5.4069605780    -1.8071201788     1.0114556179
   25      C      -5.3173258976    -3.3360150461     0.8765363396
   26      C      -5.9208720474    -4.0178515146    -0.2565134543
   27      B      -6.6920910355    -3.2344441291    -1.3253926540
   28      C      -4.6485870832    -4.0878137894     1.8571200931
   29      C      -4.5554301306    -5.4529498083     1.7422528011
   30      C      -5.1460830745    -6.1272619127     0.6012448478
   31      C      -5.8069592256    -5.4088257425    -0.3655621922
   32      C      -7.5919568106    -0.9862392872    -2.0786034142
   33      C      -7.7619455014     0.3691891415    -1.9239032545
   34      C      -7.1570976299     1.0660490058    -0.8016771789
   35      C      -6.4098771729     0.3651472512     0.1135557871
   36      C      -3.2380185752    -6.4634125298     3.7608710441
   37      C      -2.7828704733    -7.6954051918     4.2761897807
   38      C      -3.0134866523    -8.8964999235     3.6428862243
   39      C      -3.7322106813    -8.9317417062     2.4246822110
   40      C      -4.1691312347    -7.7032086731     1.9382706639
   41      C      -3.9393873932    -6.4664954983     2.5789244717
   42      C      -4.0576501862   -10.0653869627     1.6404354543
   43      C      -4.7668319113    -9.9195012363     0.4681759458
   44      C      -5.1974019797    -8.6636074169    -0.0054005107
   45      C      -4.8956316468    -7.5453612681     0.7376860017
   46      C      -7.8128157719     4.8243064190    -0.6339807207
   47      C      -7.2630671956     3.6043027786    -0.1869505754
   48      C      -7.5155780508     2.4677480407    -0.9165692700
   49      C      -8.3139239522     2.5796621284    -2.0763005474
   50      C      -8.8708481184     3.7669456138    -2.5378182485
   51      C      -8.5916036574     4.9200825947    -1.7664858193
   52      C      -8.4874941526     1.3309234701    -2.7142683165
   53      C      -9.2490774271     1.2655110714    -3.8589363146
   54      C      -9.8227067044     2.4561880630    -4.3450471054
   55      C      -9.6485923829     3.6719524876    -3.7183487707
   56      C      -9.1906403063    -4.8836595198    -3.7947322577
   57      C      -8.6530629505    -4.3335243989    -2.6359887775
   58      C      -7.3079819412    -3.9531377718    -2.5868627506
   59      C      -6.5104408092    -4.1800445287    -3.7209920157
   60      C      -7.0519562380    -4.7575454818    -4.8587784672
   61      C      -8.4015553243    -5.0966846737    -4.9155674376
   62      N      -8.9490242403    -5.6279300807    -6.0977911116
   63      C      -9.5577724834    -4.1934256776    -1.4395135922
   64      C      -5.0549634247    -3.8027755388    -3.7103561677
   65      C      -8.5848664506    -5.0906622211    -7.3442415183
   66      C      -8.4404420829    -3.7155115284    -7.5181075523
   67      C     -11.0663963906    -6.5334371015    -6.8698853026
   68      C      -9.9468438656    -6.6140542230    -6.0423118271
   69      C     -12.0414384893    -7.5156785347    -6.8261767398
   70      C     -11.9310914810    -8.5814020872    -5.9457385610
   71      C     -10.8239451405    -8.6580434205    -5.1131619133
   72      C      -9.8333750117    -7.6917834925    -5.1644930888
   73      C      -8.3731803346    -5.9358058026    -8.4333627482
   74      C      -8.0385353222    -5.4127187110    -9.6705661183
   75      C      -7.8873954385    -4.0440467828    -9.8395981537
   76      C      -8.0851099537    -3.2024581333    -8.7549183579
   77      H      -5.3079017376     0.0361479861     5.3582178096
   78      H      -1.6476850320     0.1238307414     3.1586730891
   79      H      -6.9994036225    -2.2183151236     3.3052313409
   80      H      -7.4580195076    -0.6188881430     2.7557232033
   81      H      -7.2486451585    -0.9264639386     4.4752833952
   82      H      -2.8483717452    -1.9811640237     0.4482777298
   83      H      -1.4700885055    -1.1885121629     1.1672098823
   84      C      -2.6211702419     0.0771740840    -0.1353079986
   85      H      -0.7005220365     2.1489177582     6.4342605865
   86      H      -4.0546605867     2.7653464842     4.3031337420
   87      H      -5.2259295581     4.6078806907     5.4311462260
   88      H      -5.2331903521     4.7579371779     7.9046431537
   89      H      -4.0618410039     3.0225988393     9.2282423517
   90      H      -2.9211782682     1.1608323697     8.1057587123
   91      H      -2.1252452789    -1.7952118588     5.5691070119
   92      H      -0.0034652984    -2.7355670075     6.3668540766
   93      H       1.7797602647    -1.2487353354     7.2320806768
   94      H       1.4054778052     1.1994971240     7.2673673551
   95      H      -4.2055667503    -3.5765082058     2.7034132914
   96      H      -6.2508042630    -5.9128114107    -1.2176090290
   97      H      -8.0423539673    -1.5026371946    -2.9188399646
   98      H      -5.9467949799     0.8752546158     0.9507769065
   99      H      -3.0304021663    -5.5470298273     4.2976912180
  100      H      -2.2306423008    -7.6941526663     5.2066597130
  101      H      -2.6428087037    -9.8162494723     4.0783383471
  102      H      -3.7484997807   -11.0524907236     1.9614897677
  103      H      -5.0028892582   -10.8008579616    -0.1140624038
  104      H      -5.7498634383    -8.6008403712    -0.9344300587
  105      H      -7.6137918117     5.7199510955    -0.0605326656
  106      H      -6.6605258402     3.5815524056     0.7117336084
  107      H      -8.9909974443     5.8810591158    -2.0656401241
  108      H      -9.4139690029     0.3319321837    -4.3820346666
  109      H     -10.4234835237     2.4128634996    -5.2441900571
  110      H     -10.1118599335     4.5588191008    -4.1323867416
  111      H     -10.2446404796    -5.1377069496    -3.8246305515
  112      H      -6.4231831660    -4.9307028122    -5.7243518509
  113      H     -10.5492134233    -3.8661266027    -1.7643504470
  114      H      -9.1900281233    -3.4157871410    -0.7658049855
  115      C      -9.6888111423    -5.5084585433    -0.6742241495
  116      H      -4.5874938802    -3.9862043852    -4.6773045216
  117      H      -4.4982887664    -4.3702319391    -2.9619413827
  118      H      -4.9169855938    -2.7458576757    -3.4732512756
  119      H      -8.6069351695    -3.0499439594    -6.6814224268
  120      H     -11.1709783566    -5.7003612505    -7.5528551298
  121      H     -12.9022164009    -7.4374121389    -7.4777775651
  122      H     -12.6979889289    -9.3434637460    -5.9088427741
  123      H     -10.7200408175    -9.4880080018    -4.4261579343
  124      H      -8.9656951827    -7.7698634105    -4.5222880651
  125      H      -8.4769188799    -7.0060040828    -8.3074941772
  126      H      -7.8805258179    -6.0833903801   -10.5053456033
  127      H      -7.6174455303    -3.6382824995   -10.8053510477
  128      H      -7.9757472905    -2.1322284547    -8.8735628232
  129      H     -10.0903991079    -6.2953115181    -1.3142695148
  130      H     -10.3544116575    -5.4020078986     0.1830719983
  131      H      -8.7200589467    -5.8444489266    -0.3031362900
  132      H      -2.0076890070    -0.1427721630    -1.0097875328
  133      H      -2.2845823715     1.0274259359     0.2804737908
  134      H      -3.6474935026     0.2101626854    -0.4773116652
 ----------------------------------------------------------------

    8   -3006.3199134137      8.88E-09 Convergence criterion met
 Total energy in the final basis set = -3006.31991341

         TDDFT/TDA Excitation Energies
 ---------------------------------------------------

 Excited state   1: excitation energy (eV) =    1.9872
 Total energy for state  1:                 -3006.24688693 au
    Multiplicity: Triplet
    Trans. Mom.:  0.0000 X   0.0000 Y   0.0000 Z
    Strength   :     0.0000000000
    D(255) --> V(  2) amplitude =  0.2483
    D(260) --> V(  1) amplitude =  0.9241

 Excited state   2: excitation energy (eV) =    2.3306
 Total energy for state  2:                 -3006.23426663 au
    Multiplicity: Triplet
    Trans. Mom.:  0.0000 X   0.0000 Y   0.0000 Z
    Strength   :     0.0000000000
    D(261) --> V(  1) amplitude =  0.5704
    D(262) --> V(  1) amplitude =  0.7458

 Excited state   3: excitation energy (eV) =    2.3633
 Total energy for state  3:                 -3006.23306501 au
    Multiplicity: Triplet
    Trans. Mom.:  0.0000 X   0.0000 Y   0.0000 Z
    Strength   :     0.0000000000
    D(258) --> V(  2) amplitude = -0.3561
    D(259) --> V(  1) amplitude =  0.6088
    D(261) --> V(  1) amplitude = -0.5509
    D(262) --> V(  1) amplitude =  0.2578

 Excited state   4: excitation energy (eV) =    2.3803
 Total energy for state  4:                 -3006.23244075 au
    Multiplicity: Triplet
    Trans. Mom.:  0.0000 X   0.0000 Y   0.0000 Z
    Strength   :     0.0000000000
    D(258) --> V(  2) amplitude = -0.3168
    D(259) --> V(  1) amplitude =  0.5137
    D(261) --> V(  1) amplitude =  0.5362
    D(262) --> V(  1) amplitude = -0.4769

 Excited state   5: excitation energy (eV) =    2.4346
 Total energy for state  5:                 -3006.23044324 au
    Multiplicity: Triplet
    Trans. Mom.:  0.0000 X   0.0000 Y   0.0000 Z
    Strength   :     0.0000000000
    D(258) --> V(  1) amplitude =  0.6961
    D(258) --> V(  4) amplitude = -0.2153
    D(259) --> V(  2) amplitude = -0.5085
    D(262) --> V(  1) amplitude = -0.2687

 Excited state   6: excitation energy (eV) =    2.5051
 Total energy for state  6:                 -3006.22785182 au
    Multiplicity: Triplet
    Trans. Mom.:  0.0000 X   0.0000 Y   0.0000 Z
    Strength   :     0.0000000000
    D(255) --> V(  1) amplitude =  0.6719
    D(260) --> V(  2) amplitude =  0.5397

 ---------------------------------------------------

 Final energy is   -3006.24688692965
 **  OPTIMIZATION CONVERGED  **

                    Orbital Energies (a.u.)
 --------------------------------------------------------------

 Alpha MOs
 -- Occupied --
-14.668 -14.666 -10.489 -10.489 -10.488 -10.488 -10.483 -10.481
-10.467 -10.467 -10.467 -10.466 -10.466 -10.466 -10.465 -10.464
-10.464 -10.464 -10.464 -10.464 -10.463 -10.463 -10.462 -10.462
-10.461 -10.461 -10.461 -10.461 -10.461 -10.460 -10.454 -10.453
-10.453 -10.452 -10.451 -10.451 -10.449 -10.448 -10.448 -10.448
-10.447 -10.447 -10.447 -10.447 -10.446 -10.446 -10.445 -10.445
-10.444 -10.444 -10.443 -10.443 -10.442 -10.442 -10.442 -10.442
-10.441 -10.441 -10.440 -10.439 -10.436 -10.435 -10.434 -10.434
-10.434 -10.434 -10.434 -10.433 -10.432 -10.432 -10.426 -10.425
-10.420 -10.420 -10.419 -10.418  -6.944  -6.943  -1.078  -1.077
 -1.015  -1.015  -0.961  -0.959  -0.959  -0.958  -0.957  -0.956
 -0.938  -0.937  -0.935  -0.935  -0.906  -0.897  -0.882  -0.881
 -0.864  -0.859  -0.858  -0.855  -0.849  -0.849  -0.849  -0.849
 -0.838  -0.836  -0.836  -0.835  -0.818  -0.816  -0.813  -0.812
 -0.812  -0.798  -0.791  -0.790  -0.764  -0.763  -0.734  -0.734
 -0.731  -0.719  -0.712  -0.711  -0.706  -0.705  -0.697  -0.697
 -0.690  -0.683  -0.681  -0.679  -0.678  -0.673  -0.668  -0.668
 -0.646  -0.643  -0.638  -0.638  -0.634  -0.633  -0.605  -0.605
 -0.599  -0.595  -0.593  -0.591  -0.586  -0.585  -0.584  -0.577
 -0.576  -0.561  -0.560  -0.552  -0.551  -0.543  -0.543  -0.540
 -0.540  -0.537  -0.528  -0.525  -0.522  -0.520  -0.518  -0.511
 -0.510  -0.508  -0.503  -0.502  -0.499  -0.497  -0.496  -0.495
 -0.494  -0.492  -0.492  -0.490  -0.484  -0.484  -0.483  -0.483
 -0.482  -0.482  -0.481  -0.480  -0.480  -0.477  -0.475  -0.471
 -0.468  -0.466  -0.465  -0.461  -0.454  -0.454  -0.446  -0.445
 -0.442  -0.440  -0.438  -0.436  -0.430  -0.430  -0.429  -0.427
 -0.424  -0.423  -0.421  -0.421  -0.419  -0.419  -0.416  -0.412
 -0.410  -0.409  -0.404  -0.402  -0.400  -0.399  -0.398  -0.397
 -0.396  -0.396  -0.396  -0.395  -0.392  -0.390  -0.388  -0.386
 -0.377  -0.376  -0.373  -0.365  -0.359  -0.356  -0.351  -0.348
 -0.345  -0.337  -0.322  -0.316  -0.303  -0.300  -0.298  -0.297
 -0.297  -0.296  -0.294  -0.292  -0.284  -0.282  -0.276  -0.273
 -0.272  -0.262  -0.255  -0.249  -0.219  -0.218

          Ground-State Mulliken Net Atomic Charges

     Atom                 Charge (a.u.)
  ----------------------------------------
      1 C                    -0.346232
      2 C                     0.054642
      3 C                    -0.219091
      4 C                     0.077445
      5 C                    -0.347071
      6 C                     0.285161
      7 N                    -0.673501
      8 C                    -0.759551
      9 C                    -0.550658
     10 C                     0.303728
     11 C                    -0.280994
     12 C                    -0.275491
     13 C                     0.299161
     14 C                    -0.212019
     15 C                    -0.238517
     16 C                    -0.214213
     17 C                    -0.283279
     18 C                    -0.280579
     19 C                    -0.211666
     20 C                    -0.239086
     21 C                    -0.214106
     22 C                    -0.156172
     23 C                    -0.149456
     24 B                     0.668189
     25 C                    -0.154706
     26 C                    -0.146928
     27 B                     0.669392
     28 C                    -0.379667
     29 C                     0.099501
     30 C                     0.084533
     31 C                    -0.391981
     32 C                    -0.375389
     33 C                     0.083725
     34 C                     0.099872
     35 C                    -0.394330
     36 C                    -0.375313
     37 C                    -0.204090
     38 C                    -0.333514
     39 C                     0.249953
     40 C                    -0.071446
     41 C                     0.202462
     42 C                    -0.331679
     43 C                    -0.204723
     44 C                    -0.372728
     45 C                     0.202619
     46 C                    -0.203656
     47 C                    -0.377013
     48 C                     0.203267
     49 C                    -0.072229
     50 C                     0.251596
     51 C                    -0.335026
     52 C                     0.199575
     53 C                    -0.368102
     54 C                    -0.205790
     55 C                    -0.331466
     56 C                    -0.357348
     57 C                     0.074836
     58 C                    -0.228754
     59 C                     0.058423
     60 C                    -0.362202
     61 C                     0.314770
     62 N                    -0.674493
     63 C                    -0.545652
     64 C                    -0.759317
     65 C                     0.284637
     66 C                    -0.272120
     67 C                    -0.279684
     68 C                     0.291175
     69 C                    -0.213533
     70 C                    -0.237638
     71 C                    -0.214239
     72 C                    -0.273763
     73 C                    -0.273125
     74 C                    -0.214341
     75 C                    -0.236718
     76 C                    -0.214385
     77 H                     0.232053
     78 H                     0.229969
     79 H                     0.245022
     80 H                     0.245806
     81 H                     0.238786
     82 H                     0.252132
     83 H                     0.232622
     84 C                    -0.646846
     85 H                     0.245453
     86 H                     0.239838
     87 H                     0.216335
     88 H                     0.216742
     89 H                     0.219745
     90 H                     0.245965
     91 H                     0.240205
     92 H                     0.215768
     93 H                     0.216384
     94 H                     0.219426
     95 H                     0.231032
     96 H                     0.233513
     97 H                     0.230861
     98 H                     0.234242
     99 H                     0.218103
    100 H                     0.226729
    101 H                     0.221324
    102 H                     0.221157
    103 H                     0.227235
    104 H                     0.219845
    105 H                     0.226677
    106 H                     0.218966
    107 H                     0.221351
    108 H                     0.219613
    109 H                     0.227296
    110 H                     0.221039
    111 H                     0.234837
    112 H                     0.234757
    113 H                     0.230687
    114 H                     0.251991
    115 C                    -0.639952
    116 H                     0.238989
    117 H                     0.244395
    118 H                     0.245049
    119 H                     0.239511
    120 H                     0.245877
    121 H                     0.220270
    122 H                     0.217675
    123 H                     0.218848
    124 H                     0.240542
    125 H                     0.244708
    126 H                     0.220480
    127 H                     0.218020
    128 H                     0.219332
    129 H                     0.217675
    130 H                     0.219779
    131 H                     0.232719
    132 H                     0.218768
    133 H                     0.216375
    134 H                     0.244392
  ----------------------------------------
  Sum of atomic charges =    -0.000000

                    Cartesian Multipole Moments
 -----------------------------------------------------------------
    Charge (ESU x 10^10)
                -0.0000
    Dipole Moment (Debye)
         X      -0.5884      Y      -0.2755      Z      -0.3314
       Tot       0.7293
    Quadrupole Moments (Debye-Ang)
        XX    -430.7935     XY     -11.9025     YY    -390.5114
        XZ      20.4742     YZ      -8.0888     ZZ    -422.8978

 Total job time:  114471.23s(wall), 683879.54s(cpu)
        *  Thank you very much for using Q-Chem.  Have a nice day.  *
