 Q-Chem 5.1, Q-Chem, Inc., Pleasanton, CA (2018)
 Q-Chem 5.1.1 for Intel X86 EM64T Linux

User input:
--------------------------------------------------------------
$rem
threads 8
jobtype	sp
method PBEh-3c
basis def2-mSVP
mem_static	1024
mem_total	14000
sym_ignore	true
cis_n_roots             6
cis_singlets            true
cis_triplets		true
rpa                     false
calc_soc 		true
cis_moments             true
cis_relaxed_density	true
$end

$molecule
read t5opt.mol
$end

--------------------------------------------------------------

             Standard Nuclear Orientation (Angstroms)
    I     Atom           X                Y                Z
 ----------------------------------------------------------------
    1      N       0.0000000000     0.0000000000     0.0000000000
    2      C       0.0000000000     0.0000000000     1.4039810000
    3      C       1.2024338070     0.0000000000     2.1103295120
    4      H       2.1416319368    -0.0092423988     1.5725350523
    5      C       1.2009724587     0.0171669855     3.4949303225
    6      H       2.1441795896     0.0193472919     4.0259705892
    7      C       0.0067347011     0.0129922669     4.1998367999
    8      H       0.0088294068     0.0192066340     5.2815889220
    9      C      -1.1909802456     0.0014265586     3.4997105759
   10      H      -2.1312076973     0.0058764299     4.0359604673
   11      C      -1.1997359963     0.0054782142     2.1149981851
   12      H      -2.1397137629     0.0131102289     1.5785503104
   13      C       0.9574750847     0.7670308010    -0.6854288083
   14      C       1.6665832914     0.2352107290    -1.7608168762
   15      H       1.4760569969    -0.7819070737    -2.0769061335
   16      C       2.6101183945     1.0039703673    -2.4225845379
   17      H       3.1516919585     0.5769186449    -3.2567022195
   18      C       2.8766213503     2.3026709732    -2.0148508714
   19      H       3.6196989411     2.8966313528    -2.5298681576
   20      C       2.1775084763     2.8312469125    -0.9394311183
   21      H       2.3685878790     3.8456339594    -0.6136520859
   22      C       1.2182568022     2.0774343379    -0.2853028580
   23      H       0.6686698222     2.5021051628     0.5450816916
   24      C      -0.8674666799    -0.8456625484    -0.7155081746
   25      C      -1.1574636226    -2.1234541307    -0.2600329953
   26      H      -0.7167313197    -2.4755866064     0.6663084153
   27      C      -1.9940848919    -2.9673331833    -0.9827069442
   28      C      -1.4383304296    -0.4150373810    -1.9106376241
   29      H      -1.2284872990     0.5856188396    -2.2700930930
   30      C      -2.2489380783    -1.2567119391    -2.6561595100
   31      C      -2.5373923318    -2.5551971562    -2.2038995668
   32      C      -2.8230537212    -0.7628569345    -3.9551423934
   33      H      -2.4631705913     0.2367793827    -4.1967498249
   34      H      -3.9135960902    -0.7218817787    -3.9226326452
   35      H      -2.5556629403    -1.4187492952    -4.7861901327
   36      C      -2.3134930996    -4.3154279561    -0.3908457014
   37      H      -2.6086871807    -5.0203011256    -1.1717775718
   38      H      -1.4162135337    -4.7363021534     0.0710549404
   39      C      -3.4214159325    -4.2237409990     0.6561743410
   40      H      -4.3441180142    -3.8416537212     0.2183307372
   41      H      -3.6384518413    -5.2012120215     1.0883296415
   42      H      -3.1372100467    -3.5539104899     1.4689618033
   43      B      -3.4064719185    -3.5221514908    -3.0965639895
   44      C      -4.9387775238    -3.4892975951    -3.0521900810
   45      C      -5.5868694418    -2.6264599431    -2.1604692361
   46      H      -4.9944546836    -1.9769720093    -1.5247064497
   47      C      -6.9587214687    -2.6092100514    -2.0873416090
   48      C      -7.8646036882    -1.8387030721    -1.2639072253
   49      C      -7.7173031430    -0.8742979544    -0.2933699608
   50      H      -6.7424951640    -0.5210917424     0.0184711734
   51      C      -8.8777488408    -0.3390450270     0.3014456381
   52      H      -8.7650118539     0.4195105383     1.0652504687
   53      C     -10.1459606282    -0.7438443167    -0.0537854848
   54      H     -11.0066100528    -0.3013200854     0.4325047254
   55      C      -9.1676000181    -2.2487585519    -1.6219260817
   56      C     -10.3273153581    -1.7338478516    -1.0503342487
   57      C      -9.1482103001    -3.2382291878    -2.6285299728
   58      C     -10.3478500498    -3.7319292364    -3.0824579571
   59      H     -10.3968670960    -4.4907136039    -3.8524458882
   60      C     -11.5391525694    -3.2267175190    -2.5202482779
   61      H     -12.4841588989    -3.6147166335    -2.8768326025
   62      C     -11.5462395090    -2.2615562508    -1.5377514956
   63      H     -12.4875721786    -1.9051387832    -1.1379767179
   64      C      -7.7504225382    -3.4804381787    -2.9356568296
   65      C      -7.1295233193    -4.3237902643    -3.8237508218
   66      H      -7.7139097418    -4.9734872715    -4.4642958107
   67      C      -5.7278292153    -4.3527008525    -3.9152679080
   68      C      -2.7247384278    -4.5191608721    -4.0472328767
   69      C      -1.3301003630    -4.6087196294    -4.0658739680
   70      H      -0.7486766226    -3.9641399144    -3.4162697875
   71      C      -0.7027377062    -5.5118509884    -4.8909705651
   72      C       0.6934940472    -5.8119460308    -5.0820498387
   73      C       1.8676407619    -5.3405684662    -4.5400750024
   74      H       1.8767045632    -4.5618269449    -3.7878314492
   75      C       3.0791955529    -5.9015045013    -4.9879057993
   76      H       4.0066673426    -5.5366981329    -4.5660294904
   77      C       3.1270363375    -6.8969105746    -5.9408108923
   78      H       4.0849136795    -7.2955716068    -6.2508391102
   79      C       0.7494123940    -6.8328629240    -6.0572833516
   80      C       1.9332631381    -7.4012379346    -6.5136312973
   81      C      -0.5393847287    -7.2038725301    -6.5002400763
   82      C      -0.6430231703    -8.1921397345    -7.4491601288
   83      H      -1.6027673698    -8.5210248035    -7.8258991694
   84      C       0.5425290751    -8.7844383622    -7.9330172510
   85      H       0.4619187533    -9.5621455393    -8.6808853118
   86      C       1.7941705967    -8.4146408234    -7.4915498631
   87      H       2.6730543227    -8.9021745764    -7.8944868665
   88      C      -1.4775509380    -6.3749357389    -5.7659533262
   89      C      -2.8486442809    -6.2892118581    -5.7685449874
   90      H      -3.4374545474    -6.9222689142    -6.4228652144
   91      C      -3.5090529171    -5.3791004415    -4.9239345954
   92      B      -5.0444595203    -5.2945544746    -4.9200928639
   93      C      -5.9182808514    -6.1683615726    -5.8992173809
   94      C      -6.4187981423    -5.6384778437    -7.0952434993
   95      C      -7.1995665253    -6.4235789456    -7.9349985728
   96      H      -7.5766407927    -6.0093132422    -8.8632446929
   97      C      -7.5183821680    -7.7299814793    -7.5914883694
   98      C      -7.0414033100    -8.2532344230    -6.3952161616
   99      H      -7.3037757673    -9.2661158222    -6.1133989781
  100      C      -6.2414431401    -7.4896408701    -5.5572935294
  101      N      -8.3337280253    -8.5116869842    -8.4350399996
  102      C      -9.5483929996    -7.9869890438    -8.8977464148
  103      C     -10.0090157588    -8.2792168747   -10.1812996367
  104      H      -9.4222188552    -8.9172148133   -10.8293379793
  105      C     -11.2096029504    -7.7529517942   -10.6272934347
  106      H     -11.5519247054    -7.9899174348   -11.6263154814
  107      C     -11.9609002971    -6.9137483054    -9.8173281902
  108      H     -12.8933233014    -6.4976074275   -10.1741326821
  109      C     -11.4990592505    -6.6144485077    -8.5442653551
  110      H     -12.0750692932    -5.9658805496    -7.8966544112
  111      C     -10.3104443661    -7.1512953787    -8.0808146320
  112      H      -9.9667645976    -6.9208054887    -7.0806978110
  113      C      -7.9633917794    -9.8371167473    -8.7051641105
  114      C      -8.9071459350   -10.8633300295    -8.7004763554
  115      H      -9.9448702429   -10.6378955472    -8.4910421688
  116      C      -8.5190513862   -12.1685297646    -8.9538093667
  117      H      -9.2646679990   -12.9529999542    -8.9436712316
  118      C      -7.1886475038   -12.4779084577    -9.1950360143
  119      H      -6.8890527240   -13.5001598512    -9.3823494170
  120      C      -6.2468577609   -11.4590319527    -9.1896463832
  121      H      -5.2049573039   -11.6823113691    -9.3798554790
  122      C      -6.6274545608   -10.1489658158    -8.9570483966
  123      H      -5.8877202520    -9.3587289470    -8.9627052978
  124      C      -5.7520686318    -8.0689800098    -4.2581850210
  125      H      -6.1405868043    -9.0734000084    -4.0928715239
  126      H      -4.6621285166    -8.1293578600    -4.2280514981
  127      H      -6.0557738074    -7.4532200945    -3.4088779890
  128      C      -6.0803275548    -4.2305331963    -7.5148596908
  129      H      -6.8804587404    -3.8364870998    -8.1463983419
  130      H      -6.0412982886    -3.5778161793    -6.6385110080
  131      C      -4.7555156624    -4.1416877985    -8.2687749950
  132      H      -3.9213075532    -4.4650928573    -7.6462824239
  133      H      -4.7684105227    -4.7713585777    -9.1589956878
  134      H      -4.5539245309    -3.1175263109    -8.5848510399
 ----------------------------------------------------------------

   15   -3006.3198887379      7.05e-09  Convergence criterion met
 Total energy in the final basis set =    -3006.3198887379

         TDDFT/TDA Excitation Energies
 ---------------------------------------------------

 Excited state   1: excitation energy (eV) =    1.9874
 Total energy for state  1:                 -3006.24685138 au
    Multiplicity: Triplet
    Trans. Mom.:  0.0000 X   0.0000 Y   0.0000 Z
    Strength   :     0.0000000000
    D(255) --> V(  2) amplitude =  0.2483
    D(260) --> V(  1) amplitude =  0.9241

 Excited state   2: excitation energy (eV) =    2.3311
 Total energy for state  2:                 -3006.23422277 au
    Multiplicity: Triplet
    Trans. Mom.:  0.0000 X   0.0000 Y   0.0000 Z
    Strength   :     0.0000000000
    D(261) --> V(  1) amplitude =  0.5697
    D(262) --> V(  1) amplitude =  0.7459

 Excited state   3: excitation energy (eV) =    2.3597
 Total energy for state  3:                 -3006.23316966 au
    Multiplicity: Singlet
    Trans. Mom.: -0.0371 X  -0.0647 Y  -0.0361 Z
    Strength   :     0.0003963868
    D(261) --> V(  1) amplitude =  0.7107
    D(262) --> V(  1) amplitude =  0.6640

 Excited state   4: excitation energy (eV) =    2.3636
 Total energy for state  4:                 -3006.23302716 au
    Multiplicity: Triplet
    Trans. Mom.:  0.0000 X   0.0000 Y   0.0000 Z
    Strength   :     0.0000000000
    D(258) --> V(  2) amplitude =  0.3601
    D(259) --> V(  1) amplitude =  0.6150
    D(261) --> V(  1) amplitude = -0.5448
    D(262) --> V(  1) amplitude =  0.2504

 Excited state   5: excitation energy (eV) =    2.3807
 Total energy for state  5:                 -3006.23240064 au
    Multiplicity: Triplet
    Trans. Mom.:  0.0000 X   0.0000 Y   0.0000 Z
    Strength   :     0.0000000000
    D(258) --> V(  2) amplitude =  0.3124
    D(259) --> V(  1) amplitude =  0.5059
    D(261) --> V(  1) amplitude =  0.5429
    D(262) --> V(  1) amplitude = -0.4796

 Excited state   6: excitation energy (eV) =    2.3978
 Total energy for state  6:                 -3006.23177118 au
    Multiplicity: Singlet
    Trans. Mom.:  0.3044 X   0.2519 Y   0.2546 Z
    Strength   :     0.0129755976
    D(261) --> V(  1) amplitude = -0.6691
    D(262) --> V(  1) amplitude =  0.7121

 Excited state   7: excitation energy (eV) =    2.4348
 Total energy for state  7:                 -3006.23041324 au
    Multiplicity: Triplet
    Trans. Mom.:  0.0000 X   0.0000 Y   0.0000 Z
    Strength   :     0.0000000000
    D(258) --> V(  1) amplitude = -0.6957
    D(258) --> V(  4) amplitude =  0.2153
    D(259) --> V(  2) amplitude = -0.5085
    D(262) --> V(  1) amplitude = -0.2703

 Excited state   8: excitation energy (eV) =    2.5056
 Total energy for state  8:                 -3006.22780925 au
    Multiplicity: Triplet
    Trans. Mom.:  0.0000 X   0.0000 Y   0.0000 Z
    Strength   :     0.0000000000
    D(255) --> V(  1) amplitude = -0.6718
    D(260) --> V(  2) amplitude = -0.5401

 Excited state   9: excitation energy (eV) =    2.6723
 Total energy for state  9:                 -3006.22168280 au
    Multiplicity: Singlet
    Trans. Mom.: -0.1632 X   0.0700 Y   0.0516 Z
    Strength   :     0.0022377859
    D(260) --> V(  1) amplitude =  0.9653

 Excited state  10: excitation energy (eV) =    3.1705
 Total energy for state 10:                 -3006.20337406 au
    Multiplicity: Singlet
    Trans. Mom.:  2.9227 X  -1.3361 Y  -1.2912 Z
    Strength   :     0.9316881069
    D(259) --> V(  1) amplitude =  0.9446

 Excited state  11: excitation energy (eV) =    3.5045
 Total energy for state 11:                 -3006.19110143 au
    Multiplicity: Singlet
    Trans. Mom.: -0.0516 X   0.0099 Y   0.0462 Z
    Strength   :     0.0004203547
    D(261) --> V(  2) amplitude =  0.6115
    D(262) --> V(  2) amplitude =  0.7834

 Excited state  12: excitation energy (eV) =    3.5215
 Total energy for state 12:                 -3006.19047774 au
    Multiplicity: Singlet
    Trans. Mom.:  0.0603 X   0.0219 Y   0.0190 Z
    Strength   :     0.0003866058
    D(261) --> V(  2) amplitude =  0.7837
    D(262) --> V(  2) amplitude = -0.6121

 ---------------------------------------------------

                    Orbital Energies (a.u.)
 --------------------------------------------------------------

 Alpha MOs
 -- Occupied --
-14.668 -14.666 -10.489 -10.489 -10.488 -10.488 -10.483 -10.481
-10.467 -10.467 -10.467 -10.466 -10.466 -10.466 -10.465 -10.464
-10.464 -10.464 -10.464 -10.464 -10.463 -10.463 -10.462 -10.462
-10.461 -10.461 -10.461 -10.461 -10.461 -10.460 -10.454 -10.453
-10.453 -10.452 -10.451 -10.451 -10.449 -10.448 -10.448 -10.448
-10.447 -10.447 -10.447 -10.447 -10.446 -10.446 -10.445 -10.445
-10.444 -10.444 -10.443 -10.443 -10.442 -10.442 -10.442 -10.442
-10.441 -10.441 -10.440 -10.439 -10.436 -10.435 -10.434 -10.434
-10.434 -10.434 -10.434 -10.433 -10.432 -10.432 -10.426 -10.425
-10.420 -10.420 -10.419 -10.418  -6.944  -6.943  -1.078  -1.077
 -1.015  -1.015  -0.961  -0.959  -0.959  -0.958  -0.957  -0.956
 -0.938  -0.937  -0.935  -0.935  -0.906  -0.897  -0.882  -0.881
 -0.864  -0.859  -0.858  -0.855  -0.849  -0.849  -0.849  -0.849
 -0.838  -0.836  -0.836  -0.835  -0.818  -0.816  -0.813  -0.812
 -0.812  -0.798  -0.791  -0.790  -0.764  -0.763  -0.734  -0.734
 -0.731  -0.719  -0.712  -0.711  -0.706  -0.705  -0.697  -0.697
 -0.690  -0.683  -0.681  -0.679  -0.678  -0.673  -0.668  -0.668
 -0.646  -0.643  -0.638  -0.638  -0.634  -0.633  -0.605  -0.605
 -0.599  -0.595  -0.593  -0.591  -0.586  -0.585  -0.584  -0.577
 -0.576  -0.561  -0.560  -0.552  -0.551  -0.543  -0.543  -0.540
 -0.540  -0.537  -0.528  -0.525  -0.522  -0.520  -0.518  -0.511
 -0.510  -0.508  -0.503  -0.502  -0.499  -0.497  -0.496  -0.495
 -0.494  -0.492  -0.492  -0.490  -0.484  -0.484  -0.483  -0.483
 -0.482  -0.482  -0.481  -0.480  -0.480  -0.477  -0.475  -0.471
 -0.468  -0.466  -0.465  -0.461  -0.454  -0.454  -0.446  -0.445
 -0.442  -0.440  -0.438  -0.436  -0.430  -0.430  -0.429  -0.427
 -0.424  -0.423  -0.421  -0.421  -0.419  -0.419  -0.416  -0.412
 -0.410  -0.409  -0.404  -0.402  -0.400  -0.399  -0.397  -0.397
 -0.396  -0.396  -0.396  -0.395  -0.392  -0.390  -0.388  -0.386
 -0.377  -0.376  -0.373  -0.365  -0.359  -0.356  -0.351  -0.348
 -0.345  -0.337  -0.322  -0.316  -0.303  -0.300  -0.298  -0.297
 -0.297  -0.296  -0.294  -0.292  -0.284  -0.282  -0.276  -0.273
 -0.272  -0.262  -0.255  -0.249  -0.219  -0.218

          Ground-State Mulliken Net Atomic Charges

     Atom                 Charge (a.u.)
  ----------------------------------------
      1 N                    -0.674602
      2 C                     0.290993
      3 C                    -0.279542
      4 H                     0.245819
      5 C                    -0.213414
      6 H                     0.220244
      7 C                    -0.237714
      8 H                     0.217639
      9 C                    -0.214180
     10 H                     0.218837
     11 C                    -0.273625
     12 H                     0.240462
     13 C                     0.284559
     14 C                    -0.272101
     15 H                     0.239566
     16 C                    -0.214457
     17 H                     0.219333
     18 C                    -0.236696
     19 H                     0.218004
     20 C                    -0.214272
     21 H                     0.220468
     22 C                    -0.273060
     23 H                     0.244727
     24 C                     0.314583
     25 C                    -0.357137
     26 H                     0.234812
     27 C                     0.074077
     28 C                    -0.361873
     29 H                     0.234779
     30 C                     0.058426
     31 C                    -0.228811
     32 C                    -0.759487
     33 H                     0.239027
     34 H                     0.244439
     35 H                     0.245091
     36 C                    -0.545519
     37 H                     0.251934
     38 H                     0.230695
     39 C                    -0.639577
     40 H                     0.232654
     41 H                     0.219699
     42 H                     0.217581
     43 B                     0.669385
     44 C                    -0.147125
     45 C                    -0.391606
     46 H                     0.233549
     47 C                     0.084166
     48 C                     0.202623
     49 C                    -0.372739
     50 H                     0.219837
     51 C                    -0.204712
     52 H                     0.227217
     53 C                    -0.331596
     54 H                     0.221161
     55 C                    -0.071373
     56 C                     0.249974
     57 C                     0.201959
     58 C                    -0.375333
     59 H                     0.218053
     60 C                    -0.204024
     61 H                     0.226736
     62 C                    -0.333662
     63 H                     0.221321
     64 C                     0.099841
     65 C                    -0.379440
     66 H                     0.231119
     67 C                    -0.154093
     68 C                    -0.155897
     69 C                    -0.375062
     70 H                     0.230904
     71 C                     0.083814
     72 C                     0.199302
     73 C                    -0.367984
     74 H                     0.219557
     75 C                    -0.205774
     76 H                     0.227305
     77 C                    -0.331583
     78 H                     0.221069
     79 C                    -0.072180
     80 C                     0.251625
     81 C                     0.203052
     82 C                    -0.377105
     83 H                     0.218934
     84 C                    -0.203584
     85 H                     0.226661
     86 C                    -0.334975
     87 H                     0.221337
     88 C                     0.099835
     89 C                    -0.393949
     90 H                     0.234251
     91 C                    -0.149744
     92 B                     0.667918
     93 C                    -0.218953
     94 C                     0.077344
     95 C                    -0.347036
     96 H                     0.229968
     97 C                     0.285233
     98 C                    -0.346295
     99 H                     0.232065
    100 C                     0.054382
    101 N                    -0.673587
    102 C                     0.303890
    103 C                    -0.280995
    104 H                     0.245457
    105 C                    -0.214103
    106 H                     0.219429
    107 C                    -0.239126
    108 H                     0.216420
    109 C                    -0.211674
    110 H                     0.215769
    111 C                    -0.280655
    112 H                     0.240163
    113 C                     0.299260
    114 C                    -0.283163
    115 H                     0.245928
    116 C                    -0.214263
    117 H                     0.219727
    118 C                    -0.238482
    119 H                     0.216733
    120 C                    -0.212018
    121 H                     0.216335
    122 C                    -0.275577
    123 H                     0.239836
    124 C                    -0.759645
    125 H                     0.238798
    126 H                     0.245827
    127 H                     0.245071
    128 C                    -0.550919
    129 H                     0.232640
    130 H                     0.252167
    131 C                    -0.646842
    132 H                     0.244398
    133 H                     0.216364
    134 H                     0.218784
  ----------------------------------------
  Sum of atomic charges =    -0.000000

                    Cartesian Multipole Moments
 -----------------------------------------------------------------
    Charge (ESU x 10^10)
                -0.0000
    Dipole Moment (Debye)
         X       0.4063      Y       0.0949      Z       0.5990
       Tot       0.7300
    Quadrupole Moments (Debye-Ang)
        XX    -396.2294     XY     -13.9024     YY    -430.0862
        XZ     -16.1177     YZ      18.2981     ZZ    -435.5609

 Total job time:  16626.29s(wall), 63962.56s(cpu)
        *  Thank you very much for using Q-Chem.  Have a nice day.  *
