 Q-Chem 5.0, Q-Chem, Inc., Pleasanton, CA (2017)
 Q-Chem 5.0.1 for Intel X86 EM64T Linux

User input:
--------------------------------------------------------------
$rem
threads 8
jobtype	sp
method PBEh-3c
basis def2-mSVP
mem_static	1024
mem_total	8000
sym_ignore	true
unrestricted true
scf_convergence	9
solvent_method	pcm
$end

$molecule
read incoords.mol
$end

$solvent
dielectric	2.38
$end

$pcm
theory iefpcm
$end
--------------------------------------------------------------

   17   -3006.3360611787      5.26E-10 Convergence criterion met
 Total energy in the final basis set = -3006.33606118
 Total job time:  4692.82s(wall), 13675.45s(cpu)
        *  Thank you very much for using Q-Chem.  Have a nice day.  *
 Q-Chem 5.0, Q-Chem, Inc., Pleasanton, CA (2017)
 Q-Chem 5.0.1 for Intel X86 EM64T Linux

User input:
--------------------------------------------------------------

$rem
threads 8
jobtype opt
method PBEh-3c
basis def2-mSVP
scf_guess	read
mem_static      1024
mem_total       8000
sym_ignore      true
unrestricted true
mom_start       1
scf_algorithm	diis
scf_max_cycles	250
solvent_method	pcm
geom_opt_tol_energy 25
geom_opt_tol_gradient 75
$end

$solvent
dielectric      2.38
$end

$pcm
theory iefpcm
$end

$occupied
1 2 3 4 5 6 7 8 9 10 11 12 13 14 15 16 17 18 19 20 21 22 23 24 25 26 27 28 29 30 31 32 33 34 35 36 37 38 39 40 41 42 43 44 45 46 47 48 49 50 51 52 53 54 55 56 57 58 59 60 61 62 63 64 65 66 67 68 69 70 71 72 73 74 75 76 77 78 79 80 81 82 83 84 85 86 87 88 89 90 91 92 93 94 95 96 97 98 99 100 101 102 103 104 105 106 107 108 109 110 111 112 113 114 115 116 117 118 119 120 121 122 123 124 125 126 127 128 129 130 131 132 133 134 135 136 137 138 139 140 141 142 143 144 145 146 147 148 149 150 151 152 153 154 155 156 157 158 159 160 161 162 163 164 165 166 167 168 169 170 171 172 173 174 175 176 177 178 179 180 181 182 183 184 185 186 187 188 189 190 191 192 193 194 195 196 197 198 199 200 201 202 203 204 205 206 207 208 209 210 211 212 213 214 215 216 217 218 219 220 221 222 223 224 225 226 227 228 229 230 231 232 233 234 235 236 237 238 239 240 241 242 243 244 245 246 247 248 249 250 251 252 253 254 255 256 257 258 259 260 261  263
1 2 3 4 5 6 7 8 9 10 11 12 13 14 15 16 17 18 19 20 21 22 23 24 25 26 27 28 29 30 31 32 33 34 35 36 37 38 39 40 41 42 43 44 45 46 47 48 49 50 51 52 53 54 55 56 57 58 59 60 61 62 63 64 65 66 67 68 69 70 71 72 73 74 75 76 77 78 79 80 81 82 83 84 85 86 87 88 89 90 91 92 93 94 95 96 97 98 99 100 101 102 103 104 105 106 107 108 109 110 111 112 113 114 115 116 117 118 119 120 121 122 123 124 125 126 127 128 129 130 131 132 133 134 135 136 137 138 139 140 141 142 143 144 145 146 147 148 149 150 151 152 153 154 155 156 157 158 159 160 161 162 163 164 165 166 167 168 169 170 171 172 173 174 175 176 177 178 179 180 181 182 183 184 185 186 187 188 189 190 191 192 193 194 195 196 197 198 199 200 201 202 203 204 205 206 207 208 209 210 211 212 213 214 215 216 217 218 219 220 221 222 223 224 225 226 227 228 229 230 231 232 233 234 235 236 237 238 239 240 241 242 243 244 245 246 247 248 249 250 251 252 253 254 255 256 257 258 259 260 261 262
$end

$molecule
read
$end

--------------------------------------------------------------

   20   -3006.2687216584      8.95E-09 Convergence criterion met
 Total energy in the final basis set = -3006.26872166
   18   -3006.2684815918      8.10E-09 Convergence criterion met
 Total energy in the final basis set = -3006.26848159
   17   -3006.2677928239      9.87E-09 Convergence criterion met
 Total energy in the final basis set = -3006.26779282
   18   -3006.2685618959      6.77E-09 Convergence criterion met
 Total energy in the final basis set = -3006.26856190
   17   -3006.2680682813      8.05E-09 Convergence criterion met
 Total energy in the final basis set = -3006.26806828
   18   -3006.2686130876      7.09E-09 Convergence criterion met
 Total energy in the final basis set = -3006.26861309
   17   -3006.2685495464      8.06E-09 Convergence criterion met
   12   -3006.3422990282      5.72E-09 Convergence criterion met
 Total energy in the final basis set = -3006.34229903
   12   -3006.3422903162      5.75E-09 Convergence criterion met
 Total energy in the final basis set = -3006.34229032
   12   -3006.3422884332      5.73E-09 Convergence criterion met
 Total energy in the final basis set = -3006.34228843
   12   -3006.3422831227      5.78E-09 Convergence criterion met
 Total energy in the final basis set = -3006.34228312
   12   -3006.3422840012      5.74E-09 Convergence criterion met
 Total energy in the final basis set = -3006.34228400
   12   -3006.3422837353      5.75E-09 Convergence criterion met
 Total energy in the final basis set = -3006.34228374

             Standard Nuclear Orientation (Angstroms)
    I     Atom           X                Y                Z
 ----------------------------------------------------------------
    1      N       0.8485820582    -0.0662490280     0.1040991688
    2      C       0.5214634192    -0.0500281938     1.4750654969
    3      C       1.5186588205    -0.0532151061     2.4408399929
    4      H       2.5595830925    -0.0682945445     2.1363785237
    5      C       1.1937091874    -0.0488232383     3.7919011400
    6      C       1.8303681609     0.8053607943    -0.3904576186
    7      C       1.9271352749     2.1094464387     0.0949501802
    8      H       1.2345953209     2.4527744173     0.8526081595
    9      C       2.9038109753     2.9642916594    -0.3885544983
   10      H       2.9643932145     3.9726898999     0.0001865649
   11      C       3.7862091251     2.5444109361    -1.3742236450
   12      H       4.5428518648     3.2170564396    -1.7553787897
   13      C       3.6857175148     1.2497323526    -1.8643910437
   14      H       4.3711689319     0.9034711976    -2.6273798069
   15      C       2.7252700401     0.3811132433    -1.3732625601
   16      H       2.6693513541    -0.6315619003    -1.7521532814
   17      C       0.1530917854    -0.9253194849    -0.7614696212
   18      C      -0.2577868067    -0.4919008879    -2.0223861602
   19      H      -0.0413608093     0.5191378352    -2.3433493815
   20      C      -0.9456882061    -1.3485200317    -2.8669775954
   21      H      -1.2555765352    -0.9940043004    -3.8417792617
   22      C      -1.2560561101    -2.6403569341    -2.4666855365
   23      H      -1.8017178404    -3.3027242479    -3.1254811669
   24      C      -0.8575877479    -3.0704020183    -1.2088266191
   25      H      -1.0855804808    -4.0772469419    -0.8826768150
   26      C      -0.1509920335    -2.2284552140    -0.3657933435
   27      H       0.1659093095    -2.5817223182     0.6072372738
   28      C      -0.8121038500    -0.0401625959     1.8719945103
   29      H      -1.5930553642    -0.0298316420     1.1204079811
   30      C      -1.1520121666    -0.0577794788     3.2164073048
   31      C      -0.1460539867    -0.0628528182     4.1918951632
   32      C      -2.5999810340    -0.0741333784     3.6227935832
   33      H      -3.2605505147    -0.0317787203     2.7572652313
   34      H      -2.8485241901     0.7717764726     4.2673961390
   35      H      -2.8502405217    -0.9810178690     4.1785650112
   36      C       2.3058947983    -0.0024421001     4.8068463052
   37      H       1.9845485334    -0.4504445657     5.7526821791
   38      H       3.1436846209    -0.6135178223     4.4618028970
   39      C       2.7887778457     1.4240867385     5.0581918653
   40      H       1.9834897778     2.0488282326     5.4450471433
   41      H       3.6023087109     1.4405498480     5.7842956408
   42      H       3.1520774130     1.8814435060     4.1369346713
   43      B      -0.4933313235    -0.1684005524     5.7167021769
   44      C      -0.6726753777     1.0949494633     6.5975349505
   45      C      -0.7744529452     2.3529820154     6.0009360861
   46      H      -0.7172748435     2.4427088034     4.9212570814
   47      C      -0.9538059532     3.4739066470     6.7883217942
   48      C      -0.9902620694     3.3600283580     8.1957892696
   49      C      -0.8473672891     2.1199408393     8.7953589990
   50      H      -0.8523851573     2.0314132690     9.8759950497
   51      C      -0.7147901881     0.9723390552     8.0058914026
   52      C      -1.1397195821     4.8769922345     6.4332270588
   53      C      -1.2135834414     5.5727339696     5.2559468037
   54      H      -1.1121795356     5.0843905672     4.2943664058
   55      C      -1.2882400390     5.5714901644     7.6463161017
   56      C      -1.5148040783     6.9389215466     7.7351163031
   57      C      -1.2040027422     4.6984417864     8.7482387901
   58      C      -1.3508079449     5.2215945070    10.0047273669
   59      H      -1.3021716891     4.6027798384    10.8921289262
   60      C      -1.4359535416     6.9683288340     5.3146919826
   61      H      -1.4960525461     7.5220750876     4.3867889794
   62      C      -1.5835043596     7.6407382929     6.5061798486
   63      H      -1.7571044466     8.7097381547     6.5018438059
   64      C      -1.5789615779     6.6131857030    10.1308258637
   65      H      -1.6966405789     7.0273710992    11.1235390662
   66      C      -1.6607099503     7.4548283804     9.0451554172
   67      H      -1.8412175278     8.5120482436     9.1949879567
   68      C      -0.6224601898    -1.5770006156     6.3598124303
   69      C      -0.6702802678    -2.7123190655     5.5504409852
   70      H      -0.6271303652    -2.6128075173     4.4716998497
   71      C      -0.7703879656    -3.9613641517     6.1290546970
   72      C      -0.7834396940    -4.1071391371     7.5351549400
   73      C      -0.7114132814    -2.9865455426     8.3431668075
   74      H      -0.6986240719    -3.0881730122     9.4229495727
   75      C      -0.6513166757    -1.7128764841     7.7656528224
   76      C      -0.8493568337    -5.2906338434     5.5261638634
   77      C      -0.8746960771    -5.7771443666     4.2445707956
   78      H      -0.8338514713    -5.1227456382     3.3824814693
   79      C      -0.9046923094    -6.2015483023     6.5951079509
   80      C      -0.9826786228    -7.5826634485     6.4363390643
   81      C      -0.8666691875    -5.5408877762     7.8376883494
   82      C      -0.9079490068    -6.3043179850     8.9755220125
   83      H      -0.8818864241    -5.8621426501     9.9634607995
   84      C      -0.9559796441    -7.1771434292     4.0521862782
   85      H      -0.9759442640    -7.5603110598     3.0401277035
   86      C      -1.0086990563    -8.0621692025     5.1039602458
   87      H      -1.0695667584    -9.1266868719     4.9122855167
   88      C      -0.9867848405    -7.7128737250     8.8479777229
   89      H      -1.0188823550    -8.3103387262     9.7497442644
   90      C      -1.0240748707    -8.3457680706     7.6273717982
   91      H      -1.0842696767    -9.4263171748     7.5785673202
   92      B      -0.5937806004    -0.4418446418     8.6576340061
   93      C      -0.3430530452    -0.5629365373    10.1998039165
   94      C      -1.3632283946    -0.4096682951    11.1443009454
   95      C      -1.0580891608    -0.4278557003    12.5005170962
   96      H      -1.8467307172    -0.3020903988    13.2343115058
   97      C       0.2513905421    -0.5850354773    12.9289950135
   98      C       1.2632724402    -0.7629228760    11.9924343879
   99      H       2.2863502841    -0.8837021658    12.3294373895
  100      C       0.9758809500    -0.7628540015    10.6355185131
  101      N       0.5545684766    -0.5440357727    14.3067340523
  102      C       0.1551920182     0.5747519224    15.0513088078
  103      C      -0.2806183539     0.4429964175    16.3701062178
  104      H      -0.3075629886    -0.5346979477    16.8341818596
  105      C      -0.6859248430     1.5576856576    17.0857822276
  106      H      -1.0217301611     1.4356056101    18.1076242488
  107      C      -0.6846836837     2.8162657740    16.5001485920
  108      H      -1.0105533038     3.6821999483    17.0607097267
  109      C      -0.2611005850     2.9473625402    15.1853243271
  110      H      -0.2469155916     3.9218487382    14.7138505742
  111      C       0.1633954946     1.8422176547    14.4665326578
  112      H       0.5011275975     1.9605627686    13.4447095022
  113      C       1.3053100217    -1.5837512011    14.8697602675
  114      C       2.2777845168    -1.3307123332    15.8375524763
  115      H       2.4610407848    -0.3158424778    16.1657311055
  116      C       3.0147993681    -2.3733190586    16.3754570371
  117      H       3.7659767349    -2.1575700767    17.1245083550
  118      C       2.8145178665    -3.6785057354    15.9484349172
  119      H       3.3988575217    -4.4876690567    16.3657217641
  120      C       1.8562867393    -3.9305290948    14.9765636427
  121      H       1.6839669448    -4.9429272209    14.6340487934
  122      C       1.1009374096    -2.8983679999    14.4455632509
  123      H       0.3479211765    -3.1106224391    13.6971235706
  124      C       2.0846892082    -0.9413101539     9.6345310526
  125      H       3.0616798395    -0.9536284500    10.1165315226
  126      H       1.9779363216    -1.8781461845     9.0838339135
  127      H       2.0976423674    -0.1366918807     8.8945510094
  128      C      -2.8037257756    -0.2880287609    10.7153729542
  129      H      -2.8754679001     0.2482042375     9.7647718470
  130      H      -3.3530756831     0.3156723839    11.4419052328
  131      C      -3.4873450853    -1.6471774030    10.5737195105
  132      H      -3.0135513512    -2.2521517506     9.8002933435
  133      H      -3.4448971816    -2.2071643707    11.5086105298
  134      H      -4.5363840537    -1.5277138760    10.3011041397
 ----------------------------------------------------------------

   12   -3006.3422836524      5.75E-09 Convergence criterion met
 Total energy in the final basis set = -3006.34228365
 Final energy is   -3006.34228365241
 **  OPTIMIZATION CONVERGED  **

                    Orbital Energies (a.u.)
 --------------------------------------------------------------

 Alpha MOs
 -- Occupied --
-14.669 -14.668 -10.491 -10.491 -10.490 -10.490 -10.484 -10.483
-10.465 -10.465 -10.465 -10.465 -10.465 -10.464 -10.464 -10.464
-10.463 -10.463 -10.462 -10.462 -10.461 -10.461 -10.461 -10.461
-10.461 -10.460 -10.459 -10.459 -10.459 -10.458 -10.456 -10.455
-10.455 -10.455 -10.454 -10.453 -10.452 -10.451 -10.448 -10.448
-10.447 -10.447 -10.447 -10.447 -10.447 -10.447 -10.446 -10.446
-10.444 -10.444 -10.443 -10.443 -10.443 -10.443 -10.443 -10.442
-10.442 -10.441 -10.441 -10.440 -10.437 -10.437 -10.437 -10.436
-10.436 -10.436 -10.435 -10.435 -10.435 -10.434 -10.428 -10.427
-10.424 -10.422 -10.421 -10.419  -6.951  -6.950  -1.079  -1.079
 -1.017  -1.016  -0.965  -0.962  -0.960  -0.960  -0.960  -0.959
 -0.940  -0.939  -0.934  -0.933  -0.910  -0.902  -0.884  -0.884
 -0.865  -0.861  -0.855  -0.854  -0.850  -0.850  -0.847  -0.846
 -0.838  -0.838  -0.836  -0.836  -0.823  -0.816  -0.814  -0.813
 -0.812  -0.806  -0.793  -0.793  -0.767  -0.766  -0.736  -0.730
 -0.727  -0.721  -0.713  -0.712  -0.707  -0.706  -0.700  -0.699
 -0.689  -0.682  -0.680  -0.680  -0.679  -0.674  -0.667  -0.666
 -0.650  -0.648  -0.640  -0.640  -0.636  -0.635  -0.606  -0.606
 -0.595  -0.595  -0.591  -0.588  -0.586  -0.586  -0.583  -0.576
 -0.574  -0.562  -0.561  -0.554  -0.553  -0.545  -0.544  -0.542
 -0.542  -0.538  -0.528  -0.525  -0.521  -0.520  -0.517  -0.511
 -0.509  -0.509  -0.503  -0.501  -0.500  -0.497  -0.496  -0.496
 -0.495  -0.494  -0.493  -0.489  -0.486  -0.485  -0.484  -0.483
 -0.482  -0.481  -0.481  -0.480  -0.478  -0.478  -0.476  -0.473
 -0.469  -0.467  -0.467  -0.462  -0.457  -0.453  -0.449  -0.446
 -0.443  -0.442  -0.440  -0.439  -0.433  -0.431  -0.429  -0.427
 -0.426  -0.425  -0.424  -0.422  -0.420  -0.420  -0.418  -0.412
 -0.411  -0.410  -0.404  -0.402  -0.400  -0.399  -0.398  -0.396
 -0.396  -0.395  -0.395  -0.394  -0.393  -0.391  -0.389  -0.387
 -0.381  -0.378  -0.376  -0.369  -0.359  -0.357  -0.354  -0.352
 -0.346  -0.341  -0.320  -0.314  -0.303  -0.302  -0.299  -0.299
 -0.296  -0.295  -0.295  -0.294  -0.286  -0.284  -0.281  -0.276
 -0.276  -0.262  -0.258  -0.256  -0.222  -0.221

 Beta MOs
 -- Occupied --
-14.669 -14.668 -10.491 -10.491 -10.490 -10.490 -10.484 -10.483
-10.465 -10.465 -10.465 -10.465 -10.465 -10.464 -10.464 -10.464
-10.463 -10.463 -10.462 -10.462 -10.461 -10.461 -10.461 -10.461
-10.461 -10.460 -10.459 -10.459 -10.459 -10.458 -10.456 -10.455
-10.455 -10.455 -10.454 -10.453 -10.452 -10.451 -10.448 -10.448
-10.447 -10.447 -10.447 -10.447 -10.447 -10.447 -10.446 -10.446
-10.444 -10.444 -10.443 -10.443 -10.443 -10.443 -10.443 -10.442
-10.442 -10.441 -10.441 -10.440 -10.437 -10.437 -10.437 -10.436
-10.436 -10.436 -10.435 -10.435 -10.435 -10.434 -10.428 -10.427
-10.424 -10.422 -10.421 -10.419  -6.951  -6.950  -1.079  -1.079
 -1.017  -1.016  -0.965  -0.962  -0.960  -0.960  -0.960  -0.959
 -0.940  -0.939  -0.934  -0.933  -0.910  -0.902  -0.884  -0.884
 -0.865  -0.861  -0.855  -0.854  -0.850  -0.850  -0.847  -0.846
 -0.838  -0.838  -0.836  -0.836  -0.823  -0.816  -0.814  -0.813
 -0.812  -0.806  -0.793  -0.793  -0.767  -0.766  -0.736  -0.730
 -0.727  -0.721  -0.713  -0.712  -0.707  -0.706  -0.700  -0.699
 -0.689  -0.682  -0.680  -0.680  -0.679  -0.674  -0.667  -0.666
 -0.650  -0.648  -0.640  -0.640  -0.636  -0.635  -0.606  -0.606
 -0.595  -0.595  -0.591  -0.588  -0.586  -0.586  -0.583  -0.576
 -0.574  -0.562  -0.561  -0.554  -0.553  -0.545  -0.544  -0.542
 -0.542  -0.538  -0.528  -0.525  -0.521  -0.520  -0.517  -0.511
 -0.509  -0.509  -0.503  -0.501  -0.500  -0.497  -0.496  -0.496
 -0.495  -0.494  -0.493  -0.489  -0.486  -0.485  -0.484  -0.483
 -0.482  -0.481  -0.481  -0.480  -0.478  -0.478  -0.476  -0.473
 -0.469  -0.467  -0.467  -0.462  -0.457  -0.453  -0.449  -0.446
 -0.443  -0.442  -0.440  -0.439  -0.433  -0.431  -0.429  -0.427
 -0.426  -0.425  -0.424  -0.422  -0.420  -0.420  -0.418  -0.412
 -0.411  -0.410  -0.404  -0.402  -0.400  -0.399  -0.398  -0.396
 -0.396  -0.395  -0.395  -0.394  -0.393  -0.391  -0.389  -0.387
 -0.381  -0.378  -0.376  -0.369  -0.359  -0.357  -0.354  -0.352
 -0.346  -0.341  -0.320  -0.314  -0.303  -0.302  -0.299  -0.299
 -0.296  -0.295  -0.295  -0.294  -0.286  -0.284  -0.281  -0.276
 -0.276  -0.262  -0.258  -0.256  -0.222  -0.221

          Ground-State Mulliken Net Atomic Charges

     Atom                 Charge (a.u.)    Spin (a.u.)
  --------------------------------------------------------
      1 N                    -0.673656       0.000000
      2 C                     0.296407      -0.000000
      3 C                    -0.360350       0.000000
      4 H                     0.240719      -0.000000
      5 C                     0.061634      -0.000000
      6 C                     0.300282       0.000000
      7 C                    -0.290421      -0.000000
      8 H                     0.251362       0.000000
      9 C                    -0.228331       0.000000
     10 H                     0.234286       0.000000
     11 C                    -0.254191      -0.000000
     12 H                     0.231869      -0.000000
     13 C                    -0.228379      -0.000000
     14 H                     0.235005       0.000000
     15 C                    -0.290954      -0.000000
     16 H                     0.254694       0.000000
     17 C                     0.294585      -0.000000
     18 C                    -0.290001       0.000000
     19 H                     0.254742       0.000000
     20 C                    -0.228580      -0.000000
     21 H                     0.235336      -0.000000
     22 C                    -0.253632       0.000000
     23 H                     0.232167      -0.000000
     24 C                    -0.226917      -0.000000
     25 H                     0.232006      -0.000000
     26 C                    -0.285464       0.000000
     27 H                     0.249199       0.000000
     28 C                    -0.359360       0.000000
     29 H                     0.242135      -0.000000
     30 C                     0.062605      -0.000000
     31 C                    -0.216182       0.000000
     32 C                    -0.762857       0.000000
     33 H                     0.246684      -0.000000
     34 H                     0.244727       0.000000
     35 H                     0.246781       0.000000
     36 C                    -0.555458      -0.000000
     37 H                     0.255777      -0.000000
     38 H                     0.241625       0.000000
     39 C                    -0.650568       0.000000
     40 H                     0.240166       0.000000
     41 H                     0.223214       0.000000
     42 H                     0.221989       0.000000
     43 B                     0.664336       0.000000
     44 C                    -0.144906       0.000000
     45 C                    -0.398115      -0.000000
     46 H                     0.239446      -0.000000
     47 C                     0.082051       0.000000
     48 C                     0.103055      -0.000000
     49 C                    -0.393442      -0.000000
     50 H                     0.237180       0.000000
     51 C                    -0.150764      -0.000000
     52 C                     0.186460      -0.000000
     53 C                    -0.385063       0.000000
     54 H                     0.235576      -0.000000
     55 C                    -0.063235       0.000000
     56 C                     0.239898      -0.000000
     57 C                     0.187302       0.000000
     58 C                    -0.389768       0.000000
     59 H                     0.235162      -0.000000
     60 C                    -0.220711      -0.000000
     61 H                     0.243210       0.000000
     62 C                    -0.341818       0.000000
     63 H                     0.238202       0.000000
     64 C                    -0.218349      -0.000000
     65 H                     0.242069       0.000000
     66 C                    -0.344768       0.000000
     67 H                     0.238460      -0.000000
     68 C                    -0.149538      -0.000000
     69 C                    -0.384126       0.000000
     70 H                     0.238468       0.000000
     71 C                     0.082420       0.000000
     72 C                     0.097298       0.000000
     73 C                    -0.407199      -0.000000
     74 H                     0.241571       0.000000
     75 C                    -0.150654       0.000000
     76 C                     0.188647      -0.000000
     77 C                    -0.385123       0.000000
     78 H                     0.233473      -0.000000
     79 C                    -0.063334       0.000000
     80 C                     0.235998      -0.000000
     81 C                     0.190752      -0.000000
     82 C                    -0.392953       0.000000
     83 H                     0.234763      -0.000000
     84 C                    -0.219641      -0.000000
     85 H                     0.242330       0.000000
     86 C                    -0.340597       0.000000
     87 H                     0.238382      -0.000000
     88 C                    -0.217713      -0.000000
     89 H                     0.242600       0.000000
     90 C                    -0.343056       0.000000
     91 H                     0.238577      -0.000000
     92 B                     0.676576       0.000000
     93 C                    -0.203347      -0.000000
     94 C                     0.075783      -0.000000
     95 C                    -0.341800       0.000000
     96 H                     0.236565       0.000000
     97 C                     0.272424      -0.000000
     98 C                    -0.351032      -0.000000
     99 H                     0.240627       0.000000
    100 C                     0.035455       0.000000
    101 N                    -0.673230       0.000000
    102 C                     0.307842       0.000000
    103 C                    -0.292085      -0.000000
    104 H                     0.255353      -0.000000
    105 C                    -0.229011       0.000000
    106 H                     0.234688       0.000000
    107 C                    -0.255101      -0.000000
    108 H                     0.230965      -0.000000
    109 C                    -0.227529      -0.000000
    110 H                     0.231222       0.000000
    111 C                    -0.294547      -0.000000
    112 H                     0.253001       0.000000
    113 C                     0.311088      -0.000000
    114 C                    -0.297632       0.000000
    115 H                     0.255614       0.000000
    116 C                    -0.228451       0.000000
    117 H                     0.234527      -0.000000
    118 C                    -0.255546       0.000000
    119 H                     0.230972       0.000000
    120 C                    -0.226381      -0.000000
    121 H                     0.232626       0.000000
    122 C                    -0.293147       0.000000
    123 H                     0.249713       0.000000
    124 C                    -0.770569      -0.000000
    125 H                     0.249841       0.000000
    126 H                     0.251895      -0.000000
    127 H                     0.249791      -0.000000
    128 C                    -0.545325       0.000000
    129 H                     0.250819      -0.000000
    130 H                     0.237807       0.000000
    131 C                    -0.649933       0.000000
    132 H                     0.236174      -0.000000
    133 H                     0.219348       0.000000
    134 H                     0.226441       0.000000
  --------------------------------------------------------
  Sum of atomic charges =    -0.000000

                    Cartesian Multipole Moments
 -----------------------------------------------------------------
    Charge (ESU x 10^10)
                -0.0000
    Dipole Moment (Debye)
         X      -0.8259      Y      -0.0102      Z      -0.4851
       Tot       0.9579
    Quadrupole Moments (Debye-Ang)
        XX    -450.0071     XY      -2.1243     YY    -375.0222
        XZ      -6.0510     YZ       4.1218     ZZ    -425.1220

 Total job time:  121346.05s(wall), 357157.45s(cpu)
        *  Thank you very much for using Q-Chem.  Have a nice day.  *
