 Q-Chem 5.0, Q-Chem, Inc., Pleasanton, CA (2017)
 Q-Chem 5.0.1 for Intel X86 EM64T Linux

User input:
--------------------------------------------------------------
$rem
threads 8
jobtype	sp
method PBEh-3c
basis def2-mSVP
mem_static	1024
mem_total	8000
sym_ignore	true
unrestricted true
scf_convergence	9
solvent_method	pcm
$end

$molecule
read incoords.mol
$end

$solvent
dielectric	4.33
$end

$pcm
theory iefpcm
$end
--------------------------------------------------------------

   17   -3006.3449449667      4.33E-10 Convergence criterion met
 Total energy in the final basis set = -3006.34494497
 Total job time:  4187.28s(wall), 13046.62s(cpu)
        *  Thank you very much for using Q-Chem.  Have a nice day.  *
 Q-Chem 5.0, Q-Chem, Inc., Pleasanton, CA (2017)
 Q-Chem 5.0.1 for Intel X86 EM64T Linux

User input:
--------------------------------------------------------------

$rem
threads 8
jobtype opt
method PBEh-3c
basis def2-mSVP
scf_guess	read
mem_static      1024
mem_total       8000
sym_ignore      true
unrestricted true
mom_start       1
scf_algorithm	diis
scf_max_cycles	250
solvent_method	pcm
geom_opt_tol_energy 25
geom_opt_tol_gradient 75
$end

$solvent
dielectric      4.33
$end

$pcm
theory iefpcm
$end

$occupied
1 2 3 4 5 6 7 8 9 10 11 12 13 14 15 16 17 18 19 20 21 22 23 24 25 26 27 28 29 30 31 32 33 34 35 36 37 38 39 40 41 42 43 44 45 46 47 48 49 50 51 52 53 54 55 56 57 58 59 60 61 62 63 64 65 66 67 68 69 70 71 72 73 74 75 76 77 78 79 80 81 82 83 84 85 86 87 88 89 90 91 92 93 94 95 96 97 98 99 100 101 102 103 104 105 106 107 108 109 110 111 112 113 114 115 116 117 118 119 120 121 122 123 124 125 126 127 128 129 130 131 132 133 134 135 136 137 138 139 140 141 142 143 144 145 146 147 148 149 150 151 152 153 154 155 156 157 158 159 160 161 162 163 164 165 166 167 168 169 170 171 172 173 174 175 176 177 178 179 180 181 182 183 184 185 186 187 188 189 190 191 192 193 194 195 196 197 198 199 200 201 202 203 204 205 206 207 208 209 210 211 212 213 214 215 216 217 218 219 220 221 222 223 224 225 226 227 228 229 230 231 232 233 234 235 236 237 238 239 240 241 242 243 244 245 246 247 248 249 250 251 252 253 254 255 256 257 258 259 260 261  263
1 2 3 4 5 6 7 8 9 10 11 12 13 14 15 16 17 18 19 20 21 22 23 24 25 26 27 28 29 30 31 32 33 34 35 36 37 38 39 40 41 42 43 44 45 46 47 48 49 50 51 52 53 54 55 56 57 58 59 60 61 62 63 64 65 66 67 68 69 70 71 72 73 74 75 76 77 78 79 80 81 82 83 84 85 86 87 88 89 90 91 92 93 94 95 96 97 98 99 100 101 102 103 104 105 106 107 108 109 110 111 112 113 114 115 116 117 118 119 120 121 122 123 124 125 126 127 128 129 130 131 132 133 134 135 136 137 138 139 140 141 142 143 144 145 146 147 148 149 150 151 152 153 154 155 156 157 158 159 160 161 162 163 164 165 166 167 168 169 170 171 172 173 174 175 176 177 178 179 180 181 182 183 184 185 186 187 188 189 190 191 192 193 194 195 196 197 198 199 200 201 202 203 204 205 206 207 208 209 210 211 212 213 214 215 216 217 218 219 220 221 222 223 224 225 226 227 228 229 230 231 232 233 234 235 236 237 238 239 240 241 242 243 244 245 246 247 248 249 250 251 252 253 254 255 256 257 258 259 260 261 262
$end

$molecule
read
$end

--------------------------------------------------------------

   21   -3006.2825216586      7.92E-09 Convergence criterion met
 Total energy in the final basis set = -3006.28252166
   20   -3006.2823794671      7.28E-09 Convergence criterion met
 Total energy in the final basis set = -3006.28237947
   40   -3006.2817596202      7.68E-09 Convergence criterion met
 Total energy in the final basis set = -3006.28175962
   19   -3006.2824897115      8.31E-09 Convergence criterion met
 Total energy in the final basis set = -3006.28248971
   19   -3006.2820205503      9.14E-09 Convergence criterion met
 Total energy in the final basis set = -3006.28202055
   20   -3006.2825434075      6.41E-09 Convergence criterion met
 Total energy in the final basis set = -3006.28254341
   20   -3006.2825030375      7.73E-09 Convergence criterion met
 Total energy in the final basis set = -3006.28250304
   19   -3006.2824894990      7.37E-09 Convergence criterion met
 Total energy in the final basis set = -3006.28248950
   18   -3006.2824485582      9.15E-09 Convergence criterion met
 Total energy in the final basis set = -3006.28244856
   18   -3006.2824177766      8.42E-09 Convergence criterion met
 Total energy in the final basis set = -3006.28241778
   18   -3006.2824030954      9.50E-09 Convergence criterion met
 Total energy in the final basis set = -3006.28240310
   18   -3006.2824000438      9.25E-09 Convergence criterion met
 Total energy in the final basis set = -3006.28240004

             Standard Nuclear Orientation (Angstroms)
    I     Atom           X                Y                Z
 ----------------------------------------------------------------
    1      N       0.2035776565    -0.0890285297     0.0089765599
    2      C       0.1707143738    -0.0218742976     1.3771920345
    3      C       1.3686252085     0.0315946111     2.1150533719
    4      H       2.3191341315    -0.0124402897     1.5975501850
    5      C       1.3347064225     0.0494519570     3.4905217515
    6      C       1.2543404799     0.5027028905    -0.7204072004
    7      C       1.6823111575     1.7884961153    -0.3920673443
    8      H       1.2003274409     2.3356972699     0.4076750424
    9      C       2.7060433407     2.3683323721    -1.1197217561
   10      H       3.0335704766     3.3692805197    -0.8744585255
   11      C       3.2973857880     1.6764208428    -2.1689742486
   12      H       4.0968938778     2.1342163369    -2.7356863053
   13      C       2.8598436685     0.3982710963    -2.4959156007
   14      H       3.3234392313    -0.1437885790    -3.3089315070
   15      C       1.8364969864    -0.1935789029    -1.7790297016
   16      H       1.5051414928    -1.1946971033    -2.0227652781
   17      C      -0.8162415893    -0.7574429277    -0.7005855247
   18      C      -1.3723311638    -0.1678306774    -1.8348730244
   19      H      -1.0401046787     0.8080266440    -2.1643991570
   20      C      -2.3764050260    -0.8296630828    -2.5183365802
   21      H      -2.8208334215    -0.3686014449    -3.3899398927
   22      C      -2.8215755987    -2.0724286976    -2.0836509536
   23      H      -3.6074364740    -2.5838587338    -2.6231720495
   24      C      -2.2555625277    -2.6596013303    -0.9596905750
   25      H      -2.5889384857    -3.6331920815    -0.6270155978
   26      C      -1.2510338485    -2.0091404186    -0.2653236953
   27      H      -0.7929292831    -2.4766729389     0.5967972489
   28      C      -1.0681071979    -0.0248437295     2.0502673406
   29      H      -1.9882935295    -0.0188861505     1.4796297370
   30      C      -1.1086706247     0.0118523601     3.4221802121
   31      C       0.0951946882     0.0300731305     4.1742310327
   32      C      -2.4295970415     0.0204391250     4.1301199291
   33      H      -3.2624021805     0.0195871574     3.4278519291
   34      H      -2.5262892334     0.8947117030     4.7749644042
   35      H      -2.5276594339    -0.8547274173     4.7749705708
   36      C       2.6318489393     0.0942450404     4.2482075377
   37      H       2.5234251326    -0.4227598949     5.2032823394
   38      H       3.3998576247    -0.4426119269     3.6864323721
   39      C       3.0887323712     1.5313717931     4.4901257303
   40      H       2.3623213564     2.0784803094     5.0904986519
   41      H       4.0395641448     1.5479018051     5.0225277629
   42      H       3.2201684205     2.0648892217     3.5474935317
   43      B       0.0261986482    -0.0776225655     5.7492523634
   44      C      -0.1023724767     1.1627366961     6.6276446408
   45      C      -0.1966159266     2.4493197018     6.0562255713
   46      H      -0.1655057996     2.5599931279     4.9758272419
   47      C      -0.3367597174     3.5585435725     6.8498005929
   48      C      -0.3795790347     3.4258988413     8.2695596985
   49      C      -0.2822643113     2.1793974416     8.8451439141
   50      H      -0.3186289364     2.0763679221     9.9247689055
   51      C      -0.1529279339     1.0216738558     8.0488162423
   52      C      -0.4823875112     4.9707455595     6.5173323009
   53      C      -0.5300523643     5.6909619127     5.3500955770
   54      H      -0.4401820785     5.2151162263     4.3808369053
   55      C      -0.6121089740     5.6538174711     7.7422953582
   56      C      -0.7938919146     7.0287847397     7.8501123588
   57      C      -0.5554228739     4.7613260841     8.8346315924
   58      C      -0.6840128565     5.2781876712    10.0991066290
   59      H      -0.6528905626     4.6478766629    10.9792626695
   60      C      -0.7078408586     7.0907778943     5.4303750963
   61      H      -0.7469211951     7.6610954233     4.5107304039
   62      C      -0.8372002228     7.7515876655     6.6316886316
   63      H      -0.9756434087     8.8258246698     6.6437457660
   64      C      -0.8669554329     6.6739905012    10.2412200225
   65      H      -0.9690881543     7.0793968979    11.2398314782
   66      C      -0.9226279872     7.5339404462     9.1670827387
   67      H      -1.0680522143     8.5947855301     9.3298414259
   68      C       0.0449407762    -1.4735544976     6.3716167033
   69      C       0.0943638956    -2.6260881193     5.5606497945
   70      H       0.1307408858    -2.5280569977     4.4798985285
   71      C       0.0887992028    -3.8751427377     6.1230345172
   72      C       0.0462324236    -4.0326281021     7.5413894468
   73      C       0.0040259991    -2.9196338076     8.3476995713
   74      H      -0.0315253864    -3.0316907116     9.4268021411
   75      C      -0.0064888473    -1.6226734468     7.7908037713
   76      C       0.1124709399    -5.2029277061     5.5157584922
   77      C       0.1478834645    -5.6879630982     4.2306962474
   78      H       0.1705242875    -5.0285247442     3.3714362775
   79      C       0.0833655433    -6.1239239346     6.5809537103
   80      C       0.0876702142    -7.5084890893     6.4131459807
   81      C       0.0441234137    -5.4683084576     7.8299410977
   82      C       0.0083925325    -6.2460399289     8.9621325727
   83      H      -0.0240029892    -5.8110130621     9.9531677132
   84      C       0.1537280778    -7.0883897072     4.0321224438
   85      H       0.1813083331    -7.4676799951     3.0181321033
   86      C       0.1249600242    -7.9824294625     5.0785659065
   87      H       0.1299211222    -9.0479446024     4.8818210415
   88      C       0.0131185491    -7.6547273685     8.8225923053
   89      H      -0.0154468238    -8.2598898732     9.7199821853
   90      C       0.0513509840    -8.2825473919     7.5983055992
   91      H       0.0522834634    -9.3645133262     7.5414038154
   92      B      -0.0934887862    -0.3798426152     8.6902928405
   93      C      -0.1160381290    -0.5207228112    10.2643207726
   94      C      -1.3145789419    -0.4666097127    10.9868312768
   95      C      -1.2973586323    -0.5160158376    12.3769926403
   96      H      -2.2290917210    -0.4668642490    12.9311272848
   97      C      -0.0982733703    -0.6037947282    13.0665794182
   98      C       1.0943659148    -0.6797371023    12.3576289430
   99      H       2.0328349114    -0.7513452549    12.8961073603
  100      C       1.0912323165    -0.6494737148    10.9688903993
  101      N      -0.0906870041    -0.5998884721    14.4820137521
  102      C      -0.7053586928     0.4609369206    15.1560632472
  103      C      -1.3635143735     0.2626998342    16.3721009068
  104      H      -1.4010319651    -0.7255515670    16.8123645077
  105      C      -1.9805805740     1.3224913039    17.0167494680
  106      H      -2.4861370411     1.1441430849    17.9574227809
  107      C      -1.9764119301     2.5937739011    16.4591622694
  108      H      -2.4683877672     3.4162743846    16.9610289559
  109      C      -1.3344287976     2.7909064680    15.2442457798
  110      H      -1.3179493904     3.7745380036    14.7919658700
  111      C      -0.6979542041     1.7429098964    14.6003355298
  112      H      -0.1963785921     1.9193428687    13.6575659289
  113      C       0.5392300566    -1.6534019248    15.1541772901
  114      C       1.2654090797    -1.4335730523    16.3261735417
  115      H       1.3464241369    -0.4332779657    16.7317494447
  116      C       1.8922784779    -2.4881646076    16.9700270871
  117      H       2.4513554935    -2.2952850195    17.8768890403
  118      C       1.8291521548    -3.7746653154    16.4521044535
  119      H       2.3281651999    -4.5935551281    16.9530670168
  120      C       1.1198070376    -3.9935052254    15.2790317195
  121      H       1.0573998726    -4.9899926286    14.8602294381
  122      C       0.4732309377    -2.9496775766    14.6377870782
  123      H      -0.0839280288    -3.1402901484    13.7293338666
  124      C       2.3922365634    -0.7317638868    10.2190769718
  125      H       3.2477062754    -0.7348162864    10.8946102169
  126      H       2.4420323031    -1.6398788520     9.6148270376
  127      H       2.5115242483     0.1075582109     9.5308520124
  128      C      -2.6458056502    -0.4103510244    10.2802624634
  129      H      -2.5506103923     0.1386329949     9.3405166464
  130      H      -3.3616466717     0.1473072710    10.8900344996
  131      C      -3.2080124435    -1.8012635622     9.9922628299
  132      H      -2.5409335175    -2.3663459153     9.3410869460
  133      H      -3.3388929881    -2.3715573447    10.9130973493
  134      H      -4.1783079564    -1.7355270848     9.4977042005
 ----------------------------------------------------------------

   18   -3006.2823995910      9.23E-09 Convergence criterion met
 Total energy in the final basis set = -3006.28239959
 Final energy is   -3006.28239959102
 **  OPTIMIZATION CONVERGED  **

                    Orbital Energies (a.u.)
 --------------------------------------------------------------

 Alpha MOs
 -- Occupied --
-14.759 -14.663 -10.539 -10.532 -10.532 -10.487 -10.486 -10.484
-10.484 -10.484 -10.483 -10.481 -10.478 -10.477 -10.477 -10.477
-10.477 -10.477 -10.476 -10.476 -10.475 -10.471 -10.458 -10.454
-10.453 -10.451 -10.450 -10.449 -10.449 -10.449 -10.449 -10.448
-10.448 -10.448 -10.448 -10.448 -10.447 -10.447 -10.447 -10.447
-10.446 -10.443 -10.442 -10.442 -10.442 -10.441 -10.440 -10.440
-10.439 -10.439 -10.439 -10.439 -10.438 -10.438 -10.437 -10.437
-10.436 -10.436 -10.435 -10.435 -10.435 -10.435 -10.433 -10.433
-10.432 -10.426 -10.426 -10.424 -10.421 -10.413 -10.410 -10.410
-10.410 -10.407 -10.406 -10.406  -6.903  -6.899  -1.142  -1.073
 -1.001  -1.000  -0.997  -0.994  -0.972  -0.955  -0.951  -0.943
 -0.941  -0.931  -0.920  -0.920  -0.907  -0.896  -0.888  -0.887
 -0.881  -0.872  -0.871  -0.870  -0.851  -0.846  -0.839  -0.838
 -0.837  -0.834  -0.834  -0.832  -0.831  -0.818  -0.804  -0.803
 -0.798  -0.796  -0.785  -0.785  -0.783  -0.753  -0.746  -0.743
 -0.720  -0.718  -0.716  -0.715  -0.713  -0.708  -0.704  -0.702
 -0.699  -0.692  -0.675  -0.674  -0.672  -0.667  -0.664  -0.661
 -0.656  -0.648  -0.638  -0.633  -0.629  -0.628  -0.624  -0.621
 -0.601  -0.596  -0.585  -0.584  -0.580  -0.579  -0.578  -0.574
 -0.572  -0.568  -0.560  -0.559  -0.555  -0.554  -0.551  -0.544
 -0.543  -0.536  -0.529  -0.527  -0.527  -0.525  -0.517  -0.514
 -0.514  -0.513  -0.512  -0.509  -0.506  -0.502  -0.495  -0.492
 -0.491  -0.490  -0.488  -0.486  -0.485  -0.483  -0.477  -0.476
 -0.475  -0.475  -0.473  -0.473  -0.472  -0.471  -0.468  -0.467
 -0.465  -0.464  -0.462  -0.457  -0.455  -0.452  -0.450  -0.449
 -0.448  -0.444  -0.442  -0.440  -0.438  -0.436  -0.432  -0.430
 -0.429  -0.427  -0.424  -0.422  -0.422  -0.420  -0.416  -0.415
 -0.411  -0.410  -0.407  -0.405  -0.400  -0.396  -0.394  -0.389
 -0.388  -0.388  -0.385  -0.385  -0.384  -0.381  -0.379  -0.376
 -0.376  -0.371  -0.365  -0.357  -0.356  -0.349  -0.348  -0.335
 -0.334  -0.328  -0.328  -0.323  -0.320  -0.308  -0.304  -0.302
 -0.297  -0.297  -0.295  -0.289  -0.288  -0.286  -0.272  -0.271
 -0.264  -0.254  -0.243  -0.240  -0.215  -0.150

 Beta MOs
 -- Occupied --
-14.769 -14.663 -10.539 -10.531 -10.530 -10.487 -10.486 -10.486
-10.486 -10.485 -10.485 -10.479 -10.479 -10.479 -10.478 -10.477
-10.476 -10.476 -10.476 -10.476 -10.475 -10.471 -10.463 -10.454
-10.454 -10.450 -10.450 -10.450 -10.449 -10.449 -10.449 -10.449
-10.448 -10.448 -10.448 -10.447 -10.447 -10.447 -10.446 -10.446
-10.446 -10.443 -10.442 -10.442 -10.442 -10.441 -10.439 -10.439
-10.439 -10.439 -10.438 -10.438 -10.438 -10.437 -10.437 -10.436
-10.436 -10.436 -10.435 -10.435 -10.435 -10.435 -10.434 -10.433
-10.433 -10.426 -10.426 -10.424 -10.421 -10.413 -10.410 -10.410
-10.410 -10.407 -10.406 -10.406  -6.899  -6.897  -1.158  -1.073
 -1.000  -1.000  -0.999  -0.998  -0.976  -0.955  -0.950  -0.942
 -0.940  -0.931  -0.919  -0.919  -0.908  -0.899  -0.889  -0.887
 -0.881  -0.873  -0.873  -0.870  -0.851  -0.846  -0.843  -0.837
 -0.836  -0.833  -0.833  -0.832  -0.831  -0.824  -0.804  -0.801
 -0.797  -0.795  -0.789  -0.783  -0.783  -0.753  -0.751  -0.746
 -0.722  -0.718  -0.717  -0.714  -0.711  -0.709  -0.704  -0.702
 -0.699  -0.692  -0.674  -0.674  -0.673  -0.667  -0.664  -0.661
 -0.654  -0.646  -0.639  -0.633  -0.629  -0.628  -0.624  -0.623
 -0.601  -0.597  -0.587  -0.584  -0.583  -0.579  -0.578  -0.577
 -0.572  -0.568  -0.560  -0.559  -0.557  -0.554  -0.552  -0.545
 -0.542  -0.536  -0.530  -0.528  -0.526  -0.526  -0.519  -0.515
 -0.513  -0.513  -0.512  -0.510  -0.505  -0.501  -0.498  -0.493
 -0.491  -0.490  -0.490  -0.486  -0.485  -0.483  -0.480  -0.477
 -0.475  -0.475  -0.475  -0.472  -0.472  -0.470  -0.470  -0.468
 -0.466  -0.465  -0.464  -0.457  -0.456  -0.454  -0.452  -0.450
 -0.450  -0.446  -0.444  -0.440  -0.438  -0.435  -0.432  -0.431
 -0.430  -0.428  -0.425  -0.424  -0.422  -0.419  -0.415  -0.412
 -0.409  -0.407  -0.407  -0.405  -0.400  -0.397  -0.395  -0.394
 -0.389  -0.388  -0.388  -0.384  -0.383  -0.382  -0.381  -0.379
 -0.376  -0.373  -0.364  -0.357  -0.350  -0.349  -0.347  -0.340
 -0.335  -0.334  -0.333  -0.325  -0.319  -0.313  -0.310  -0.302
 -0.298  -0.297  -0.295  -0.289  -0.284  -0.283  -0.273  -0.269
 -0.264  -0.260  -0.246  -0.240  -0.233  -0.215

          Ground-State Mulliken Net Atomic Charges

     Atom                 Charge (a.u.)    Spin (a.u.)
  --------------------------------------------------------
      1 N                    -0.575702      -0.369528
      2 C                     0.328624      -0.010429
      3 C                    -0.346650      -0.166649
      4 H                     0.284244       0.009158
      5 C                     0.065691       0.127255
      6 C                     0.257075       0.073958
      7 C                    -0.258015      -0.104293
      8 H                     0.289225       0.005315
      9 C                    -0.234994       0.072408
     10 H                     0.269229      -0.003918
     11 C                    -0.227530      -0.117172
     12 H                     0.267403       0.006416
     13 C                    -0.233789       0.067226
     14 H                     0.267998      -0.003427
     15 C                    -0.260544      -0.098808
     16 H                     0.284189       0.005135
     17 C                     0.250719       0.072713
     18 C                    -0.258041      -0.096349
     19 H                     0.283333       0.005022
     20 C                    -0.234386       0.065468
     21 H                     0.267697      -0.003360
     22 C                    -0.227358      -0.113717
     23 H                     0.267423       0.006226
     24 C                    -0.234188       0.070348
     25 H                     0.269698      -0.003819
     26 C                    -0.254979      -0.101882
     27 H                     0.288200       0.005210
     28 C                    -0.357081      -0.151894
     29 H                     0.286836       0.008442
     30 C                     0.050234       0.120480
     31 C                    -0.144822      -0.377428
     32 C                    -0.758593      -0.007557
     33 H                     0.246971       0.002643
     34 H                     0.265720       0.002566
     35 H                     0.269251       0.001011
     36 C                    -0.544024      -0.002766
     37 H                     0.279203      -0.001209
     38 H                     0.241298       0.001699
     39 C                    -0.660104       0.001242
     40 H                     0.253697      -0.000328
     41 H                     0.236057       0.000386
     42 H                     0.212336      -0.000048
     43 B                     0.527812       0.360940
     44 C                    -0.124577      -0.006008
     45 C                    -0.415858      -0.014032
     46 H                     0.210100       0.000308
     47 C                     0.064610       0.037276
     48 C                     0.081962       0.093669
     49 C                    -0.407230      -0.059904
     50 H                     0.224943       0.002361
     51 C                    -0.148102       0.065720
     52 C                     0.179244      -0.043939
     53 C                    -0.403665       0.068688
     54 H                     0.226008      -0.004047
     55 C                    -0.077528       0.023372
     56 C                     0.230098      -0.037849
     57 C                     0.179133      -0.057377
     58 C                    -0.406187       0.085678
     59 H                     0.234830      -0.005017
     60 C                    -0.226992      -0.045496
     61 H                     0.238594       0.002237
     62 C                    -0.358597       0.064448
     63 H                     0.236416      -0.003759
     64 C                    -0.224018      -0.053336
     65 H                     0.240662       0.002575
     66 C                    -0.362248       0.078260
     67 H                     0.236358      -0.004614
     68 C                    -0.135773       0.001103
     69 C                    -0.400292      -0.018588
     70 H                     0.203242       0.001334
     71 C                     0.064884       0.041066
     72 C                     0.076312       0.091941
     73 C                    -0.416835      -0.058915
     74 H                     0.229361       0.002146
     75 C                    -0.139087       0.062739
     76 C                     0.182219      -0.045061
     77 C                    -0.404546       0.070736
     78 H                     0.222368      -0.004192
     79 C                    -0.078223       0.023763
     80 C                     0.226087      -0.038476
     81 C                     0.183122      -0.057174
     82 C                    -0.409975       0.085682
     83 H                     0.235586      -0.005022
     84 C                    -0.226332      -0.046542
     85 H                     0.237659       0.002288
     86 C                    -0.357545       0.065924
     87 H                     0.236765      -0.003844
     88 C                    -0.223460      -0.053328
     89 H                     0.241397       0.002575
     90 C                    -0.360376       0.077951
     91 H                     0.236641      -0.004589
     92 B                     0.553106       0.276703
     93 C                    -0.182829      -0.025745
     94 C                     0.050137       0.004284
     95 C                    -0.345068      -0.001567
     96 H                     0.232908       0.000372
     97 C                     0.259867       0.001735
     98 C                    -0.353120      -0.001478
     99 H                     0.235050       0.000379
    100 C                     0.030304       0.004156
    101 N                    -0.672870      -0.000076
    102 C                     0.315904      -0.000040
    103 C                    -0.305045       0.000087
    104 H                     0.258183      -0.000005
    105 C                    -0.235280      -0.000063
    106 H                     0.239051       0.000003
    107 C                    -0.266864       0.000096
    108 H                     0.235361      -0.000006
    109 C                    -0.233016      -0.000062
    110 H                     0.238245       0.000003
    111 C                    -0.303651       0.000083
    112 H                     0.259318      -0.000006
    113 C                     0.312554      -0.000048
    114 C                    -0.302163       0.000093
    115 H                     0.258377      -0.000005
    116 C                    -0.236015      -0.000063
    117 H                     0.239627       0.000003
    118 C                    -0.265129       0.000099
    119 H                     0.236078      -0.000006
    120 C                    -0.233883      -0.000057
    121 H                     0.239542       0.000003
    122 C                    -0.301181       0.000075
    123 H                     0.257307      -0.000008
    124 C                    -0.761976       0.000626
    125 H                     0.238046       0.001508
    126 H                     0.245651      -0.000396
    127 H                     0.248390      -0.001053
    128 C                    -0.540827       0.003155
    129 H                     0.255999      -0.002035
    130 H                     0.229670       0.000374
    131 C                    -0.656378      -0.000251
    132 H                     0.242912      -0.000223
    133 H                     0.214240      -0.000073
    134 H                     0.218955       0.000004
  --------------------------------------------------------
  Sum of atomic charges =    -0.000000

                    Cartesian Multipole Moments
 -----------------------------------------------------------------
    Charge (ESU x 10^10)
                -0.0000
    Dipole Moment (Debye)
         X       1.0316      Y       0.6449      Z     -28.7864
       Tot      28.8121
    Quadrupole Moments (Debye-Ang)
        XX    -436.5078     XY       8.8677     YY    -437.5979
        XZ       1.6448     YZ       5.6306     ZZ    -648.4546

 Total job time:  68642.93s(wall), 212889.05s(cpu)
        *  Thank you very much for using Q-Chem.  Have a nice day.  *
