 Q-Chem 5.0, Q-Chem, Inc., Pleasanton, CA (2017)
 Q-Chem 5.0.1 for Intel X86 EM64T Linux

User input:
--------------------------------------------------------------
$rem
threads 8
jobtype	sp
method PBEh-3c
basis def2-mSVP
mem_static	1024
mem_total	8000
sym_ignore	true
unrestricted true
scf_convergence	9
solvent_method	pcm
$end

$molecule
read incoords.mol
$end

$solvent
dielectric	2.03
$end

$pcm
theory iefpcm
$end
--------------------------------------------------------------

   17   -3006.3332339850      5.69E-10 Convergence criterion met
 Total energy in the final basis set = -3006.33323398
 Total job time:  3814.38s(wall), 11889.81s(cpu)
        *  Thank you very much for using Q-Chem.  Have a nice day.  *
 Q-Chem 5.0, Q-Chem, Inc., Pleasanton, CA (2017)
 Q-Chem 5.0.1 for Intel X86 EM64T Linux

User input:
--------------------------------------------------------------

$rem
threads 8
jobtype opt
method PBEh-3c
basis def2-mSVP
scf_guess	read
mem_static      1024
mem_total       8000
sym_ignore      true
unrestricted true
mom_start       1
scf_algorithm	diis
scf_max_cycles	250
solvent_method	pcm
geom_opt_tol_energy 25
geom_opt_tol_gradient 75
$end

$solvent
dielectric      2.03
$end
$pcm
theory iefpcm
$end

$occupied
1 2 3 4 5 6 7 8 9 10 11 12 13 14 15 16 17 18 19 20 21 22 23 24 25 26 27 28 29 30 31 32 33 34 35 36 37 38 39 40 41 42 43 44 45 46 47 48 49 50 51 52 53 54 55 56 57 58 59 60 61 62 63 64 65 66 67 68 69 70 71 72 73 74 75 76 77 78 79 80 81 82 83 84 85 86 87 88 89 90 91 92 93 94 95 96 97 98 99 100 101 102 103 104 105 106 107 108 109 110 111 112 113 114 115 116 117 118 119 120 121 122 123 124 125 126 127 128 129 130 131 132 133 134 135 136 137 138 139 140 141 142 143 144 145 146 147 148 149 150 151 152 153 154 155 156 157 158 159 160 161 162 163 164 165 166 167 168 169 170 171 172 173 174 175 176 177 178 179 180 181 182 183 184 185 186 187 188 189 190 191 192 193 194 195 196 197 198 199 200 201 202 203 204 205 206 207 208 209 210 211 212 213 214 215 216 217 218 219 220 221 222 223 224 225 226 227 228 229 230 231 232 233 234 235 236 237 238 239 240 241 242 243 244 245 246 247 248 249 250 251 252 253 254 255 256 257 258 259 260 261  263
1 2 3 4 5 6 7 8 9 10 11 12 13 14 15 16 17 18 19 20 21 22 23 24 25 26 27 28 29 30 31 32 33 34 35 36 37 38 39 40 41 42 43 44 45 46 47 48 49 50 51 52 53 54 55 56 57 58 59 60 61 62 63 64 65 66 67 68 69 70 71 72 73 74 75 76 77 78 79 80 81 82 83 84 85 86 87 88 89 90 91 92 93 94 95 96 97 98 99 100 101 102 103 104 105 106 107 108 109 110 111 112 113 114 115 116 117 118 119 120 121 122 123 124 125 126 127 128 129 130 131 132 133 134 135 136 137 138 139 140 141 142 143 144 145 146 147 148 149 150 151 152 153 154 155 156 157 158 159 160 161 162 163 164 165 166 167 168 169 170 171 172 173 174 175 176 177 178 179 180 181 182 183 184 185 186 187 188 189 190 191 192 193 194 195 196 197 198 199 200 201 202 203 204 205 206 207 208 209 210 211 212 213 214 215 216 217 218 219 220 221 222 223 224 225 226 227 228 229 230 231 232 233 234 235 236 237 238 239 240 241 242 243 244 245 246 247 248 249 250 251 252 253 254 255 256 257 258 259 260 261 262
$end

$molecule
read
$end

--------------------------------------------------------------

   20   -3006.2643121145      9.47E-09 Convergence criterion met
 Total energy in the final basis set = -3006.26431211
   17   -3006.2640518341      7.55E-09 Convergence criterion met
 Total energy in the final basis set = -3006.26405183
   17   -3006.2633341397      8.05E-09 Convergence criterion met
 Total energy in the final basis set = -3006.26333414
   17   -3006.2641328302      6.46E-09 Convergence criterion met
 Total energy in the final basis set = -3006.26413283
   17   -3006.2636172883      9.25E-09 Convergence criterion met
 Total energy in the final basis set = -3006.26361729
   17   -3006.2641847924      7.17E-09 Convergence criterion met
 Total energy in the final basis set = -3006.26418479
   16   -3006.2641153030      9.98E-09 Convergence criterion met
   16   -3006.2634892947      9.57E-09 Convergence criterion met
 Total energy in the final basis set = -3006.26348929
   16   -3006.2634866268      9.65E-09 Convergence criterion met
 Total energy in the final basis set = -3006.26348663
   16   -3006.2634796177      9.62E-09 Convergence criterion met
 Total energy in the final basis set = -3006.26347962
   16   -3006.2634626541      9.57E-09 Convergence criterion met
 Total energy in the final basis set = -3006.26346265
   16   -3006.2634544373      9.60E-09 Convergence criterion met
 Total energy in the final basis set = -3006.26345444
   16   -3006.2634450808      9.59E-09 Convergence criterion met
 Total energy in the final basis set = -3006.26344508

             Standard Nuclear Orientation (Angstroms)
    I     Atom           X                Y                Z
 ----------------------------------------------------------------
    1      N       0.1969820647    -0.2462124040     0.0528066575
    2      C       0.1890488501    -0.0237150059     1.3989122737
    3      C       1.3973539519     0.0283276058     2.1272447681
    4      H       2.3395583063    -0.1149478272     1.6133520881
    5      C       1.3771326655     0.1564238727     3.4941202642
    6      C       1.3080899392     0.0933312994    -0.7513350235
    7      C       1.9041736416     1.3456104461    -0.6242140050
    8      H       1.5159685478     2.0648899837     0.0854346011
    9      C       2.9801370908     1.6691706867    -1.4331447567
   10      H       3.4409078782     2.6432068483    -1.3420173980
   11      C       3.4537685462     0.7573979884    -2.3664854035
   12      H       4.2929922031     1.0165290236    -2.9976881328
   13      C       2.8472496831    -0.4856871585    -2.4944530924
   14      H       3.2166611448    -1.1995119880    -3.2180964922
   15      C       1.7725890375    -0.8225324335    -1.6920773925
   16      H       1.3048349239    -1.7941646734    -1.7833640082
   17      C      -0.9058992791    -0.8680686836    -0.5812268328
   18      C      -1.4246542636    -0.3234372544    -1.7527715788
   19      H      -1.0001309827     0.5807931036    -2.1695943561
   20      C      -2.5006211612    -0.9382939718    -2.3684774949
   21      H      -2.9143672271    -0.5098572558    -3.2712744171
   22      C      -3.0532609728    -2.0921893248    -1.8278916502
   23      H      -3.8945655462    -2.5680378360    -2.3135548782
   24      C      -2.5229837792    -2.6376144192    -0.6670951108
   25      H      -2.9413944796    -3.5433978782    -0.2496676416
   26      C      -1.4470497637    -2.0325392802    -0.0408113526
   27      H      -1.0219879775    -2.4695392657     0.8539537798
   28      C      -1.0414657009     0.1225705431     2.0773042874
   29      H      -1.9635385590     0.1444872355     1.5107214423
   30      C      -1.0703786845     0.2581615821     3.4407199717
   31      C       0.1397938595     0.2333740959     4.1884249006
   32      C      -2.3804824588     0.3969082069     4.1526579119
   33      H      -3.2181748324     0.4011204748     3.4561784197
   34      H      -2.4156456918     1.3150022572     4.7397313641
   35      H      -2.5237721328    -0.4256471868     4.8558124664
   36      C       2.6747241268     0.1882233430     4.2484764553
   37      H       2.5699177095    -0.3597186077     5.1865670039
   38      H       3.4470591528    -0.3230875174     3.6692412602
   39      C       3.1158383371     1.6218044496     4.5371913346
   40      H       2.3874709863     2.1398338916     5.1599968213
   41      H       4.0676433093     1.6290139647     5.0676355611
   42      H       3.2393782135     2.1888430332     3.6133894729
   43      B       0.0724473602     0.1107053279     5.7613103010
   44      C      -0.0716873069     1.3226550999     6.6721932899
   45      C      -0.1652710571     2.6276454651     6.1433518144
   46      H      -0.1095056539     2.7758038275     5.0680657084
   47      C      -0.3415581159     3.7058444138     6.9708582994
   48      C      -0.4185560466     3.5220174330     8.3826835252
   49      C      -0.3120719372     2.2583422214     8.9171359148
   50      H      -0.3695357227     2.1163727057     9.9912811218
   51      C      -0.1487806137     1.1314655478     8.0853365487
   52      C      -0.5094351008     5.1262645279     6.6846238834
   53      C      -0.5455063281     5.8867076378     5.5435914880
   54      H      -0.4185421791     5.4487325628     4.5607685091
   55      C      -0.6888115044     5.7614269285     7.9284675063
   56      C      -0.9108602088     7.1257768502     8.0800527324
   57      C      -0.6404898819     4.8316006789     8.9891242129
   58      C      -0.8204112001     5.2980749313    10.2661558969
   59      H      -0.8008989717     4.6358294459    11.1227674408
   60      C      -0.7622749859     7.2773894126     5.6680866578
   61      H      -0.7924576634     7.8793894712     4.7685451527
   62      C      -0.9411990734     7.8903063416     6.8876180190
   63      H      -1.1094353947     8.9593273016     6.9337078097
   64      C      -1.0437758819     6.6822701570    10.4530427981
   65      H      -1.1865143795     7.0480679936    11.4618782144
   66      C      -1.0909153824     7.5787318569     9.4096237178
   67      H      -1.2699013819     8.6286738933     9.6059174339
   68      C       0.0932703529    -1.3057728991     6.3342130329
   69      C       0.1626972858    -2.4319223809     5.4877262137
   70      H       0.2056101976    -2.3024340541     4.4104083002
   71      C       0.1712937410    -3.6972617021     6.0090031139
   72      C       0.1214617389    -3.9019993470     7.4203209001
   73      C       0.0558441954    -2.8159334199     8.2611805381
   74      H       0.0130644274    -2.9602086653     9.3361651439
   75      C       0.0307318616    -1.5026604515     7.7463746649
   76      C       0.2186188263    -5.0031709033     5.3579173624
   77      C       0.2694624849    -5.4439212574     4.0580359376
   78      H       0.2898098325    -4.7544815666     3.2223189362
   79      C       0.1961715963    -5.9595011159     6.3910431100
   80      C       0.2215861944    -7.3370229753     6.1763471024
   81      C       0.1390974755    -5.3462263909     7.6606212867
   82      C       0.1078301476    -6.1626533946     8.7648948486
   83      H       0.0629456901    -5.7619984136     9.7697076769
   84      C       0.2963251274    -6.8358811617     3.8118162937
   85      H       0.3362533692    -7.1811772530     2.7860835072
   86      C       0.2737497009    -7.7643578252     4.8272469752
   87      H       0.2953891591    -8.8223439823     4.5943487052
   88      C       0.1342741662    -7.5652532337     8.5778865027
   89      H       0.1093121451    -8.2006258926     9.4542408132
   90      C       0.1893147102    -8.1509229045     7.3342162109
   91      H       0.2067991469    -9.2302198232     7.2414809083
   92      B      -0.0825388116    -0.2896834304     8.6828443719
   93      C      -0.1181697531    -0.4778795126    10.2509511063
   94      C      -1.3224701901    -0.4608953710    10.9652428308
   95      C      -1.3130505764    -0.5432523008    12.3534834812
   96      H      -2.2482256959    -0.5204084733    12.9031957300
   97      C      -0.1171570731    -0.6275247846    13.0488063920
   98      C       1.0809554211    -0.6689258980    12.3469320342
   99      H       2.0161974621    -0.7389198211    12.8909905303
  100      C       1.0863546611    -0.6046129750    10.9597605523
  101      N      -0.1193703039    -0.6508878940    14.4641047820
  102      C      -0.7560700375     0.3883123246    15.1513005087
  103      C      -1.4300005583     0.1572850341    16.3523053500
  104      H      -1.4611702561    -0.8406225960    16.7705519704
  105      C      -2.0706315751     1.1957121887    17.0078288132
  106      H      -2.5887515658     0.9922740724    17.9364253920
  107      C      -2.0742829716     2.4773960431    16.4758350400
  108      H      -2.5849461478     3.2832296717    16.9858485696
  109      C      -1.4162153910     2.7070095603    15.2758443400
  110      H      -1.4059123028     3.6997298354    14.8437976486
  111      C      -0.7564588777     1.6808270710    14.6214220505
  112      H      -0.2431471711     1.8800865690    13.6896906747
  113      C       0.5202308266    -1.7062188215    15.1221551670
  114      C       1.2205132479    -1.5001075703    16.3122109911
  115      H       1.2725262779    -0.5082314245    16.7422929215
  116      C       1.8578710391    -2.5564134987    16.9417496626
  117      H       2.3965598200    -2.3736981809    17.8629161468
  118      C       1.8314526544    -3.8307685300    16.3928777969
  119      H       2.3388405224    -4.6508134070    16.8832278964
  120      C       1.1480581078    -4.0354801321    15.2025057755
  121      H       1.1146490109    -5.0225037410    14.7588327779
  122      C       0.4912728818    -2.9907709098    14.5744161734
  123      H      -0.0448874696    -3.1695655311    13.6512217404
  124      C       2.3927609351    -0.6408653635    10.2160520598
  125      H       3.2439318377    -0.6610369333    10.8967146938
  126      H       2.4583826376    -1.5218620346     9.5745198783
  127      H       2.5050599311     0.2284013451     9.5647385139
  128      C      -2.6482977703    -0.4027880701    10.2490880741
  129      H      -2.5589792433     0.1981437001     9.3407923759
  130      H      -3.3833974801     0.1046178670    10.8795181197
  131      C      -3.1728578582    -1.7893372731     9.8810011191
  132      H      -2.4867160856    -2.3021357921     9.2072008627
  133      H      -3.2992141894    -2.4120551087    10.7679127948
  134      H      -4.1397070786    -1.7201614308     9.3800500518
 ----------------------------------------------------------------

   16   -3006.2634381996      9.60E-09 Convergence criterion met
 Total energy in the final basis set = -3006.26343820
 Final energy is   -3006.26343819958
 **  OPTIMIZATION CONVERGED  **

                    Orbital Energies (a.u.)
 --------------------------------------------------------------

 Alpha MOs
 -- Occupied --
-14.763 -14.656 -10.549 -10.539 -10.538 -10.492 -10.491 -10.491
-10.491 -10.488 -10.486 -10.486 -10.485 -10.485 -10.485 -10.485
-10.484 -10.483 -10.482 -10.480 -10.480 -10.465 -10.464 -10.449
-10.448 -10.447 -10.446 -10.445 -10.445 -10.445 -10.444 -10.444
-10.444 -10.443 -10.443 -10.443 -10.443 -10.442 -10.442 -10.442
-10.441 -10.441 -10.437 -10.437 -10.437 -10.436 -10.436 -10.434
-10.434 -10.434 -10.433 -10.432 -10.432 -10.432 -10.432 -10.431
-10.431 -10.431 -10.431 -10.431 -10.430 -10.429 -10.429 -10.427
-10.425 -10.425 -10.419 -10.418 -10.414 -10.407 -10.406 -10.405
-10.403 -10.401 -10.400 -10.399  -6.899  -6.894  -1.148  -1.067
 -1.004  -1.002  -0.995  -0.995  -0.979  -0.949  -0.944  -0.938
 -0.936  -0.925  -0.916  -0.915  -0.913  -0.902  -0.894  -0.884
 -0.880  -0.879  -0.876  -0.863  -0.845  -0.844  -0.840  -0.833
 -0.832  -0.830  -0.829  -0.826  -0.825  -0.822  -0.799  -0.798
 -0.794  -0.791  -0.789  -0.780  -0.776  -0.752  -0.750  -0.746
 -0.727  -0.723  -0.716  -0.713  -0.710  -0.708  -0.700  -0.696
 -0.693  -0.686  -0.679  -0.670  -0.668  -0.666  -0.663  -0.660
 -0.653  -0.644  -0.643  -0.629  -0.627  -0.624  -0.623  -0.618
 -0.603  -0.595  -0.592  -0.585  -0.579  -0.576  -0.575  -0.572
 -0.569  -0.564  -0.562  -0.558  -0.555  -0.554  -0.549  -0.548
 -0.537  -0.537  -0.533  -0.530  -0.526  -0.523  -0.523  -0.521
 -0.514  -0.509  -0.508  -0.507  -0.502  -0.500  -0.497  -0.492
 -0.489  -0.486  -0.485  -0.485  -0.482  -0.478  -0.475  -0.474
 -0.471  -0.471  -0.470  -0.469  -0.469  -0.468  -0.466  -0.465
 -0.463  -0.460  -0.460  -0.458  -0.457  -0.454  -0.451  -0.450
 -0.447  -0.446  -0.443  -0.441  -0.438  -0.436  -0.435  -0.429
 -0.426  -0.425  -0.424  -0.419  -0.416  -0.414  -0.411  -0.410
 -0.407  -0.404  -0.402  -0.400  -0.398  -0.394  -0.391  -0.389
 -0.384  -0.382  -0.380  -0.380  -0.379  -0.378  -0.377  -0.374
 -0.371  -0.368  -0.359  -0.352  -0.350  -0.346  -0.344  -0.342
 -0.336  -0.332  -0.328  -0.322  -0.314  -0.312  -0.303  -0.301
 -0.296  -0.291  -0.288  -0.282  -0.282  -0.280  -0.266  -0.264
 -0.257  -0.248  -0.238  -0.234  -0.208  -0.145

 Beta MOs
 -- Occupied --
-14.772 -14.656 -10.549 -10.537 -10.537 -10.494 -10.493 -10.492
-10.492 -10.486 -10.486 -10.486 -10.485 -10.485 -10.485 -10.485
-10.484 -10.484 -10.484 -10.480 -10.480 -10.471 -10.464 -10.450
-10.448 -10.447 -10.447 -10.445 -10.445 -10.445 -10.444 -10.444
-10.443 -10.443 -10.443 -10.443 -10.442 -10.442 -10.442 -10.441
-10.441 -10.440 -10.437 -10.437 -10.437 -10.436 -10.436 -10.434
-10.433 -10.433 -10.432 -10.432 -10.432 -10.432 -10.431 -10.431
-10.431 -10.431 -10.431 -10.431 -10.430 -10.429 -10.429 -10.428
-10.426 -10.425 -10.419 -10.418 -10.414 -10.407 -10.406 -10.405
-10.403 -10.400 -10.400 -10.399  -6.895  -6.892  -1.163  -1.067
 -1.006  -1.005  -0.995  -0.994  -0.984  -0.949  -0.944  -0.937
 -0.934  -0.925  -0.915  -0.914  -0.914  -0.906  -0.895  -0.883
 -0.881  -0.880  -0.875  -0.863  -0.849  -0.845  -0.840  -0.833
 -0.831  -0.829  -0.828  -0.828  -0.825  -0.825  -0.798  -0.797
 -0.795  -0.791  -0.790  -0.778  -0.776  -0.757  -0.752  -0.746
 -0.729  -0.725  -0.717  -0.712  -0.709  -0.707  -0.699  -0.696
 -0.693  -0.686  -0.681  -0.669  -0.668  -0.667  -0.662  -0.659
 -0.650  -0.646  -0.641  -0.630  -0.627  -0.624  -0.623  -0.617
 -0.605  -0.595  -0.594  -0.590  -0.585  -0.575  -0.574  -0.572
 -0.568  -0.564  -0.564  -0.558  -0.555  -0.554  -0.549  -0.548
 -0.538  -0.536  -0.535  -0.529  -0.527  -0.523  -0.523  -0.521
 -0.515  -0.509  -0.508  -0.507  -0.504  -0.500  -0.498  -0.495
 -0.490  -0.487  -0.485  -0.485  -0.483  -0.481  -0.477  -0.475
 -0.471  -0.471  -0.470  -0.470  -0.469  -0.468  -0.465  -0.464
 -0.462  -0.460  -0.460  -0.460  -0.459  -0.457  -0.453  -0.450
 -0.448  -0.446  -0.444  -0.441  -0.440  -0.438  -0.434  -0.429
 -0.429  -0.425  -0.424  -0.419  -0.416  -0.413  -0.411  -0.409
 -0.405  -0.403  -0.402  -0.400  -0.400  -0.396  -0.393  -0.391
 -0.389  -0.383  -0.382  -0.380  -0.378  -0.377  -0.377  -0.373
 -0.370  -0.369  -0.358  -0.353  -0.349  -0.346  -0.344  -0.341
 -0.340  -0.338  -0.330  -0.327  -0.318  -0.314  -0.313  -0.296
 -0.292  -0.291  -0.288  -0.283  -0.279  -0.278  -0.277  -0.264
 -0.257  -0.254  -0.241  -0.235  -0.227  -0.208

          Ground-State Mulliken Net Atomic Charges

     Atom                 Charge (a.u.)    Spin (a.u.)
  --------------------------------------------------------
      1 N                    -0.587269      -0.331949
      2 C                     0.342607      -0.046736
      3 C                    -0.355282      -0.151881
      4 H                     0.278000       0.008766
      5 C                     0.078600       0.115907
      6 C                     0.258592       0.068030
      7 C                    -0.258666      -0.087745
      8 H                     0.279626       0.004544
      9 C                    -0.228264       0.060613
     10 H                     0.260021      -0.003355
     11 C                    -0.222886      -0.095566
     12 H                     0.257818       0.005273
     13 C                    -0.226551       0.056043
     14 H                     0.258502      -0.002906
     15 C                    -0.257076      -0.083644
     16 H                     0.273864       0.004397
     17 C                     0.238613       0.064275
     18 C                    -0.251706      -0.077636
     19 H                     0.271417       0.004120
     20 C                    -0.227827       0.051666
     21 H                     0.257951      -0.002691
     22 C                    -0.222272      -0.088807
     23 H                     0.258192       0.004900
     24 C                    -0.228163       0.056583
     25 H                     0.262827      -0.003206
     26 C                    -0.250323      -0.082804
     27 H                     0.279570       0.004321
     28 C                    -0.360190      -0.142069
     29 H                     0.280398       0.008230
     30 C                     0.056344       0.112024
     31 C                    -0.135376      -0.422941
     32 C                    -0.754131      -0.006680
     33 H                     0.238700       0.002628
     34 H                     0.270443       0.002405
     35 H                     0.277297      -0.000065
     36 C                    -0.541486      -0.001686
     37 H                     0.287846      -0.001024
     38 H                     0.234134       0.001376
     39 C                    -0.657347       0.000838
     40 H                     0.262086      -0.000471
     41 H                     0.236135      -0.000069
     42 H                     0.206430      -0.000034
     43 B                     0.518881       0.380611
     44 C                    -0.117807      -0.023713
     45 C                    -0.417929      -0.001303
     46 H                     0.196875      -0.000613
     47 C                     0.073237       0.023323
     48 C                     0.090388       0.102404
     49 C                    -0.400256      -0.066213
     50 H                     0.221963       0.002727
     51 C                    -0.149501       0.072931
     52 C                     0.187135      -0.039420
     53 C                    -0.398116       0.062026
     54 H                     0.211370      -0.003690
     55 C                    -0.075286       0.022465
     56 C                     0.242331      -0.036234
     57 C                     0.187547      -0.058504
     58 C                    -0.399619       0.085867
     59 H                     0.223801      -0.005063
     60 C                    -0.216175      -0.041993
     61 H                     0.225724       0.002097
     62 C                    -0.352233       0.058515
     63 H                     0.223767      -0.003431
     64 C                    -0.212994      -0.052930
     65 H                     0.229031       0.002572
     66 C                    -0.356074       0.078042
     67 H                     0.223597      -0.004651
     68 C                    -0.128977      -0.011984
     69 C                    -0.391012      -0.010013
     70 H                     0.185609       0.001226
     71 C                     0.074066       0.030283
     72 C                     0.084416       0.102088
     73 C                    -0.414637      -0.066729
     74 H                     0.227647       0.002566
     75 C                    -0.141223       0.072736
     76 C                     0.191437      -0.042059
     77 C                    -0.399075       0.066966
     78 H                     0.202836      -0.004050
     79 C                    -0.077106       0.023644
     80 C                     0.238786      -0.038225
     81 C                     0.191124      -0.059447
     82 C                    -0.404264       0.088333
     83 H                     0.225339      -0.005209
     84 C                    -0.215440      -0.044840
     85 H                     0.223183       0.002240
     86 C                    -0.351505       0.062933
     87 H                     0.223863      -0.003695
     88 C                    -0.212128      -0.054426
     89 H                     0.230130       0.002643
     90 C                    -0.355081       0.080111
     91 H                     0.223793      -0.004769
     92 B                     0.570834       0.266766
     93 C                    -0.185583      -0.025061
     94 C                     0.057285       0.004153
     95 C                    -0.340445      -0.001478
     96 H                     0.226884       0.000362
     97 C                     0.257132       0.001581
     98 C                    -0.345976      -0.001380
     99 H                     0.228778       0.000368
    100 C                     0.036458       0.003986
    101 N                    -0.673392      -0.000094
    102 C                     0.316114      -0.000031
    103 C                    -0.298703       0.000073
    104 H                     0.252811      -0.000004
    105 C                    -0.225992      -0.000053
    106 H                     0.227758       0.000003
    107 C                    -0.256261       0.000080
    108 H                     0.224230      -0.000005
    109 C                    -0.222997      -0.000051
    110 H                     0.226401       0.000003
    111 C                    -0.295240       0.000068
    112 H                     0.254682      -0.000005
    113 C                     0.315585      -0.000038
    114 C                    -0.297838       0.000078
    115 H                     0.252999      -0.000004
    116 C                    -0.226257      -0.000053
    117 H                     0.228076       0.000003
    118 C                    -0.255562       0.000081
    119 H                     0.224539      -0.000005
    120 C                    -0.223866      -0.000046
    121 H                     0.227914       0.000003
    122 C                    -0.294439       0.000061
    123 H                     0.252687      -0.000007
    124 C                    -0.759790       0.000601
    125 H                     0.232313       0.001504
    126 H                     0.245847      -0.000417
    127 H                     0.248487      -0.001013
    128 C                    -0.540536       0.002914
    129 H                     0.256530      -0.001887
    130 H                     0.225677       0.000355
    131 C                    -0.652466      -0.000235
    132 H                     0.247400      -0.000226
    133 H                     0.211612      -0.000072
    134 H                     0.213676       0.000003
  --------------------------------------------------------
  Sum of atomic charges =    -0.000000

                    Cartesian Multipole Moments
 -----------------------------------------------------------------
    Charge (ESU x 10^10)
                -0.0000
    Dipole Moment (Debye)
         X       0.8132      Y      -0.1787      Z     -25.8770
       Tot      25.8904
    Quadrupole Moments (Debye-Ang)
        XX    -435.6791     XY       6.7623     YY    -444.7556
        XZ      -0.6587     YZ       4.4161     ZZ    -636.1111

 Total job time:  96584.81s(wall), 299803.60s(cpu)
        *  Thank you very much for using Q-Chem.  Have a nice day.  *
