 Q-Chem 5.1, Q-Chem, Inc., Pleasanton, CA (2018)
 Q-Chem 5.1.1 for Intel X86 EM64T Linux

User input:
--------------------------------------------------------------
$rem
threads 8
jobtype	sp
method PBEh-3c
basis def2-mSVP
mem_static	1024
mem_total	8000
sym_ignore	true
unrestricted true
scf_convergence	9
solvent_method	pcm
$end

$molecule
read moms1_chx_opt.mol
$end

$solvent
dielectric	2.38
$end

$pcm
theory iefpcm
$end
--------------------------------------------------------------

   16   -3006.3339140559      6.05e-10  Convergence criterion met
 Total energy in the final basis set =    -3006.3339140559
 Total job time:  4005.52s(wall), 29806.18s(cpu)
        *  Thank you very much for using Q-Chem.  Have a nice day.  *
 Q-Chem 5.1, Q-Chem, Inc., Pleasanton, CA (2018)
 Q-Chem 5.1.1 for Intel X86 EM64T Linux

User input:
--------------------------------------------------------------

$rem
threads 8
jobtype opt
method PBEh-3c
basis def2-mSVP
scf_guess	read
mem_static      1024
mem_total       8000
sym_ignore      true
unrestricted true
mom_start       1
scf_algorithm	diis
scf_max_cycles	250
solvent_method	pcm
geom_opt_tol_energy 25
geom_opt_tol_gradient 75
$end

$solvent
dielectric      2.38
$end

$pcm
theory iefpcm
$end

$occupied
1 2 3 4 5 6 7 8 9 10 11 12 13 14 15 16 17 18 19 20 21 22 23 24 25 26 27 28 29 30 31 32 33 34 35 36 37 38 39 40 41 42 43 44 45 46 47 48 49 50 51 52 53 54 55 56 57 58 59 60 61 62 63 64 65 66 67 68 69 70 71 72 73 74 75 76 77 78 79 80 81 82 83 84 85 86 87 88 89 90 91 92 93 94 95 96 97 98 99 100 101 102 103 104 105 106 107 108 109 110 111 112 113 114 115 116 117 118 119 120 121 122 123 124 125 126 127 128 129 130 131 132 133 134 135 136 137 138 139 140 141 142 143 144 145 146 147 148 149 150 151 152 153 154 155 156 157 158 159 160 161 162 163 164 165 166 167 168 169 170 171 172 173 174 175 176 177 178 179 180 181 182 183 184 185 186 187 188 189 190 191 192 193 194 195 196 197 198 199 200 201 202 203 204 205 206 207 208 209 210 211 212 213 214 215 216 217 218 219 220 221 222 223 224 225 226 227 228 229 230 231 232 233 234 235 236 237 238 239 240 241 242 243 244 245 246 247 248 249 250 251 252 253 254 255 256 257 258 259 260 261  263
1 2 3 4 5 6 7 8 9 10 11 12 13 14 15 16 17 18 19 20 21 22 23 24 25 26 27 28 29 30 31 32 33 34 35 36 37 38 39 40 41 42 43 44 45 46 47 48 49 50 51 52 53 54 55 56 57 58 59 60 61 62 63 64 65 66 67 68 69 70 71 72 73 74 75 76 77 78 79 80 81 82 83 84 85 86 87 88 89 90 91 92 93 94 95 96 97 98 99 100 101 102 103 104 105 106 107 108 109 110 111 112 113 114 115 116 117 118 119 120 121 122 123 124 125 126 127 128 129 130 131 132 133 134 135 136 137 138 139 140 141 142 143 144 145 146 147 148 149 150 151 152 153 154 155 156 157 158 159 160 161 162 163 164 165 166 167 168 169 170 171 172 173 174 175 176 177 178 179 180 181 182 183 184 185 186 187 188 189 190 191 192 193 194 195 196 197 198 199 200 201 202 203 204 205 206 207 208 209 210 211 212 213 214 215 216 217 218 219 220 221 222 223 224 225 226 227 228 229 230 231 232 233 234 235 236 237 238 239 240 241 242 243 244 245 246 247 248 249 250 251 252 253 254 255 256 257 258 259 260 261 262
$end

$molecule
read
$end

--------------------------------------------------------------

   20   -3006.2678083315      9.95E-09 Convergence criterion met
 Total energy in the final basis set = -3006.26780833
   17   -3006.2678317493      8.30E-09 Convergence criterion met
 Total energy in the final basis set = -3006.26783175
   17   -3006.2678384299      8.05E-09 Convergence criterion met
 Total energy in the final basis set = -3006.26783843
   17   -3006.2678378280      7.88E-09 Convergence criterion met
 Total energy in the final basis set = -3006.26783783
   17   -3006.2678494520      7.70E-09 Convergence criterion met
 Total energy in the final basis set = -3006.26784945
   17   -3006.2678429925      7.89E-09 Convergence criterion met
 Total energy in the final basis set = -3006.26784299
   17   -3006.2678381493      7.89E-09 Convergence criterion met
 Total energy in the final basis set = -3006.26783815

             Standard Nuclear Orientation (Angstroms)
    I     Atom           X                Y                Z
 ----------------------------------------------------------------
    1      N       0.1978840966    -0.2418944751     0.0500803824
    2      C       0.1889562707    -0.0225048360     1.3971467977
    3      C       1.3963748895     0.0271893567     2.1263034496
    4      H       2.3391240260    -0.1156192527     1.6132200600
    5      C       1.3747463953     0.1530922894     3.4938311332
    6      C       1.3082496027     0.1018661779    -0.7525259465
    7      C       1.9046847095     1.3535427536    -0.6190083135
    8      H       1.5165334644     2.0697507956     0.0937573565
    9      C       2.9801653432     1.6809034883    -1.4269893656
   10      H       3.4409172570     2.6545434971    -1.3315469817
   11      C       3.4532979643     0.7735248851    -2.3650766486
   12      H       4.2922526140     1.0357689847    -2.9953869695
   13      C       2.8466452898    -0.4690310693    -2.4990467251
   14      H       3.2158264997    -1.1793910480    -3.2262158519
   15      C       1.7721401098    -0.8096410786    -1.6981361892
   16      H       1.3047126754    -1.7810164801    -1.7937491914
   17      C      -0.9035468322    -0.8642685874    -0.5851941353
   18      C      -1.4215960517    -0.3190889103    -1.7570407593
   19      H      -0.9978654595     0.5860018877    -2.1728138611
   20      C      -2.4967885324    -0.9342648538    -2.3737052767
   21      H      -2.9103271285    -0.5054965641    -3.2764477854
   22      C      -3.0489185595    -2.0890460040    -1.8341185458
   23      H      -3.8894659253    -2.5652551117    -2.3207891564
   24      C      -2.5191615191    -2.6349497750    -0.6731502739
   25      H      -2.9370763707    -3.5415121569    -0.2569034632
   26      C      -1.4443636789    -2.0293990094    -0.0454513120
   27      H      -1.0192032095    -2.4670511546     0.8489377168
   28      C      -1.0417870994     0.1225966963     2.0746611056
   29      H      -1.9635115838     0.1467215583     1.5075785158
   30      C      -1.0715341154     0.2548641991     3.4388170292
   31      C       0.1375723805     0.2292843524     4.1868443879
   32      C      -2.3829282751     0.3920801805     4.1492806783
   33      H      -3.2195149664     0.3968315030     3.4515080378
   34      H      -2.4197248673     1.3097102442     4.7370032711
   35      H      -2.5276585345    -0.4314207333     4.8510403292
   36      C       2.6725219294     0.1854427437     4.2482649050
   37      H       2.5670013771    -0.3572470142     5.1893320005
   38      H       3.4437465735    -0.3304765788     3.6717122985
   39      C       3.1168339606     1.6195817265     4.5289513616
   40      H       2.3888169141     2.1429491804     5.1478332470
   41      H       4.0683697500     1.6281968749     5.0599307308
   42      H       3.2418649401     2.1806685977     3.6017247012
   43      B       0.0696641852     0.1067045541     5.7601622819
   44      C      -0.0724676900     1.3188607790     6.6716784812
   45      C      -0.1657482543     2.6235022130     6.1420812554
   46      H      -0.1109755236     2.7706672360     5.0666801899
   47      C      -0.3407474387     3.7025270957     6.9690549831
   48      C      -0.4166642570     3.5197025398     8.3812635369
   49      C      -0.3105067826     2.2563149454     8.9165110746
   50      H      -0.3673897481     2.1155005759     9.9908689048
   51      C      -0.1484374172     1.1286196648     8.0852436290
   52      C      -0.5082580468     5.1227662751     6.6819870188
   53      C      -0.5450529293     5.8824540866     5.5402848558
   54      H      -0.4191987157     5.4437824052     4.5576275513
   55      C      -0.6862490878     5.7589241198     7.9256483637
   56      C      -0.9075417661     7.1235966239     8.0764616762
   57      C      -0.6374209742     4.8298774764     8.9870558903
   58      C      -0.8158741900     5.2973828522    10.2640813749
   59      H      -0.7957640320     4.6358647348    11.1212763253
   60      C      -0.7611335935     7.2734088932     5.6641062856
   61      H      -0.7918982733     7.8747205376     4.7641202366
   62      C      -0.9386629697     7.8874160772     6.8834466414
   63      H      -1.1063928259     8.9565495684     6.9289695205
   64      C      -1.0384463548     6.6819081978    10.4501058115
   65      H      -1.1800409488     7.0485311497    11.4588160178
   66      C      -1.0861670460     7.5776922571     9.4059265783
   67      H      -1.2645021165     8.6278874694     9.6015405129
   68      C       0.0899980069    -1.3094032335     6.3350915098
   69      C       0.1579121178    -2.4359738525     5.4891434847
   70      H       0.1991247106    -2.3068407288     4.4117868585
   71      C       0.1672460586    -3.7012323170     6.0111805662
   72      C       0.1197813134    -3.9051714149     7.4228526824
   73      C       0.0553596635    -2.8186526730     8.2632334453
   74      H       0.0142349960    -2.9627243903     9.3383220702
   75      C       0.0295241179    -1.5055005913     7.7476412913
   76      C       0.2136435878    -5.0075252231     5.3608121200
   77      C       0.2621707742    -5.4489994196     4.0609449917
   78      H       0.2805165335    -4.7601684847     3.2246973092
   79      C       0.1932047420    -5.9632655092     6.3946607897
   80      C       0.2185388360    -7.3410088980     6.1807384287
   81      C       0.1380836563    -5.3493424360     7.6640683518
   82      C       0.1087830395    -6.1651113699     8.7690360931
   83      H       0.0654417876    -5.7639400468     9.7737412609
   84      C       0.2889215496    -6.8412440328     3.8156353597
   85      H       0.3269283339    -7.1870301560     2.7900020229
   86      C       0.2684302830    -7.7692514795     4.8317104677
   87      H       0.2898553953    -8.8273892278     4.5994480461
   88      C       0.1352149830    -7.5679073214     8.5827630353
   89      H       0.1118219326    -8.2027780736     9.4595371289
   90      C       0.1883571168    -8.1543060639     7.3391929893
   91      H       0.2059052303    -9.2336609189     7.2469808367
   92      B      -0.0823349779    -0.2920991703     8.6836052066
   93      C      -0.1174798431    -0.4792825275    10.2520615522
   94      C      -1.3218152789    -0.4621143300    10.9664494823
   95      C      -1.3125464442    -0.5433585249    12.3548428418
   96      H      -2.2479643709    -0.5206480860    12.9042088494
   97      C      -0.1166836518    -0.6267435466    13.0504218193
   98      C       1.0815280111    -0.6684005057    12.3485880075
   99      H       2.0169383622    -0.7375892293    12.8925241280
  100      C       1.0869901740    -0.6052767381    10.9612518702
  101      N      -0.1190590108    -0.6492236133    14.4657179649
  102      C      -0.7574215411     0.3893547473    15.1524623942
  103      C      -1.4315953761     0.1574497242    16.3532269428
  104      H      -1.4616963891    -0.8403908180    16.7717756583
  105      C      -2.0740325415     1.1950957968    17.0084404092
  106      H      -2.5922967991     0.9909999381    17.9368288891
  107      C      -2.0791964626     2.4768374772    16.4762633763
  108      H      -2.5912543574     3.2820090503    16.9859735214
  109      C      -1.4207630976     2.7073464267    15.2765152895
  110      H      -1.4115394733     3.7000477957    14.8443663709
  111      C      -0.7591886401     1.6818910501    14.6224994581
  112      H      -0.2456234892     1.8821746236    13.6910911530
  113      C       0.5219059077    -1.7033294980    15.1246569366
  114      C       1.2231759962    -1.4949314024    16.3137644143
  115      H       1.2750249517    -0.5024637221    16.7425661968
  116      C       1.8619434456    -2.5499374346    16.9443084782
  117      H       2.4013769062    -2.3654995412    17.8647099389
  118      C       1.8358524255    -3.8252021080    16.3972304397
  119      H       2.3443103698    -4.6441930159    16.8882836083
  120      C       1.1513298042    -4.0322210393    15.2077696074
  121      H       1.1180492540    -5.0199419251    14.7656068106
  122      C       0.4931311595    -2.9887497272    14.5788175460
  123      H      -0.0439739080    -3.1696114777    13.6565314109
  124      C       2.3936519454    -0.6424646469    10.2179685778
  125      H       3.2446255912    -0.6618171144    10.8989014785
  126      H       2.4593842645    -1.5243489653     9.5776404793
  127      H       2.5062870145     0.2258196403     9.5653999651
  128      C      -2.6478459699    -0.4055804143    10.2504878853
  129      H      -2.5584101254     0.1916901250     9.3398212109
  130      H      -3.3824943880     0.1044927455    10.8792769045
  131      C      -3.1733335011    -1.7932630111     9.8878970441
  132      H      -2.4870374482    -2.3093401450     9.2167040269
  133      H      -3.3006381820    -2.4121496727    10.7773709245
  134      H      -4.1398116093    -1.7254129355     9.3860680483
 ----------------------------------------------------------------

   17   -3006.2678475923      7.85E-09 Convergence criterion met
 Total energy in the final basis set = -3006.26784759
 Final energy is   -3006.26784759226
 **  OPTIMIZATION CONVERGED  **

                    Orbital Energies (a.u.)
 --------------------------------------------------------------

 Alpha MOs
 -- Occupied --
-14.761 -14.658 -10.547 -10.537 -10.536 -10.490 -10.489 -10.489
-10.489 -10.486 -10.484 -10.483 -10.483 -10.483 -10.482 -10.482
-10.482 -10.482 -10.481 -10.481 -10.480 -10.465 -10.464 -10.450
-10.449 -10.449 -10.447 -10.446 -10.446 -10.446 -10.445 -10.445
-10.444 -10.444 -10.444 -10.444 -10.444 -10.443 -10.443 -10.443
-10.443 -10.442 -10.439 -10.438 -10.438 -10.438 -10.436 -10.435
-10.435 -10.435 -10.434 -10.434 -10.434 -10.434 -10.433 -10.433
-10.432 -10.432 -10.432 -10.432 -10.432 -10.431 -10.431 -10.428
-10.427 -10.425 -10.421 -10.420 -10.416 -10.408 -10.407 -10.406
-10.405 -10.402 -10.402 -10.401  -6.900  -6.895  -1.146  -1.068
 -1.002  -1.000  -0.997  -0.996  -0.977  -0.950  -0.946  -0.939
 -0.937  -0.926  -0.917  -0.916  -0.912  -0.900  -0.892  -0.885
 -0.878  -0.877  -0.877  -0.865  -0.847  -0.843  -0.841  -0.835
 -0.833  -0.831  -0.830  -0.827  -0.826  -0.821  -0.800  -0.799
 -0.795  -0.792  -0.788  -0.781  -0.778  -0.751  -0.748  -0.748
 -0.725  -0.721  -0.715  -0.714  -0.711  -0.709  -0.701  -0.698
 -0.695  -0.687  -0.677  -0.671  -0.669  -0.665  -0.664  -0.661
 -0.654  -0.644  -0.642  -0.629  -0.626  -0.625  -0.624  -0.619
 -0.601  -0.596  -0.590  -0.585  -0.577  -0.577  -0.576  -0.573
 -0.570  -0.565  -0.561  -0.558  -0.556  -0.553  -0.549  -0.548
 -0.538  -0.535  -0.531  -0.531  -0.524  -0.523  -0.523  -0.520
 -0.513  -0.510  -0.509  -0.508  -0.503  -0.499  -0.498  -0.491
 -0.489  -0.487  -0.486  -0.486  -0.483  -0.479  -0.474  -0.473
 -0.473  -0.472  -0.471  -0.470  -0.469  -0.468  -0.466  -0.466
 -0.464  -0.462  -0.461  -0.456  -0.456  -0.453  -0.452  -0.449
 -0.447  -0.447  -0.443  -0.441  -0.437  -0.436  -0.434  -0.431
 -0.427  -0.425  -0.424  -0.420  -0.418  -0.416  -0.412  -0.411
 -0.408  -0.406  -0.403  -0.402  -0.398  -0.395  -0.391  -0.391
 -0.385  -0.383  -0.382  -0.381  -0.380  -0.378  -0.377  -0.375
 -0.372  -0.369  -0.360  -0.354  -0.352  -0.347  -0.343  -0.341
 -0.334  -0.330  -0.330  -0.323  -0.315  -0.310  -0.304  -0.300
 -0.297  -0.292  -0.290  -0.284  -0.284  -0.282  -0.267  -0.266
 -0.259  -0.249  -0.239  -0.235  -0.210  -0.146

 Beta MOs
 -- Occupied --
-14.771 -14.658 -10.547 -10.535 -10.535 -10.491 -10.491 -10.490
-10.490 -10.485 -10.484 -10.484 -10.483 -10.482 -10.482 -10.482
-10.482 -10.482 -10.482 -10.481 -10.481 -10.470 -10.465 -10.451
-10.449 -10.448 -10.447 -10.447 -10.446 -10.446 -10.445 -10.445
-10.445 -10.445 -10.444 -10.444 -10.444 -10.443 -10.443 -10.443
-10.442 -10.442 -10.439 -10.438 -10.438 -10.438 -10.435 -10.435
-10.435 -10.434 -10.434 -10.434 -10.434 -10.433 -10.433 -10.432
-10.432 -10.432 -10.432 -10.432 -10.432 -10.431 -10.430 -10.429
-10.428 -10.425 -10.421 -10.420 -10.416 -10.408 -10.407 -10.406
-10.405 -10.401 -10.401 -10.401  -6.896  -6.893  -1.161  -1.068
 -1.004  -1.003  -0.996  -0.996  -0.982  -0.950  -0.945  -0.938
 -0.936  -0.926  -0.916  -0.915  -0.912  -0.904  -0.893  -0.884
 -0.879  -0.878  -0.877  -0.865  -0.848  -0.846  -0.841  -0.834
 -0.832  -0.830  -0.829  -0.827  -0.827  -0.826  -0.799  -0.798
 -0.795  -0.792  -0.791  -0.779  -0.778  -0.755  -0.750  -0.747
 -0.727  -0.723  -0.715  -0.713  -0.710  -0.708  -0.700  -0.698
 -0.695  -0.687  -0.679  -0.670  -0.669  -0.666  -0.663  -0.660
 -0.651  -0.644  -0.643  -0.630  -0.627  -0.625  -0.624  -0.619
 -0.603  -0.596  -0.592  -0.588  -0.585  -0.576  -0.575  -0.573
 -0.569  -0.565  -0.562  -0.558  -0.556  -0.553  -0.549  -0.548
 -0.538  -0.536  -0.532  -0.531  -0.525  -0.524  -0.522  -0.521
 -0.514  -0.510  -0.509  -0.508  -0.503  -0.501  -0.498  -0.495
 -0.489  -0.488  -0.486  -0.486  -0.483  -0.482  -0.479  -0.474
 -0.473  -0.471  -0.471  -0.471  -0.470  -0.468  -0.466  -0.465
 -0.464  -0.461  -0.461  -0.459  -0.457  -0.456  -0.452  -0.450
 -0.448  -0.447  -0.443  -0.441  -0.438  -0.436  -0.434  -0.431
 -0.428  -0.426  -0.424  -0.420  -0.418  -0.414  -0.412  -0.409
 -0.406  -0.404  -0.403  -0.402  -0.400  -0.396  -0.394  -0.391
 -0.390  -0.385  -0.383  -0.381  -0.379  -0.378  -0.378  -0.375
 -0.372  -0.370  -0.359  -0.354  -0.347  -0.346  -0.345  -0.343
 -0.339  -0.337  -0.329  -0.328  -0.316  -0.315  -0.314  -0.297
 -0.293  -0.292  -0.290  -0.284  -0.280  -0.279  -0.275  -0.266
 -0.259  -0.256  -0.242  -0.236  -0.228  -0.210

          Ground-State Mulliken Net Atomic Charges

     Atom                 Charge (a.u.)    Spin (a.u.)
  --------------------------------------------------------
      1 N                    -0.585047      -0.339401
      2 C                     0.342063      -0.038433
      3 C                    -0.354708      -0.156617
      4 H                     0.279985       0.008945
      5 C                     0.076210       0.119876
      6 C                     0.258803       0.069134
      7 C                    -0.259131      -0.090360
      8 H                     0.281782       0.004665
      9 C                    -0.230078       0.062473
     10 H                     0.262171      -0.003440
     11 C                    -0.224182      -0.098946
     12 H                     0.260051       0.005450
     13 C                    -0.228393       0.057870
     14 H                     0.260770      -0.002998
     15 C                    -0.257937      -0.086148
     16 H                     0.276208       0.004516
     17 C                     0.238515       0.065261
     18 C                    -0.252361      -0.079837
     19 H                     0.273907       0.004224
     20 C                    -0.229688       0.053273
     21 H                     0.260257      -0.002774
     22 C                    -0.223542      -0.091782
     23 H                     0.260368       0.005056
     24 C                    -0.229920       0.058234
     25 H                     0.264618      -0.003284
     26 C                    -0.250640      -0.085136
     27 H                     0.281371       0.004428
     28 C                    -0.360030      -0.146755
     29 H                     0.282500       0.008403
     30 C                     0.054971       0.116010
     31 C                    -0.137147      -0.417795
     32 C                    -0.755024      -0.007059
     33 H                     0.240699       0.002593
     34 H                     0.269204       0.002579
     35 H                     0.275922       0.000193
     36 C                    -0.541577      -0.002040
     37 H                     0.286164      -0.000965
     38 H                     0.235803       0.001389
     39 C                    -0.657979       0.001022
     40 H                     0.259897      -0.000458
     41 H                     0.236348       0.000001
     42 H                     0.207840      -0.000039
     43 B                     0.519970       0.376302
     44 C                    -0.118967      -0.019956
     45 C                    -0.418007      -0.004071
     46 H                     0.199984      -0.000460
     47 C                     0.071271       0.026336
     48 C                     0.088400       0.100398
     49 C                    -0.401683      -0.064787
     50 H                     0.222715       0.002644
     51 C                    -0.149543       0.071206
     52 C                     0.185299      -0.040370
     53 C                    -0.399608       0.063404
     54 H                     0.215057      -0.003763
     55 C                    -0.075704       0.022638
     56 C                     0.239480      -0.036547
     57 C                     0.185615      -0.058200
     58 C                    -0.401168       0.085739
     59 H                     0.226435      -0.005047
     60 C                    -0.218819      -0.042711
     61 H                     0.228869       0.002126
     62 C                    -0.353854       0.059732
     63 H                     0.226786      -0.003499
     64 C                    -0.215697      -0.052962
     65 H                     0.231782       0.002570
     66 C                    -0.357603       0.078015
     67 H                     0.226611      -0.004637
     68 C                    -0.130061      -0.008594
     69 C                    -0.392307      -0.012347
     70 H                     0.189390       0.001334
     71 C                     0.072117       0.032982
     72 C                     0.082447       0.099745
     73 C                    -0.415261      -0.064976
     74 H                     0.228171       0.002468
     75 C                    -0.141139       0.070478
     76 C                     0.189396      -0.042831
     77 C                    -0.400646       0.068008
     78 H                     0.207302      -0.004099
     79 C                    -0.077407       0.023712
     80 C                     0.235867      -0.038355
     81 C                     0.189234      -0.058949
     82 C                    -0.405736       0.087826
     83 H                     0.227890      -0.005170
     84 C                    -0.218157      -0.045337
     85 H                     0.226603       0.002257
     86 C                    -0.353054       0.063800
     87 H                     0.226932      -0.003741
     88 C                    -0.214843      -0.054233
     89 H                     0.232852       0.002630
     90 C                    -0.356528       0.079718
     91 H                     0.226849      -0.004733
     92 B                     0.567038       0.268913
     93 C                    -0.184890      -0.025184
     94 C                     0.055788       0.004175
     95 C                    -0.341915      -0.001495
     96 H                     0.228359       0.000364
     97 C                     0.257874       0.001611
     98 C                    -0.347845      -0.001397
     99 H                     0.230385       0.000370
    100 C                     0.035033       0.004009
    101 N                    -0.673208      -0.000084
    102 C                     0.315734      -0.000035
    103 C                    -0.300064       0.000078
    104 H                     0.254146      -0.000004
    105 C                    -0.228378      -0.000057
    106 H                     0.230523       0.000003
    107 C                    -0.258796       0.000086
    108 H                     0.226954      -0.000005
    109 C                    -0.225490      -0.000055
    110 H                     0.229274       0.000003
    111 C                    -0.297104       0.000073
    112 H                     0.255916      -0.000006
    113 C                     0.315069      -0.000042
    114 C                    -0.299070       0.000082
    115 H                     0.254337      -0.000005
    116 C                    -0.228650      -0.000056
    117 H                     0.230858       0.000003
    118 C                    -0.258025       0.000087
    119 H                     0.227295      -0.000005
    120 C                    -0.226329      -0.000049
    121 H                     0.230725       0.000003
    122 C                    -0.296231       0.000066
    123 H                     0.253927      -0.000007
    124 C                    -0.760535       0.000603
    125 H                     0.233630       0.001508
    126 H                     0.245840      -0.000418
    127 H                     0.248706      -0.001018
    128 C                    -0.540621       0.002948
    129 H                     0.256444      -0.001909
    130 H                     0.226593       0.000360
    131 C                    -0.653554      -0.000239
    132 H                     0.246665      -0.000225
    133 H                     0.212127      -0.000073
    134 H                     0.214888       0.000003
  --------------------------------------------------------
  Sum of atomic charges =    -0.000000

                    Cartesian Multipole Moments
 -----------------------------------------------------------------
    Charge (ESU x 10^10)
                -0.0000
    Dipole Moment (Debye)
         X       0.8346      Y      -0.1989      Z     -26.4770
       Tot      26.4909
    Quadrupole Moments (Debye-Ang)
        XX    -435.2201     XY       6.7549     YY    -443.6878
        XZ      -0.6594     YZ       4.3899     ZZ    -638.9799

 Total job time:  28114.91s(wall), 121925.56s(cpu)
        *  Thank you very much for using Q-Chem.  Have a nice day.  *
