 Q-Chem 5.1, Q-Chem, Inc., Pleasanton, CA (2018)
 Q-Chem 5.1.1 for Intel X86 EM64T Linux

User input:
--------------------------------------------------------------
$rem
threads 8
jobtype	sp
method PBEh-3c
basis def2-mSVP
mem_static	1024
mem_total	8000
sym_ignore	true
unrestricted true
scf_convergence	9
solvent_method	pcm
$end

$molecule
read moms1preopt_dcm.mol
$end

$solvent
dielectric	8.93
$end

$pcm
theory iefpcm
$end
--------------------------------------------------------------

   16   -3006.3523256642      5.03e-10  Convergence criterion met
 Total energy in the final basis set =    -3006.3523256642
 Total job time:  4359.93s(wall), 31773.96s(cpu)
        *  Thank you very much for using Q-Chem.  Have a nice day.  *
 Q-Chem 5.1, Q-Chem, Inc., Pleasanton, CA (2018)
 Q-Chem 5.1.1 for Intel X86 EM64T Linux

User input:
--------------------------------------------------------------

$rem
threads 8
jobtype opt
method PBEh-3c
basis def2-mSVP
scf_guess	read
mem_static      1024
mem_total       8000
sym_ignore      true
unrestricted true
mom_start       1
scf_algorithm	diis
scf_max_cycles	250
solvent_method	pcm
geom_opt_tol_energy 25
geom_opt_tol_gradient 75
$end

$solvent
dielectric      8.93
$end
$pcm
theory iefpcm
$end

$occupied
1 2 3 4 5 6 7 8 9 10 11 12 13 14 15 16 17 18 19 20 21 22 23 24 25 26 27 28 29 30 31 32 33 34 35 36 37 38 39 40 41 42 43 44 45 46 47 48 49 50 51 52 53 54 55 56 57 58 59 60 61 62 63 64 65 66 67 68 69 70 71 72 73 74 75 76 77 78 79 80 81 82 83 84 85 86 87 88 89 90 91 92 93 94 95 96 97 98 99 100 101 102 103 104 105 106 107 108 109 110 111 112 113 114 115 116 117 118 119 120 121 122 123 124 125 126 127 128 129 130 131 132 133 134 135 136 137 138 139 140 141 142 143 144 145 146 147 148 149 150 151 152 153 154 155 156 157 158 159 160 161 162 163 164 165 166 167 168 169 170 171 172 173 174 175 176 177 178 179 180 181 182 183 184 185 186 187 188 189 190 191 192 193 194 195 196 197 198 199 200 201 202 203 204 205 206 207 208 209 210 211 212 213 214 215 216 217 218 219 220 221 222 223 224 225 226 227 228 229 230 231 232 233 234 235 236 237 238 239 240 241 242 243 244 245 246 247 248 249 250 251 252 253 254 255 256 257 258 259 260 261  263
1 2 3 4 5 6 7 8 9 10 11 12 13 14 15 16 17 18 19 20 21 22 23 24 25 26 27 28 29 30 31 32 33 34 35 36 37 38 39 40 41 42 43 44 45 46 47 48 49 50 51 52 53 54 55 56 57 58 59 60 61 62 63 64 65 66 67 68 69 70 71 72 73 74 75 76 77 78 79 80 81 82 83 84 85 86 87 88 89 90 91 92 93 94 95 96 97 98 99 100 101 102 103 104 105 106 107 108 109 110 111 112 113 114 115 116 117 118 119 120 121 122 123 124 125 126 127 128 129 130 131 132 133 134 135 136 137 138 139 140 141 142 143 144 145 146 147 148 149 150 151 152 153 154 155 156 157 158 159 160 161 162 163 164 165 166 167 168 169 170 171 172 173 174 175 176 177 178 179 180 181 182 183 184 185 186 187 188 189 190 191 192 193 194 195 196 197 198 199 200 201 202 203 204 205 206 207 208 209 210 211 212 213 214 215 216 217 218 219 220 221 222 223 224 225 226 227 228 229 230 231 232 233 234 235 236 237 238 239 240 241 242 243 244 245 246 247 248 249 250 251 252 253 254 255 256 257 258 259 260 261 262
$end

$molecule
read
$end

--------------------------------------------------------------

   45   -3006.3524918424      8.29E-09 Convergence criterion met
 Total energy in the final basis set = -3006.35249184
   13   -3006.3580097728      5.10E-09 Convergence criterion met
 Total energy in the final basis set = -3006.35800977
   12   -3006.3580024985      9.87E-09 Convergence criterion met
 Total energy in the final basis set = -3006.35800250
   12   -3006.3590629913      9.39E-09 Convergence criterion met
 Total energy in the final basis set = -3006.35906299
   12   -3006.3591586862      9.81E-09 Convergence criterion met
 Total energy in the final basis set = -3006.35915869
   12   -3006.3591683618      9.72E-09 Convergence criterion met
 Total energy in the final basis set = -3006.35916836
   12   -3006.3591222950      9.66E-09 Convergence criterion met
 Total energy in the final basis set = -3006.35912230
   13   -3006.3591340288      4.53E-09 Convergence criterion met
 Total energy in the final basis set = -3006.35913403
   12   -3006.3590714313      9.93E-09 Convergence criterion met
 Total energy in the final basis set = -3006.35907143
   12   -3006.3590519775      9.84E-09 Convergence criterion met
 Total energy in the final basis set = -3006.35905198

                    Orbital Energies (a.u.)
 --------------------------------------------------------------

 Alpha MOs
 -- Occupied --
-14.672 -14.672 -10.494 -10.494 -10.493 -10.493 -10.488 -10.486
-10.468 -10.468 -10.466 -10.466 -10.466 -10.466 -10.466 -10.466
-10.465 -10.465 -10.464 -10.464 -10.463 -10.462 -10.462 -10.462
-10.462 -10.462 -10.459 -10.459 -10.459 -10.459 -10.459 -10.458
-10.457 -10.457 -10.456 -10.456 -10.454 -10.453 -10.450 -10.449
-10.449 -10.449 -10.449 -10.449 -10.449 -10.449 -10.449 -10.449
-10.447 -10.447 -10.447 -10.446 -10.446 -10.446 -10.445 -10.445
-10.444 -10.444 -10.443 -10.442 -10.440 -10.440 -10.439 -10.438
-10.438 -10.438 -10.437 -10.437 -10.437 -10.436 -10.428 -10.428
-10.426 -10.423 -10.422 -10.421  -6.954  -6.952  -1.083  -1.082
 -1.019  -1.019  -0.967  -0.964  -0.962  -0.962  -0.962  -0.962
 -0.942  -0.942  -0.935  -0.934  -0.912  -0.904  -0.886  -0.886
 -0.867  -0.863  -0.857  -0.856  -0.853  -0.852  -0.848  -0.847
 -0.840  -0.840  -0.839  -0.838  -0.825  -0.818  -0.816  -0.815
 -0.814  -0.808  -0.795  -0.795  -0.768  -0.768  -0.737  -0.732
 -0.728  -0.722  -0.715  -0.714  -0.709  -0.709  -0.702  -0.700
 -0.690  -0.683  -0.683  -0.681  -0.681  -0.676  -0.669  -0.668
 -0.651  -0.650  -0.642  -0.641  -0.638  -0.637  -0.608  -0.607
 -0.597  -0.596  -0.591  -0.589  -0.588  -0.588  -0.584  -0.576
 -0.575  -0.563  -0.562  -0.556  -0.555  -0.547  -0.545  -0.544
 -0.543  -0.540  -0.529  -0.525  -0.524  -0.522  -0.518  -0.513
 -0.511  -0.510  -0.504  -0.503  -0.501  -0.499  -0.498  -0.497
 -0.497  -0.495  -0.494  -0.490  -0.489  -0.488  -0.485  -0.484
 -0.484  -0.482  -0.482  -0.482  -0.479  -0.478  -0.478  -0.474
 -0.471  -0.468  -0.467  -0.464  -0.459  -0.454  -0.450  -0.447
 -0.445  -0.443  -0.441  -0.440  -0.435  -0.433  -0.432  -0.429
 -0.429  -0.428  -0.426  -0.423  -0.422  -0.421  -0.419  -0.413
 -0.413  -0.411  -0.407  -0.404  -0.401  -0.401  -0.398  -0.398
 -0.397  -0.397  -0.397  -0.395  -0.394  -0.393  -0.391  -0.389
 -0.383  -0.379  -0.377  -0.371  -0.361  -0.359  -0.356  -0.355
 -0.348  -0.344  -0.323  -0.317  -0.307  -0.305  -0.302  -0.302
 -0.299  -0.298  -0.297  -0.297  -0.289  -0.286  -0.284  -0.279
 -0.278  -0.265  -0.261  -0.259  -0.225  -0.224

 Beta MOs
 -- Occupied --
-14.672 -14.672 -10.494 -10.494 -10.493 -10.493 -10.488 -10.486
-10.468 -10.468 -10.466 -10.466 -10.466 -10.466 -10.466 -10.466
-10.465 -10.465 -10.464 -10.464 -10.463 -10.462 -10.462 -10.462
-10.462 -10.462 -10.459 -10.459 -10.459 -10.459 -10.459 -10.458
-10.457 -10.457 -10.456 -10.456 -10.454 -10.453 -10.450 -10.449
-10.449 -10.449 -10.449 -10.449 -10.449 -10.449 -10.449 -10.449
-10.447 -10.447 -10.447 -10.446 -10.446 -10.446 -10.445 -10.445
-10.444 -10.444 -10.443 -10.442 -10.440 -10.440 -10.439 -10.438
-10.438 -10.438 -10.437 -10.437 -10.437 -10.436 -10.428 -10.428
-10.426 -10.423 -10.422 -10.421  -6.954  -6.952  -1.083  -1.082
 -1.019  -1.019  -0.967  -0.964  -0.962  -0.962  -0.962  -0.962
 -0.942  -0.942  -0.935  -0.934  -0.912  -0.904  -0.886  -0.886
 -0.867  -0.863  -0.857  -0.856  -0.853  -0.852  -0.848  -0.847
 -0.840  -0.840  -0.839  -0.838  -0.825  -0.818  -0.816  -0.815
 -0.814  -0.808  -0.795  -0.795  -0.768  -0.768  -0.737  -0.732
 -0.728  -0.722  -0.715  -0.714  -0.709  -0.709  -0.702  -0.700
 -0.690  -0.683  -0.683  -0.681  -0.681  -0.676  -0.669  -0.668
 -0.651  -0.650  -0.642  -0.641  -0.638  -0.637  -0.608  -0.607
 -0.597  -0.596  -0.591  -0.589  -0.588  -0.588  -0.584  -0.576
 -0.575  -0.563  -0.562  -0.556  -0.555  -0.547  -0.545  -0.544
 -0.543  -0.540  -0.529  -0.525  -0.524  -0.522  -0.518  -0.513
 -0.511  -0.510  -0.504  -0.503  -0.501  -0.499  -0.498  -0.497
 -0.497  -0.495  -0.494  -0.490  -0.489  -0.488  -0.485  -0.484
 -0.484  -0.482  -0.482  -0.482  -0.479  -0.478  -0.478  -0.474
 -0.471  -0.468  -0.467  -0.464  -0.459  -0.454  -0.450  -0.447
 -0.445  -0.443  -0.441  -0.440  -0.435  -0.433  -0.432  -0.429
 -0.429  -0.428  -0.426  -0.423  -0.422  -0.421  -0.419  -0.413
 -0.413  -0.411  -0.407  -0.404  -0.401  -0.401  -0.398  -0.398
 -0.397  -0.397  -0.397  -0.395  -0.394  -0.393  -0.391  -0.389
 -0.383  -0.379  -0.377  -0.371  -0.361  -0.359  -0.356  -0.355
 -0.348  -0.344  -0.323  -0.317  -0.307  -0.305  -0.302  -0.302
 -0.299  -0.298  -0.297  -0.297  -0.289  -0.286  -0.284  -0.279
 -0.278  -0.265  -0.261  -0.259  -0.225  -0.224

          Ground-State Mulliken Net Atomic Charges

     Atom                 Charge (a.u.)    Spin (a.u.)
  --------------------------------------------------------
      1 N                    -0.673138      -0.000000
      2 C                     0.308467       0.000000
      3 C                    -0.370282      -0.000000
      4 H                     0.247546       0.000000
      5 C                     0.063673       0.000000
      6 C                     0.290275       0.000000
      7 C                    -0.293317      -0.000000
      8 H                     0.259070       0.000000
      9 C                    -0.242052       0.000000
     10 H                     0.248784      -0.000000
     11 C                    -0.265251      -0.000000
     12 H                     0.246054       0.000000
     13 C                    -0.241541       0.000000
     14 H                     0.249120      -0.000000
     15 C                    -0.296020      -0.000000
     16 H                     0.260931      -0.000000
     17 C                     0.290727       0.000000
     18 C                    -0.294938       0.000000
     19 H                     0.260826      -0.000000
     20 C                    -0.241197       0.000000
     21 H                     0.248973      -0.000000
     22 C                    -0.266062       0.000000
     23 H                     0.245970       0.000000
     24 C                    -0.241055      -0.000000
     25 H                     0.247960      -0.000000
     26 C                    -0.294744      -0.000000
     27 H                     0.258419       0.000000
     28 C                    -0.376473      -0.000000
     29 H                     0.249945       0.000000
     30 C                     0.053107       0.000000
     31 C                    -0.223883      -0.000000
     32 C                    -0.773251      -0.000000
     33 H                     0.254366      -0.000000
     34 H                     0.248051       0.000000
     35 H                     0.249415       0.000000
     36 C                    -0.551762      -0.000000
     37 H                     0.253941       0.000000
     38 H                     0.244460       0.000000
     39 C                    -0.655022      -0.000000
     40 H                     0.233338       0.000000
     41 H                     0.228525       0.000000
     42 H                     0.224044      -0.000000
     43 B                     0.673931      -0.000000
     44 C                    -0.146886      -0.000000
     45 C                    -0.399187      -0.000000
     46 H                     0.248167       0.000000
     47 C                     0.075460       0.000000
     48 C                     0.091311       0.000000
     49 C                    -0.393162      -0.000000
     50 H                     0.245353       0.000000
     51 C                    -0.159616      -0.000000
     52 C                     0.176844      -0.000000
     53 C                    -0.389580       0.000000
     54 H                     0.252159      -0.000000
     55 C                    -0.065113       0.000000
     56 C                     0.223535      -0.000000
     57 C                     0.177509      -0.000000
     58 C                    -0.393740       0.000000
     59 H                     0.250875      -0.000000
     60 C                    -0.234168      -0.000000
     61 H                     0.258079       0.000000
     62 C                    -0.347390       0.000000
     63 H                     0.254833      -0.000000
     64 C                    -0.232109      -0.000000
     65 H                     0.257161       0.000000
     66 C                    -0.350189       0.000000
     67 H                     0.255118      -0.000000
     68 C                    -0.154789      -0.000000
     69 C                    -0.385066      -0.000000
     70 H                     0.248115       0.000000
     71 C                     0.075433       0.000000
     72 C                     0.087210       0.000000
     73 C                    -0.404431      -0.000000
     74 H                     0.249684       0.000000
     75 C                    -0.150572      -0.000000
     76 C                     0.179299      -0.000000
     77 C                    -0.390665       0.000000
     78 H                     0.251157      -0.000000
     79 C                    -0.065633       0.000000
     80 C                     0.219476      -0.000000
     81 C                     0.181609      -0.000000
     82 C                    -0.398053       0.000000
     83 H                     0.251225      -0.000000
     84 C                    -0.233725      -0.000000
     85 H                     0.257769       0.000000
     86 C                    -0.346050       0.000000
     87 H                     0.255113      -0.000000
     88 C                    -0.231349      -0.000000
     89 H                     0.257575       0.000000
     90 C                    -0.348582       0.000000
     91 H                     0.255331      -0.000000
     92 B                     0.682050      -0.000000
     93 C                    -0.213455       0.000000
     94 C                     0.063534      -0.000000
     95 C                    -0.349553      -0.000000
     96 H                     0.245091      -0.000000
     97 C                     0.273863       0.000000
     98 C                    -0.360294      -0.000000
     99 H                     0.247634      -0.000000
    100 C                     0.040527      -0.000000
    101 N                    -0.672029      -0.000000
    102 C                     0.310621       0.000000
    103 C                    -0.303948      -0.000000
    104 H                     0.262184       0.000000
    105 C                    -0.240691      -0.000000
    106 H                     0.248048       0.000000
    107 C                    -0.270118       0.000000
    108 H                     0.244307       0.000000
    109 C                    -0.239067       0.000000
    110 H                     0.246046      -0.000000
    111 C                    -0.305622      -0.000000
    112 H                     0.259868      -0.000000
    113 C                     0.306188       0.000000
    114 C                    -0.302271       0.000000
    115 H                     0.262065       0.000000
    116 C                    -0.241352      -0.000000
    117 H                     0.248548       0.000000
    118 C                    -0.268249      -0.000000
    119 H                     0.245031      -0.000000
    120 C                    -0.239714       0.000000
    121 H                     0.247602       0.000000
    122 C                    -0.302612      -0.000000
    123 H                     0.258408      -0.000000
    124 C                    -0.774342      -0.000000
    125 H                     0.255278      -0.000000
    126 H                     0.249957       0.000000
    127 H                     0.251191       0.000000
    128 C                    -0.551186      -0.000000
    129 H                     0.254380       0.000000
    130 H                     0.244554       0.000000
    131 C                    -0.654843      -0.000000
    132 H                     0.234631       0.000000
    133 H                     0.223085      -0.000000
    134 H                     0.229379       0.000000
  --------------------------------------------------------
  Sum of atomic charges =    -0.000000

                    Cartesian Multipole Moments
 -----------------------------------------------------------------
    Charge (ESU x 10^10)
                -0.0000
    Dipole Moment (Debye)
         X      -0.4551      Y      -0.1131      Z      -0.7585
       Tot       0.8918
    Quadrupole Moments (Debye-Ang)
        XX    -447.6559     XY      -3.4416     YY    -364.0932
        XZ      -4.9881     YZ       3.4631     ZZ    -420.6188

             Standard Nuclear Orientation (Angstroms)
    I     Atom           X                Y                Z
 ----------------------------------------------------------------
    1      N       0.3138648325    -0.0975297251    -0.0106516095
    2      C       0.2388995341    -0.0104206555     1.3921333301
    3      C       1.3895116253    -0.0304125459     2.1694552871
    4      H       2.3608289365    -0.1046853520     1.6931425606
    5      C       1.3075174728     0.0221258383     3.5564880270
    6      C       1.3141238594     0.6005052944    -0.7085179230
    7      C       1.6125275694     1.9232846482    -0.3827734481
    8      H       1.0646419159     2.4190560549     0.4087021576
    9      C       2.6046629312     2.6041335822    -1.0710083098
   10      H       2.8242193983     3.6307020190    -0.8069575776
   11      C       3.2989145564     1.9873755873    -2.1034402210
   12      H       4.0667638080     2.5244493443    -2.6444002335
   13      C       2.9964199965     0.6733262017    -2.4342974936
   14      H       3.5341552348     0.1765262259    -3.2318904982
   15      C       2.0201235312    -0.0213951515    -1.7383588062
   16      H       1.8042104720    -1.0509320243    -1.9950720649
   17      C      -0.5733427314    -0.9326934622    -0.7103687629
   18      C      -1.1280680768    -0.5129151392    -1.9202379786
   19      H      -0.8808891646     0.4640287427    -2.3157067401
   20      C      -1.9925662878    -1.3404467649    -2.6190351616
   21      H      -2.4122511893    -0.9981873099    -3.5565009921
   22      C      -2.3360966759    -2.5889603594    -2.1181239597
   23      H      -3.0174453954    -3.2296239897    -2.6622831199
   24      C      -1.7942041526    -3.0045294361    -0.9090597258
   25      H      -2.0468268318    -3.9776634391    -0.5073670772
   26      C      -0.9129616652    -2.1915319002    -0.2132085830
   27      H      -0.4862205813    -2.5367340216     0.7201502369
   28      C      -1.0020103858     0.0817152019     2.0178908303
   29      H      -1.9036890408     0.1123509012     1.4166659550
   30      C      -1.0996404434     0.1099113967     3.4003771783
   31      C       0.0613849615     0.0738074024     4.1868630306
   32      C      -2.4536748370     0.1642100823     4.0527911712
   33      H      -3.2552830977     0.1914989204     3.3153763515
   34      H      -2.5591227589     1.0462605294     4.6877309006
   35      H      -2.6248754601    -0.7076019617     4.6892808116
   36      C       2.5824265896     0.0473896314     4.3575955547
   37      H       2.4194978379    -0.3751585623     5.3538621660
   38      H       3.3309253507    -0.5908555359     3.8814874313
   39      C       3.1358452760     1.4639327834     4.4912856746
   40      H       2.4267616843     2.1147914839     5.0039982896
   41      H       4.0668472077     1.4698454474     5.0588895099
   42      H       3.3363612576     1.8969103009     3.5104027193
   43      B      -0.0612586844    -0.0458267083     5.7458572971
   44      C      -0.1724571559     1.1997801479     6.6624698306
   45      C      -0.2475384551     2.4740395246     6.0967411217
   46      H      -0.2027170252     2.5886165741     5.0189816006
   47      C      -0.3974496927     3.5808785269     6.9112549527
   48      C      -0.4519960737     3.4323198053     8.3151646367
   49      C      -0.3518921855     2.1730007427     8.8847747855
   50      H      -0.3889037046     2.0589282608     9.9623041488
   51      C      -0.2259022179     1.0434534120     8.0682355876
   52      C      -0.5506576521     4.9958953155     6.5895885676
   53      C      -0.5977505168     5.7223381684     5.4287926989
   54      H      -0.4947645548     5.2564581868     4.4562299229
   55      C      -0.6991214181     5.6621748812     7.8187344982
   56      C      -0.9011749174     7.0313835493     7.9399435403
   57      C      -0.6445765560     4.7603009769     8.8994697899
   58      C      -0.7950870492     5.2542748947    10.1680433440
   59      H      -0.7678571107     4.6125070252    11.0400047694
   60      C      -0.7947146767     7.1204051504     5.5210482724
   61      H      -0.8338857884     7.6983245163     4.6068418299
   62      C      -0.9434417462     7.7656368022     6.7282501151
   63      H      -1.0974560188     8.8374446622     6.7499449196
   64      C      -0.9978730417     6.6468991482    10.3268671547
   65      H      -1.1179513396     7.0379920198    11.3286255453
   66      C      -1.0520375256     7.5174373576     9.2613743359
   67      H      -1.2145291797     8.5739396559     9.4351877754
   68      C      -0.1037270382    -1.4704588974     6.3695031077
   69      C      -0.1140862690    -2.5896922086     5.5361259568
   70      H      -0.0948051350    -2.4684395537     4.4591220959
   71      C      -0.1531941444    -3.8547310655     6.0876738806
   72      C      -0.1665429604    -4.0324895755     7.4902277398
   73      C      -0.1540605117    -2.9266729750     8.3228538990
   74      H      -0.1666693969    -3.0535470054     9.3998678291
   75      C      -0.1327607146    -1.6390388987     7.7732007740
   76      C      -0.1794862768    -5.1713619317     5.4540028051
   77      C      -0.1833302452    -5.6278722874     4.1604312045
   78      H      -0.1645301768    -4.9522642080     3.3138653028
   79      C      -0.2052107438    -6.1077476851     6.5021344665
   80      C      -0.2333747120    -7.4872565462     6.3106358734
   81      C      -0.1979557913    -5.4749345046     7.7601986135
   82      C      -0.2194116853    -6.2658754760     8.8806152115
   83      H      -0.2152111342    -5.8466990003     9.8789143905
   84      C      -0.2125878334    -7.0255554236     3.9356035160
   85      H      -0.2154298097    -7.3854728386     2.9148168462
   86      C      -0.2367639373    -7.9365518569     4.9670691333
   87      H      -0.2583460806    -8.9979959900     4.7510859610
   88      C      -0.2474368023    -7.6734878877     8.7193424054
   89      H      -0.2638381146    -8.2923792166     9.6070243125
   90      C      -0.2547187039    -8.2794071663     7.4837173707
   91      H      -0.2765859393    -9.3599867860     7.4092205911
   92      B      -0.1658123392    -0.3868904476     8.6933629578
   93      C      -0.1408099161    -0.5412552108    10.2536429796
   94      C      -1.3185002752    -0.4704927481    11.0036107606
   95      C      -1.2585499627    -0.5162839516    12.3917819660
   96      H      -2.1726457678    -0.4541304403    12.9727455261
   97      C      -0.0383849343    -0.6168851778    13.0441504344
   98      C       1.1319173803    -0.7172940851    12.2987575583
   99      H       2.0860229987    -0.7988744445    12.8067361058
  100      C       1.0880819427    -0.6909319372    10.9119578608
  101      N       0.0132465101    -0.5956238322    14.4547857687
  102      C      -0.5933964359     0.4666113381    15.1378680526
  103      C      -1.2176278985     0.2671075841    16.3706473251
  104      H      -1.2354447544    -0.7198594835    16.8153795447
  105      C      -1.8243034765     1.3258426718    17.0275617248
  106      H      -2.3037029269     1.1488576815    17.9819935202
  107      C      -1.8416950417     2.5951088366    16.4646815429
  108      H      -2.3255340760     3.4164041253    16.9763541039
  109      C      -1.2309113256     2.7932996649    15.2337771043
  110      H      -1.2298771051     3.7762226452    14.7797037948
  111      C      -0.6043449379     1.7461757114    14.5779446600
  112      H      -0.1234757936     1.9235901496    13.6244209029
  113      C       0.7136336982    -1.6093958308    15.1223068174
  114      C       1.5039793496    -1.3281622882    16.2374265493
  115      H       1.5801557464    -0.3128921795    16.6051163435
  116      C       2.2008875010    -2.3433862877    16.8734663835
  117      H       2.8098471918    -2.1058667370    17.7364888693
  118      C       2.1422111599    -3.6479187051    16.4015458757
  119      H       2.6960118610    -4.4351213545    16.8957390285
  120      C       1.3650196053    -3.9277636560    15.2855361485
  121      H       1.3038419646    -4.9399664563    14.9062727244
  122      C       0.6488223157    -2.9234724398    14.6543959507
  123      H       0.0381391003    -3.1591483156    13.7917608970
  124      C       2.3575329341    -0.7963852308    10.1129190357
  125      H       3.2392450868    -0.7892034685    10.7527061939
  126      H       2.3811112919    -1.7196805995     9.5299124656
  127      H       2.4594197189     0.0291476819     9.4043344086
  128      C      -2.6656089381    -0.4070388507    10.3282107641
  129      H      -2.5806163121     0.0745803551     9.3496808033
  130      H      -3.3417343153     0.2216814837    10.9127355217
  131      C      -3.2909804235    -1.7898451057    10.1524562088
  132      H      -2.6651006838    -2.4310370519     9.5310458509
  133      H      -3.4235879203    -2.2850651545    11.1150389022
  134      H      -4.2688364169    -1.7164113540     9.6753238483
 ----------------------------------------------------------------
