 Q-Chem 5.0, Q-Chem, Inc., Pleasanton, CA (2017)
 Q-Chem 5.0.1 for Intel X86 EM64T Linux

User input:
--------------------------------------------------------------
$rem
threads 8
jobtype	sp
method PBEh-3c
basis def2-mSVP
mem_static	1024
mem_total	8000
sym_ignore	true
unrestricted true
scf_convergence	9
solvent_method	pcm
$end

$molecule
read incoords.mol
$end

$solvent
dielectric	8.93
$end

$pcm
theory iefpcm
$end
--------------------------------------------------------------

   17   -3006.3520441545      3.94E-10 Convergence criterion met
 Total energy in the final basis set = -3006.35204415
 Total job time:  4054.61s(wall), 12744.18s(cpu)
        *  Thank you very much for using Q-Chem.  Have a nice day.  *
 Q-Chem 5.0, Q-Chem, Inc., Pleasanton, CA (2017)
 Q-Chem 5.0.1 for Intel X86 EM64T Linux

User input:
--------------------------------------------------------------

$rem
threads 8
jobtype opt
method PBEh-3c
basis def2-mSVP
scf_guess	read
mem_static      1024
mem_total       8000
sym_ignore      true
unrestricted true
mom_start       1
scf_algorithm	diis
scf_max_cycles	250
solvent_method	pcm
geom_opt_tol_energy 25
geom_opt_tol_gradient 75
$end

$solvent
dielectric      8.93
$end
$pcm
theory iefpcm
$end

$occupied
1 2 3 4 5 6 7 8 9 10 11 12 13 14 15 16 17 18 19 20 21 22 23 24 25 26 27 28 29 30 31 32 33 34 35 36 37 38 39 40 41 42 43 44 45 46 47 48 49 50 51 52 53 54 55 56 57 58 59 60 61 62 63 64 65 66 67 68 69 70 71 72 73 74 75 76 77 78 79 80 81 82 83 84 85 86 87 88 89 90 91 92 93 94 95 96 97 98 99 100 101 102 103 104 105 106 107 108 109 110 111 112 113 114 115 116 117 118 119 120 121 122 123 124 125 126 127 128 129 130 131 132 133 134 135 136 137 138 139 140 141 142 143 144 145 146 147 148 149 150 151 152 153 154 155 156 157 158 159 160 161 162 163 164 165 166 167 168 169 170 171 172 173 174 175 176 177 178 179 180 181 182 183 184 185 186 187 188 189 190 191 192 193 194 195 196 197 198 199 200 201 202 203 204 205 206 207 208 209 210 211 212 213 214 215 216 217 218 219 220 221 222 223 224 225 226 227 228 229 230 231 232 233 234 235 236 237 238 239 240 241 242 243 244 245 246 247 248 249 250 251 252 253 254 255 256 257 258 259 260 261  263
1 2 3 4 5 6 7 8 9 10 11 12 13 14 15 16 17 18 19 20 21 22 23 24 25 26 27 28 29 30 31 32 33 34 35 36 37 38 39 40 41 42 43 44 45 46 47 48 49 50 51 52 53 54 55 56 57 58 59 60 61 62 63 64 65 66 67 68 69 70 71 72 73 74 75 76 77 78 79 80 81 82 83 84 85 86 87 88 89 90 91 92 93 94 95 96 97 98 99 100 101 102 103 104 105 106 107 108 109 110 111 112 113 114 115 116 117 118 119 120 121 122 123 124 125 126 127 128 129 130 131 132 133 134 135 136 137 138 139 140 141 142 143 144 145 146 147 148 149 150 151 152 153 154 155 156 157 158 159 160 161 162 163 164 165 166 167 168 169 170 171 172 173 174 175 176 177 178 179 180 181 182 183 184 185 186 187 188 189 190 191 192 193 194 195 196 197 198 199 200 201 202 203 204 205 206 207 208 209 210 211 212 213 214 215 216 217 218 219 220 221 222 223 224 225 226 227 228 229 230 231 232 233 234 235 236 237 238 239 240 241 242 243 244 245 246 247 248 249 250 251 252 253 254 255 256 257 258 259 260 261 262
$end

$molecule
read
$end

--------------------------------------------------------------

   29   -3006.2935877695      8.00E-09 Convergence criterion met
 Total energy in the final basis set = -3006.29358777
   41   -3006.2936007503      7.71E-09 Convergence criterion met
 Total energy in the final basis set = -3006.29360075
   52   -3006.2930582244      6.66E-09 Convergence criterion met
 Total energy in the final basis set = -3006.29305822
   60   -3006.2937600713      6.06E-09 Convergence criterion met
 Total energy in the final basis set = -3006.29376007
   41   -3006.2933080565      5.46E-09 Convergence criterion met
 Total energy in the final basis set = -3006.29330806
   25   -3006.3530835036      5.72E-09 Convergence criterion met
 Total energy in the final basis set = -3006.35308350
   13   -3006.3542721703      4.99E-09 Convergence criterion met
   12   -3006.3588887208      9.78E-09 Convergence criterion met
 Total energy in the final basis set = -3006.35888872
   12   -3006.3588586345      9.78E-09 Convergence criterion met
 Total energy in the final basis set = -3006.35885863
   12   -3006.3588268008      9.87E-09 Convergence criterion met
 Total energy in the final basis set = -3006.35882680
   12   -3006.3588000334      9.88E-09 Convergence criterion met
 Total energy in the final basis set = -3006.35880003
   12   -3006.3587974915      9.84E-09 Convergence criterion met
 Total energy in the final basis set = -3006.35879749
   12   -3006.3587968427      9.75E-09 Convergence criterion met
 Total energy in the final basis set = -3006.35879684

             Standard Nuclear Orientation (Angstroms)
    I     Atom           X                Y                Z
 ----------------------------------------------------------------
    1      N       0.3946010535    -0.1115627729    -0.0019200910
    2      C       0.2904255391    -0.0137903099     1.3982701993
    3      C       1.4237717634    -0.0401890321     2.2008465509
    4      H       2.4046710877    -0.1247980558     1.7464849165
    5      C       1.3116448296     0.0183300378     3.5851557048
    6      C       1.4101471472     0.5762947712    -0.6866143629
    7      C       1.7191269188     1.8958679785    -0.3568548267
    8      H       1.1683720399     2.3972003721     0.4290535069
    9      C       2.7249889603     2.5670670735    -1.0344072526
   10      H       2.9519778922     3.5912045900    -0.7672264501
   11      C       3.4233562328     1.9443119696    -2.0604379011
   12      H       4.2019053506     2.4739889778    -2.5933273935
   13      C       3.1106055899     0.6337343283    -2.3953401205
   14      H       3.6510284760     0.1320618443    -3.1880633959
   15      C       2.1203080654    -0.0516613938    -1.7101098431
   16      H       1.8969040070    -1.0786712887    -1.9704282140
   17      C      -0.4874503287    -0.9440168240    -0.7121001649
   18      C      -1.0250022539    -0.5245005160    -1.9296027302
   19      H      -0.7689563634     0.4504615327    -2.3244701320
   20      C      -1.8838882940    -1.3501319442    -2.6376301401
   21      H      -2.2900816067    -1.0082961766    -3.5811616855
   22      C      -2.2388332430    -2.5960559573    -2.1383548635
   23      H      -2.9157871798    -3.2352087241    -2.6897349012
   24      C      -1.7142523102    -3.0111603297    -0.9214956809
   25      H      -1.9759773840    -3.9823484446    -0.5209290727
   26      C      -0.8386029832    -2.2001356112    -0.2164336154
   27      H      -0.4251817549    -2.5447682294     0.7231491007
   28      C      -0.9627025961     0.0920540987     1.9962719605
   29      H      -1.8507386736     0.1278453838     1.3753282518
   30      C      -1.0907599517     0.1259813460     3.3765024141
   31      C       0.0520856859     0.0829567781     4.1884573504
   32      C      -2.4593223721     0.1817300699     3.9973635110
   33      H      -3.2396231167     0.2756129817     3.2426679134
   34      H      -2.5594622278     1.0261975309     4.6819585726
   35      H      -2.6706660463    -0.7224551960     4.5738878438
   36      C       2.5679782745     0.0360414114     4.4151008183
   37      H       2.3848788165    -0.4049323979     5.3998239361
   38      H       3.3306870594    -0.5897124099     3.9451134194
   39      C       3.1101243599     1.4530933719     4.5855164296
   40      H       2.3848415697     2.0917594956     5.0907219284
   41      H       4.0264989798     1.4544883440     5.1764970790
   42      H       3.3326948570     1.9027856797     3.6170685736
   43      B      -0.1024328664    -0.0395281322     5.7445741532
   44      C      -0.2282717421     1.2019924456     6.6651013222
   45      C      -0.3067372219     2.4783147109     6.1042755732
   46      H      -0.2533338097     2.5980698861     5.0274382326
   47      C      -0.4717828644     3.5805020413     6.9221708566
   48      C      -0.5341959586     3.4256171134     8.3250467526
   49      C      -0.4264135772     2.1650153153     8.8901620897
   50      H      -0.4672772885     2.0469923813     9.9671234692
   51      C      -0.2894765029     1.0393648697     8.0699232366
   52      C      -0.6364339232     4.9954076853     6.6053590971
   53      C      -0.6844862642     5.7261669827     5.4473258692
   54      H      -0.5710456408     5.2655273702     4.4734426950
   55      C      -0.7998286581     5.6549495517     7.8362995173
   56      C      -1.0178978626     7.0213218826     7.9618472778
   57      C      -0.7436630709     4.7491235145     8.9136682764
   58      C      -0.9092771721     5.2358779740    10.1831657244
   59      H      -0.8823695173     4.5905498896    11.0525295143
   60      C      -0.8971334491     7.1216563778     5.5441181018
   61      H      -0.9371060160     7.7028768310     4.6320424657
   62      C      -1.0604661047     7.7601784454     6.7529738027
   63      H      -1.2265480422     8.8301090378     6.7781064967
   64      C      -1.1281185419     6.6255548896    10.3463659646
   65      H      -1.2601970134     7.0110006017    11.3488071151
   66      C      -1.1837240522     7.5000164219     9.2841856412
   67      H      -1.3591361547     8.5539146724     9.4612569768
   68      C      -0.1585810356    -1.4664786683     6.3617523390
   69      C      -0.1712411601    -2.5818701403     5.5232406230
   70      H      -0.1465719683    -2.4560955815     4.4468507287
   71      C      -0.2181879768    -3.8492043463     6.0688581503
   72      C      -0.2356915226    -4.0333871024     7.4705041654
   73      C      -0.2204634533    -2.9314277232     8.3082696614
   74      H      -0.2346256967    -3.0631592657     9.3847201608
   75      C      -0.1930265294    -1.6413774330     7.7645739784
   76      C      -0.2466919838    -5.1627555018     5.4289476381
   77      C      -0.2480267630    -5.6130990675     4.1332238841
   78      H      -0.2250983796    -4.9335023747     3.2899383757
   79      C      -0.2775933583    -6.1039572258     6.4726407305
   80      C      -0.3083124107    -7.4824904623     6.2744927631
   81      C      -0.2719175538    -5.4770521429     7.7337102936
   82      C      -0.2978360658    -6.2732942582     8.8502810676
   83      H      -0.2949231767    -5.8589622129     9.8506047239
   84      C      -0.2799706787    -7.0096291392     3.9017291756
   85      H      -0.2807700349    -7.3647708429     2.8792631400
   86      C      -0.3090656193    -7.9253918854     4.9288146429
   87      H      -0.3323502311    -8.9857504652     4.7077210115
   88      C      -0.3286278266    -7.6800785274     8.6822095361
   89      H      -0.3484246924    -8.3031052020     9.5669307100
   90      C      -0.3342682806    -8.2801526352     7.4437467807
   91      H      -0.3582153779    -9.3603226145     7.3641251777
   92      B      -0.2220906539    -0.3931212029     8.6898828358
   93      C      -0.1781705331    -0.5513086179    10.2494371574
   94      C      -1.3427093060    -0.4708853676    11.0191253505
   95      C      -1.2597711352    -0.5139889579    12.4061456122
   96      H      -2.1630108322    -0.4423555021    13.0026597547
   97      C      -0.0294760630    -0.6223976913    13.0378738051
   98      C       1.1269203411    -0.7354001366    12.2734360080
   99      H       2.0886686705    -0.8230347971    12.7656920967
  100      C       1.0602462943    -0.7109137662    10.8874499298
  101      N       0.0463140830    -0.5924089657    14.4475808286
  102      C      -0.5119389048     0.4951874686    15.1316372937
  103      C      -1.0895936262     0.3311367279    16.3923326175
  104      H      -1.1087279561    -0.6469465962    16.8562577997
  105      C      -1.6468709192     1.4140782738    17.0531693351
  106      H      -2.0899305146     1.2645924981    18.0296365631
  107      C      -1.6612327540     2.6733428894    16.4679450034
  108      H      -2.1066639271     3.5136781703    16.9835419291
  109      C      -1.0977821547     2.8363139872    15.2097797537
  110      H      -1.0949925111     3.8106824863    14.7375886559
  111      C      -0.5203823709     1.7644371902    14.5485216077
  112      H      -0.0758242500     1.9152085554    13.5730325891
  113      C       0.7607286355    -1.6025240263    15.1063902542
  114      C       1.5949520998    -1.3140113981    16.1869674264
  115      H       1.6955951219    -0.2946519665    16.5368093204
  116      C       2.3047353302    -2.3280030611    16.8109025017
  117      H       2.9480760802    -2.0853305236    17.6471426976
  118      C       2.2150159959    -3.6381346099    16.3601403152
  119      H       2.7787877024    -4.4242413484    16.8447259240
  120      C       1.3939412121    -3.9253355948    15.2777966839
  121      H       1.3085305133    -4.9419812205    14.9155412815
  122      C       0.6652925160    -2.9220886995    14.6596578829
  123      H       0.0208180400    -3.1621646862    13.8231670010
  124      C       2.3161189389    -0.8273864500    10.0686982553
  125      H       3.2077343004    -0.8192405833    10.6945686114
  126      H       2.3269049336    -1.7547639749     9.4919166272
  127      H       2.4104540416    -0.0070425626     9.3531221887
  128      C      -2.7003830633    -0.4013450281    10.3659681438
  129      H      -2.6313890879     0.0903764935     9.3913238350
  130      H      -3.3679182642     0.2200640592    10.9679177700
  131      C      -3.3268395338    -1.7832274463    10.1859995090
  132      H      -2.7116926294    -2.4164058488     9.5459109234
  133      H      -3.4406573231    -2.2893901567    11.1452912429
  134      H      -4.3134308370    -1.7061068509     9.7278341860
 ----------------------------------------------------------------

   12   -3006.3587904786      9.79E-09 Convergence criterion met
 Total energy in the final basis set = -3006.35879048
 Final energy is   -3006.35879047860
 **  OPTIMIZATION CONVERGED  **

                    Orbital Energies (a.u.)
 --------------------------------------------------------------

 Alpha MOs
 -- Occupied --
-14.672 -14.672 -10.494 -10.494 -10.493 -10.493 -10.488 -10.486
-10.468 -10.468 -10.466 -10.466 -10.466 -10.466 -10.466 -10.466
-10.465 -10.465 -10.464 -10.464 -10.463 -10.462 -10.462 -10.462
-10.462 -10.462 -10.459 -10.459 -10.459 -10.459 -10.459 -10.458
-10.457 -10.457 -10.456 -10.456 -10.454 -10.453 -10.450 -10.450
-10.449 -10.449 -10.449 -10.449 -10.449 -10.449 -10.449 -10.449
-10.447 -10.447 -10.447 -10.446 -10.446 -10.446 -10.445 -10.445
-10.444 -10.444 -10.443 -10.442 -10.440 -10.440 -10.439 -10.438
-10.438 -10.438 -10.437 -10.437 -10.437 -10.436 -10.428 -10.428
-10.426 -10.423 -10.422 -10.421  -6.954  -6.952  -1.082  -1.082
 -1.019  -1.019  -0.967  -0.964  -0.962  -0.962  -0.962  -0.962
 -0.942  -0.942  -0.935  -0.934  -0.912  -0.904  -0.886  -0.886
 -0.867  -0.863  -0.857  -0.856  -0.853  -0.852  -0.848  -0.847
 -0.840  -0.840  -0.839  -0.838  -0.825  -0.818  -0.816  -0.815
 -0.814  -0.808  -0.795  -0.795  -0.769  -0.768  -0.737  -0.732
 -0.728  -0.722  -0.715  -0.714  -0.709  -0.709  -0.702  -0.700
 -0.690  -0.683  -0.683  -0.681  -0.681  -0.676  -0.669  -0.668
 -0.651  -0.650  -0.642  -0.641  -0.638  -0.637  -0.608  -0.607
 -0.597  -0.596  -0.591  -0.589  -0.588  -0.588  -0.584  -0.576
 -0.575  -0.563  -0.562  -0.556  -0.555  -0.547  -0.545  -0.544
 -0.543  -0.540  -0.529  -0.525  -0.524  -0.522  -0.518  -0.513
 -0.511  -0.510  -0.504  -0.503  -0.502  -0.499  -0.498  -0.497
 -0.497  -0.495  -0.494  -0.490  -0.489  -0.488  -0.486  -0.484
 -0.484  -0.482  -0.482  -0.482  -0.479  -0.478  -0.478  -0.474
 -0.471  -0.468  -0.467  -0.464  -0.459  -0.454  -0.450  -0.447
 -0.445  -0.443  -0.442  -0.440  -0.435  -0.433  -0.432  -0.430
 -0.429  -0.428  -0.426  -0.423  -0.422  -0.421  -0.419  -0.413
 -0.413  -0.411  -0.406  -0.404  -0.401  -0.401  -0.398  -0.398
 -0.397  -0.397  -0.397  -0.395  -0.394  -0.393  -0.391  -0.389
 -0.383  -0.379  -0.377  -0.371  -0.361  -0.359  -0.357  -0.355
 -0.348  -0.344  -0.323  -0.317  -0.307  -0.305  -0.302  -0.302
 -0.299  -0.298  -0.297  -0.297  -0.289  -0.286  -0.284  -0.279
 -0.278  -0.265  -0.261  -0.259  -0.225  -0.224

 Beta MOs
 -- Occupied --
-14.672 -14.672 -10.494 -10.494 -10.493 -10.493 -10.488 -10.486
-10.468 -10.468 -10.466 -10.466 -10.466 -10.466 -10.466 -10.466
-10.465 -10.465 -10.464 -10.464 -10.463 -10.462 -10.462 -10.462
-10.462 -10.462 -10.459 -10.459 -10.459 -10.459 -10.459 -10.458
-10.457 -10.457 -10.456 -10.456 -10.454 -10.453 -10.450 -10.450
-10.449 -10.449 -10.449 -10.449 -10.449 -10.449 -10.449 -10.449
-10.447 -10.447 -10.447 -10.446 -10.446 -10.446 -10.445 -10.445
-10.444 -10.444 -10.443 -10.442 -10.440 -10.440 -10.439 -10.438
-10.438 -10.438 -10.437 -10.437 -10.437 -10.436 -10.428 -10.428
-10.426 -10.423 -10.422 -10.421  -6.954  -6.952  -1.082  -1.082
 -1.019  -1.019  -0.967  -0.964  -0.962  -0.962  -0.962  -0.962
 -0.942  -0.942  -0.935  -0.934  -0.912  -0.904  -0.886  -0.886
 -0.867  -0.863  -0.857  -0.856  -0.853  -0.852  -0.848  -0.847
 -0.840  -0.840  -0.839  -0.838  -0.825  -0.818  -0.816  -0.815
 -0.814  -0.808  -0.795  -0.795  -0.769  -0.768  -0.737  -0.732
 -0.728  -0.722  -0.715  -0.714  -0.709  -0.709  -0.702  -0.700
 -0.690  -0.683  -0.683  -0.681  -0.681  -0.676  -0.669  -0.668
 -0.651  -0.650  -0.642  -0.641  -0.638  -0.637  -0.608  -0.607
 -0.597  -0.596  -0.591  -0.589  -0.588  -0.588  -0.584  -0.576
 -0.575  -0.563  -0.562  -0.556  -0.555  -0.547  -0.545  -0.544
 -0.543  -0.540  -0.529  -0.525  -0.524  -0.522  -0.518  -0.513
 -0.511  -0.510  -0.504  -0.503  -0.502  -0.499  -0.498  -0.497
 -0.497  -0.495  -0.494  -0.490  -0.489  -0.488  -0.486  -0.484
 -0.484  -0.482  -0.482  -0.482  -0.479  -0.478  -0.478  -0.474
 -0.471  -0.468  -0.467  -0.464  -0.459  -0.454  -0.450  -0.447
 -0.445  -0.443  -0.442  -0.440  -0.435  -0.433  -0.432  -0.430
 -0.429  -0.428  -0.426  -0.423  -0.422  -0.421  -0.419  -0.413
 -0.413  -0.411  -0.406  -0.404  -0.401  -0.401  -0.398  -0.398
 -0.397  -0.397  -0.397  -0.395  -0.394  -0.393  -0.391  -0.389
 -0.383  -0.379  -0.377  -0.371  -0.361  -0.359  -0.357  -0.355
 -0.348  -0.344  -0.323  -0.317  -0.307  -0.305  -0.302  -0.302
 -0.299  -0.298  -0.297  -0.297  -0.289  -0.286  -0.284  -0.279
 -0.278  -0.265  -0.261  -0.259  -0.225  -0.224

          Ground-State Mulliken Net Atomic Charges

     Atom                 Charge (a.u.)    Spin (a.u.)
  --------------------------------------------------------
      1 N                    -0.673087       0.000000
      2 C                     0.308284       0.000000
      3 C                    -0.371221      -0.000000
      4 H                     0.247667      -0.000000
      5 C                     0.063244      -0.000000
      6 C                     0.292430       0.000000
      7 C                    -0.294372       0.000000
      8 H                     0.259205       0.000000
      9 C                    -0.241904       0.000000
     10 H                     0.248731       0.000000
     11 C                    -0.265717       0.000000
     12 H                     0.245908      -0.000000
     13 C                    -0.241296      -0.000000
     14 H                     0.249015      -0.000000
     15 C                    -0.297230      -0.000000
     16 H                     0.260988      -0.000000
     17 C                     0.289125      -0.000000
     18 C                    -0.294073       0.000000
     19 H                     0.260864      -0.000000
     20 C                    -0.241285      -0.000000
     21 H                     0.249091       0.000000
     22 C                    -0.265721       0.000000
     23 H                     0.246116       0.000000
     24 C                    -0.241145      -0.000000
     25 H                     0.247959      -0.000000
     26 C                    -0.294112       0.000000
     27 H                     0.258544       0.000000
     28 C                    -0.375411      -0.000000
     29 H                     0.249972      -0.000000
     30 C                     0.053381      -0.000000
     31 C                    -0.223091       0.000000
     32 C                    -0.773113       0.000000
     33 H                     0.254280      -0.000000
     34 H                     0.248248       0.000000
     35 H                     0.249067       0.000000
     36 C                    -0.552079       0.000000
     37 H                     0.254154      -0.000000
     38 H                     0.244639      -0.000000
     39 C                    -0.655400      -0.000000
     40 H                     0.234088       0.000000
     41 H                     0.228442       0.000000
     42 H                     0.223931       0.000000
     43 B                     0.672050      -0.000000
     44 C                    -0.146344      -0.000000
     45 C                    -0.399817      -0.000000
     46 H                     0.248654       0.000000
     47 C                     0.075327       0.000000
     48 C                     0.091551      -0.000000
     49 C                    -0.393275      -0.000000
     50 H                     0.245425       0.000000
     51 C                    -0.159622       0.000000
     52 C                     0.176853       0.000000
     53 C                    -0.389539      -0.000000
     54 H                     0.252185      -0.000000
     55 C                    -0.065145      -0.000000
     56 C                     0.223475       0.000000
     57 C                     0.177504      -0.000000
     58 C                    -0.393741       0.000000
     59 H                     0.250898       0.000000
     60 C                    -0.234177       0.000000
     61 H                     0.258098       0.000000
     62 C                    -0.347388      -0.000000
     63 H                     0.254840      -0.000000
     64 C                    -0.232120      -0.000000
     65 H                     0.257136      -0.000000
     66 C                    -0.350121       0.000000
     67 H                     0.255106      -0.000000
     68 C                    -0.154504       0.000000
     69 C                    -0.384164      -0.000000
     70 H                     0.248206      -0.000000
     71 C                     0.074859       0.000000
     72 C                     0.087339      -0.000000
     73 C                    -0.405186       0.000000
     74 H                     0.249819       0.000000
     75 C                    -0.151030      -0.000000
     76 C                     0.179178       0.000000
     77 C                    -0.390809       0.000000
     78 H                     0.251247       0.000000
     79 C                    -0.065660       0.000000
     80 C                     0.219507      -0.000000
     81 C                     0.181574      -0.000000
     82 C                    -0.398082      -0.000000
     83 H                     0.251282      -0.000000
     84 C                    -0.233750       0.000000
     85 H                     0.257751       0.000000
     86 C                    -0.346038       0.000000
     87 H                     0.255098       0.000000
     88 C                    -0.231329      -0.000000
     89 H                     0.257580       0.000000
     90 C                    -0.348626       0.000000
     91 H                     0.255324      -0.000000
     92 B                     0.681234      -0.000000
     93 C                    -0.211663      -0.000000
     94 C                     0.063633       0.000000
     95 C                    -0.348195      -0.000000
     96 H                     0.244940      -0.000000
     97 C                     0.272317       0.000000
     98 C                    -0.359250      -0.000000
     99 H                     0.247527       0.000000
    100 C                     0.038394       0.000000
    101 N                    -0.671663       0.000000
    102 C                     0.312096       0.000000
    103 C                    -0.303543      -0.000000
    104 H                     0.262284      -0.000000
    105 C                    -0.240566       0.000000
    106 H                     0.247969       0.000000
    107 C                    -0.270394      -0.000000
    108 H                     0.244176      -0.000000
    109 C                    -0.239224       0.000000
    110 H                     0.245935       0.000000
    111 C                    -0.307279      -0.000000
    112 H                     0.260216       0.000000
    113 C                     0.304874       0.000000
    114 C                    -0.302466      -0.000000
    115 H                     0.262043       0.000000
    116 C                    -0.241418      -0.000000
    117 H                     0.248615       0.000000
    118 C                    -0.267993       0.000000
    119 H                     0.245120       0.000000
    120 C                    -0.239788       0.000000
    121 H                     0.247694      -0.000000
    122 C                    -0.301516      -0.000000
    123 H                     0.258235      -0.000000
    124 C                    -0.774232      -0.000000
    125 H                     0.255443      -0.000000
    126 H                     0.250212      -0.000000
    127 H                     0.251416      -0.000000
    128 C                    -0.550167       0.000000
    129 H                     0.253866      -0.000000
    130 H                     0.244312      -0.000000
    131 C                    -0.654828       0.000000
    132 H                     0.234629      -0.000000
    133 H                     0.223025       0.000000
    134 H                     0.229468      -0.000000
  --------------------------------------------------------
  Sum of atomic charges =    -0.000000

                    Cartesian Multipole Moments
 -----------------------------------------------------------------
    Charge (ESU x 10^10)
                -0.0000
    Dipole Moment (Debye)
         X      -0.5126      Y      -0.1689      Z      -0.7752
       Tot       0.9445
    Quadrupole Moments (Debye-Ang)
        XX    -447.4167     XY      -3.7869     YY    -364.3456
        XZ      -4.6969     YZ       3.5190     ZZ    -420.9835

 Total job time:  123586.83s(wall), 386256.85s(cpu)
        *  Thank you very much for using Q-Chem.  Have a nice day.  *
