 Q-Chem 5.0, Q-Chem, Inc., Pleasanton, CA (2017)
 Q-Chem 5.0.1 for Intel X86 EM64T Linux

User input:
--------------------------------------------------------------
$rem
threads 8
jobtype	sp
method PBEh-3c
basis def2-mSVP
mem_static	1024
mem_total	8000
sym_ignore	true
unrestricted true
scf_convergence	9
solvent_method	pcm
$end

$molecule
read incoords.mol
$end

$solvent
dielectric	1.0001
$end

$pcm
theory iefpcm
$end
--------------------------------------------------------------

   17   -3006.3188974576      9.44E-10 Convergence criterion met
 Total energy in the final basis set = -3006.31889746
 Total job time:  3870.13s(wall), 12021.89s(cpu)
        *  Thank you very much for using Q-Chem.  Have a nice day.  *
 Q-Chem 5.0, Q-Chem, Inc., Pleasanton, CA (2017)
 Q-Chem 5.0.1 for Intel X86 EM64T Linux

User input:
--------------------------------------------------------------

$rem
threads 8
jobtype opt
method PBEh-3c
basis def2-mSVP
scf_guess	read
mem_static      1024
mem_total       8000
sym_ignore      true
unrestricted true
mom_start       1
scf_algorithm	diis
scf_max_cycles	250
solvent_method	pcm
geom_opt_tol_energy 25
geom_opt_tol_gradient 75
$end

$solvent
dielectric      1.0001
$end

$pcm
theory iefpcm
$end

$occupied
1 2 3 4 5 6 7 8 9 10 11 12 13 14 15 16 17 18 19 20 21 22 23 24 25 26 27 28 29 30 31 32 33 34 35 36 37 38 39 40 41 42 43 44 45 46 47 48 49 50 51 52 53 54 55 56 57 58 59 60 61 62 63 64 65 66 67 68 69 70 71 72 73 74 75 76 77 78 79 80 81 82 83 84 85 86 87 88 89 90 91 92 93 94 95 96 97 98 99 100 101 102 103 104 105 106 107 108 109 110 111 112 113 114 115 116 117 118 119 120 121 122 123 124 125 126 127 128 129 130 131 132 133 134 135 136 137 138 139 140 141 142 143 144 145 146 147 148 149 150 151 152 153 154 155 156 157 158 159 160 161 162 163 164 165 166 167 168 169 170 171 172 173 174 175 176 177 178 179 180 181 182 183 184 185 186 187 188 189 190 191 192 193 194 195 196 197 198 199 200 201 202 203 204 205 206 207 208 209 210 211 212 213 214 215 216 217 218 219 220 221 222 223 224 225 226 227 228 229 230 231 232 233 234 235 236 237 238 239 240 241 242 243 244 245 246 247 248 249 250 251 252 253 254 255 256 257 258 259 260 261  263
1 2 3 4 5 6 7 8 9 10 11 12 13 14 15 16 17 18 19 20 21 22 23 24 25 26 27 28 29 30 31 32 33 34 35 36 37 38 39 40 41 42 43 44 45 46 47 48 49 50 51 52 53 54 55 56 57 58 59 60 61 62 63 64 65 66 67 68 69 70 71 72 73 74 75 76 77 78 79 80 81 82 83 84 85 86 87 88 89 90 91 92 93 94 95 96 97 98 99 100 101 102 103 104 105 106 107 108 109 110 111 112 113 114 115 116 117 118 119 120 121 122 123 124 125 126 127 128 129 130 131 132 133 134 135 136 137 138 139 140 141 142 143 144 145 146 147 148 149 150 151 152 153 154 155 156 157 158 159 160 161 162 163 164 165 166 167 168 169 170 171 172 173 174 175 176 177 178 179 180 181 182 183 184 185 186 187 188 189 190 191 192 193 194 195 196 197 198 199 200 201 202 203 204 205 206 207 208 209 210 211 212 213 214 215 216 217 218 219 220 221 222 223 224 225 226 227 228 229 230 231 232 233 234 235 236 237 238 239 240 241 242 243 244 245 246 247 248 249 250 251 252 253 254 255 256 257 258 259 260 261 262
$end

$molecule
read
$end

--------------------------------------------------------------

   19   -3006.2415713803      9.43E-09 Convergence criterion met
 Total energy in the final basis set = -3006.24157138
   15   -3006.2412903337      9.98E-09 Convergence criterion met
 Total energy in the final basis set = -3006.24129033
   15   -3006.2405927521      8.43E-09 Convergence criterion met
 Total energy in the final basis set = -3006.24059275
   14   -3006.2415119512      9.34E-09 Convergence criterion met
 Total energy in the final basis set = -3006.24151195
   14   -3006.2410021148      7.36E-09 Convergence criterion met
 Total energy in the final basis set = -3006.24100211
   13   -3006.2415237301      8.10E-09 Convergence criterion met
 Total energy in the final basis set = -3006.24152373
   13   -3006.2414336886      6.73E-09 Convergence criterion met
   10   -3006.2407823736      6.02E-09 Convergence criterion met
 Total energy in the final basis set = -3006.24078237
   11   -3006.2407415651      7.61E-09 Convergence criterion met
 Total energy in the final basis set = -3006.24074157
   10   -3006.2407254550      4.43E-09 Convergence criterion met
 Total energy in the final basis set = -3006.24072546
   10   -3006.2406887276      5.85E-09 Convergence criterion met
 Total energy in the final basis set = -3006.24068873
   10   -3006.2406382532      5.63E-09 Convergence criterion met
 Total energy in the final basis set = -3006.24063825
    8   -3006.2406453953      6.21E-09 Convergence criterion met
 Total energy in the final basis set = -3006.24064540

             Standard Nuclear Orientation (Angstroms)
    I     Atom           X                Y                Z
 ----------------------------------------------------------------
    1      N       0.2349916259    -0.2824110229     0.0729458529
    2      C       0.2191012274    -0.0286715069     1.4121412068
    3      C       1.4242078936     0.0375046923     2.1474485050
    4      H       2.3681345895    -0.1155225497     1.6399390104
    5      C       1.3974063625     0.1855253327     3.5099801685
    6      C       1.3572728626     0.0261611678    -0.7309627132
    7      C       1.9500777789     1.2824889724    -0.6453372606
    8      H       1.5541456634     2.0246888163     0.0358498812
    9      C       3.0357291555     1.5783982065    -1.4520002277
   10      H       3.4949200993     2.5554112459    -1.3899570987
   11      C       3.5213286169     0.6347418291    -2.3456762487
   12      H       4.3674513305     0.8716009243    -2.9762035953
   13      C       2.9179002564    -0.6124285910    -2.4338472477
   14      H       3.2960429008    -1.3515867895    -3.1268421794
   15      C       1.8351769065    -0.9217876330    -1.6308360703
   16      H       1.3680133203    -1.8960197863    -1.6924353939
   17      C      -0.8690381206    -0.9090788160    -0.5572613749
   18      C      -1.3811575215    -0.3810737507    -1.7381657009
   19      H      -0.9492038533     0.5140790782    -2.1665726159
   20      C      -2.4557243916    -1.0012163136    -2.3513562646
   21      H      -2.8624001272    -0.5850216057    -3.2629836756
   22      C      -3.0160646069    -2.1439382922    -1.7971040655
   23      H      -3.8569198992    -2.6235427375    -2.2795498601
   24      C      -2.4937242635    -2.6729986041    -0.6258885562
   25      H      -2.9184948220    -3.5697391382    -0.1956671696
   26      C      -1.4175703501    -2.0633000907    -0.0042384218
   27      H      -1.0013248182    -2.4861487246     0.9014376832
   28      C      -1.0164256724     0.1367017531     2.0794370612
   29      H      -1.9338925979     0.1478823876     1.5051797719
   30      C      -1.0550367317     0.2983081770     3.4377979677
   31      C       0.1518778964     0.2712074758     4.1973736212
   32      C      -2.3653094275     0.4559403702     4.1424118291
   33      H      -3.2006527296     0.4678668736     3.4430713339
   34      H      -2.3895214866     1.3746708092     4.7289315546
   35      H      -2.5167836925    -0.3629033476     4.8482461137
   36      C       2.6850155818     0.2117698065     4.2790176457
   37      H       2.5746630487    -0.3767435015     5.1917912857
   38      H       3.4725584327    -0.2633709325     3.6892593197
   39      C       3.0995856696     1.6381902639     4.6358773313
   40      H       2.3591553198     2.1164957044     5.2753635906
   41      H       4.0457777805     1.6333364373     5.1760301871
   42      H       3.2259094760     2.2494766228     3.7412437357
   43      B       0.0695215702     0.1348175896     5.7654468755
   44      C      -0.0907030250     1.3352322828     6.6861592134
   45      C      -0.1849080592     2.6481551698     6.1760043765
   46      H      -0.1171600409     2.8141491197     5.1036173125
   47      C      -0.3769223172     3.7115702094     7.0180017209
   48      C      -0.4682331568     3.5048052294     8.4248376695
   49      C      -0.3581127531     2.2339878923     8.9407185514
   50      H      -0.4240591158     2.0739108302    10.0116313139
   51      C      -0.1806187040     1.1216881168     8.0941283531
   52      C      -0.5520481175     5.1356946320     6.7527684455
   53      C      -0.5813043463     5.9140898251     5.6246859474
   54      H      -0.4390330664     5.4932489777     4.6365274008
   55      C      -0.7513062039     5.7487655111     8.0040660981
   56      C      -0.9877766093     7.1077972873     8.1753088717
   57      C      -0.7080501972     4.8021290032     9.0494046852
   58      C      -0.9092272097     5.2452855108    10.3307350692
   59      H      -0.8962445290     4.5682663551    11.1757689662
   60      C      -0.8116575509     7.3002255154     5.7687705560
   61      H      -0.8364597605     7.9167877339     4.8790729721
   62      C      -1.0107361731     7.8907708160     6.9954604431
   63      H      -1.1893897153     8.9572584450     7.0566856428
   64      C      -1.1472226183     6.6237499922    10.5379293236
   65      H      -1.3068765359     6.9713021906    11.5505623283
   66      C      -1.1888405144     7.5365101533     9.5095123212
   67      H      -1.3799959707     8.5812407680     9.7209698398
   68      C       0.0832410882    -1.2906023761     6.3119598338
   69      C       0.1566454279    -2.4049769120     5.4497026502
   70      H       0.2114302076    -2.2624391433     4.3742573100
   71      C       0.1532637068    -3.6767065570     5.9521132238
   72      C       0.0892650073    -3.9023193651     7.3588659602
   73      C       0.0217705854    -2.8281655093     8.2149466106
   74      H      -0.0298470934    -2.9853868548     9.2877367123
   75      C       0.0056682546    -1.5082958345     7.7195831234
   76      C       0.1983343867    -4.9726188792     5.2812684678
   77      C       0.2584656492    -5.3933291902     3.9758836308
   78      H       0.2932036715    -4.6904118060     3.1517614708
   79      C       0.1598591949    -5.9442686611     6.2987353738
   80      C       0.1773913426    -7.3179728751     6.0627650064
   81      C       0.0959156635    -5.3498549686     7.5767156699
   82      C       0.0500057346    -6.1831781542     8.6670240273
   83      H      -0.0005810278    -5.7977407353     9.6773512541
   84      C       0.2774577817    -6.7807451465     3.7077049095
   85      H       0.3251134384    -7.1109767265     2.6773576595
   86      C       0.2384542993    -7.7239372393     4.7081104487
   87      H       0.2545998323    -8.7781748096     4.4586494112
   88      C       0.0685448551    -7.5824962588     8.4585992361
   89      H       0.0320791641    -8.2310946788     9.3246900776
   90      C       0.1296832079    -8.1491319233     7.2072528380
   91      H       0.1405443539    -9.2268935452     7.0982520022
   92      B      -0.1126121884    -0.3082765500     8.6720753003
   93      C      -0.1431663978    -0.5093553546    10.2372161329
   94      C      -1.3426220271    -0.4893200670    10.9587462553
   95      C      -1.3227756662    -0.5594942923    12.3470579600
   96      H      -2.2526193086    -0.5289421677    12.9050236856
   97      C      -0.1216489150    -0.6351196304    13.0339620626
   98      C       1.0709589286    -0.6860029155    12.3241024132
   99      H       2.0094230773    -0.7506380239    12.8628516576
  100      C       1.0664292831    -0.6328780129    10.9370659108
  101      N      -0.1133912603    -0.6311379119    14.4492386606
  102      C      -0.7167409270     0.4385755395    15.1186461210
  103      C      -1.3567198759     0.2564115460    16.3461885554
  104      H      -1.3864443218    -0.7270229513    16.7972515888
  105      C      -1.9628693928     1.3242689085    16.9856422405
  106      H      -2.4546725159     1.1587419271    17.9357269611
  107      C      -1.9660368481     2.5875283718    16.4125851894
  108      H      -2.4498877082     3.4165337382    16.9111472075
  109      C      -1.3424190988     2.7683697801    15.1868865110
  110      H      -1.3319806648     3.7464049418    14.7226585910
  111      C      -0.7169409886     1.7128132424    14.5469267228
  112      H      -0.2292313621     1.8736033578    13.5944117962
  113      C       0.5417874317    -1.6675713136    15.1212061774
  114      C       1.2659763830    -1.4327270280    16.2908853696
  115      H       1.3242810157    -0.4308287480    16.6957870935
  116      C       1.9187381942    -2.4729739025    16.9304618160
  117      H       2.4762459487    -2.2683665000    17.8355620826
  118      C       1.8840820571    -3.7589816163    16.4118098817
  119      H       2.4035272702    -4.5664194240    16.9100849998
  120      C       1.1768489815    -3.9922113406    15.2413565886
  121      H       1.1371289946    -4.9891631726    14.8213124829
  122      C       0.5050100784    -2.9640475096    14.6035847089
  123      H      -0.0487850434    -3.1621841645    13.6950134147
  124      C       2.3665643367    -0.6706744451    10.1828293724
  125      H       3.2230285535    -0.6952585723    10.8566057887
  126      H       2.4249123861    -1.5493003919     9.5375811602
  127      H       2.4758325260     0.2013362459     9.5345744423
  128      C      -2.6723911907    -0.4361062397    10.2497979331
  129      H      -2.5909067007     0.1672800653     9.3422625269
  130      H      -3.4061274302     0.0675921513    10.8847794274
  131      C      -3.1923909676    -1.8244697404     9.8827855812
  132      H      -2.5113579699    -2.3307560923     9.1991273039
  133      H      -3.3038792762    -2.4506200596    10.7690567138
  134      H      -4.1656436168    -1.7603824404     9.3937494208
 ----------------------------------------------------------------

    7   -3006.2406444235      7.70E-09 Convergence criterion met
 Total energy in the final basis set = -3006.24064442
 Final energy is   -3006.24064442346
 **  OPTIMIZATION CONVERGED  **

                    Orbital Energies (a.u.)
 --------------------------------------------------------------

 Alpha MOs
 -- Occupied --
-14.769 -14.648 -10.561 -10.551 -10.550 -10.505 -10.504 -10.504
-10.504 -10.500 -10.500 -10.500 -10.498 -10.498 -10.498 -10.498
-10.495 -10.492 -10.491 -10.475 -10.472 -10.472 -10.456 -10.450
-10.444 -10.444 -10.443 -10.443 -10.441 -10.441 -10.441 -10.440
-10.440 -10.439 -10.438 -10.438 -10.438 -10.437 -10.437 -10.437
-10.436 -10.436 -10.435 -10.430 -10.430 -10.429 -10.429 -10.429
-10.429 -10.429 -10.428 -10.427 -10.426 -10.426 -10.425 -10.425
-10.425 -10.425 -10.424 -10.424 -10.423 -10.423 -10.423 -10.422
-10.421 -10.419 -10.412 -10.411 -10.408 -10.402 -10.401 -10.401
-10.397 -10.395 -10.395 -10.392  -6.896  -6.889  -1.158  -1.059
 -1.018  -1.013  -0.990  -0.990  -0.989  -0.941  -0.937  -0.933
 -0.930  -0.922  -0.918  -0.912  -0.911  -0.910  -0.906  -0.894
 -0.892  -0.879  -0.870  -0.857  -0.855  -0.838  -0.832  -0.832
 -0.827  -0.826  -0.825  -0.824  -0.818  -0.818  -0.799  -0.794
 -0.791  -0.789  -0.786  -0.775  -0.769  -0.762  -0.762  -0.740
 -0.739  -0.734  -0.726  -0.709  -0.707  -0.703  -0.695  -0.691
 -0.689  -0.686  -0.679  -0.676  -0.665  -0.661  -0.657  -0.655
 -0.655  -0.648  -0.638  -0.637  -0.623  -0.619  -0.617  -0.615
 -0.611  -0.605  -0.592  -0.589  -0.588  -0.574  -0.573  -0.570
 -0.568  -0.566  -0.563  -0.560  -0.556  -0.552  -0.551  -0.546
 -0.546  -0.541  -0.540  -0.537  -0.530  -0.523  -0.522  -0.518
 -0.516  -0.510  -0.505  -0.503  -0.501  -0.499  -0.497  -0.494
 -0.491  -0.486  -0.483  -0.482  -0.479  -0.478  -0.477  -0.474
 -0.472  -0.471  -0.466  -0.466  -0.466  -0.464  -0.464  -0.464
 -0.463  -0.460  -0.459  -0.458  -0.457  -0.456  -0.454  -0.454
 -0.452  -0.447  -0.445  -0.444  -0.441  -0.436  -0.433  -0.430
 -0.422  -0.420  -0.419  -0.414  -0.410  -0.408  -0.407  -0.405
 -0.403  -0.401  -0.400  -0.395  -0.394  -0.394  -0.389  -0.388
 -0.382  -0.377  -0.376  -0.375  -0.374  -0.373  -0.373  -0.369
 -0.364  -0.364  -0.358  -0.352  -0.350  -0.348  -0.345  -0.345
 -0.342  -0.335  -0.323  -0.323  -0.321  -0.309  -0.307  -0.297
 -0.290  -0.282  -0.280  -0.277  -0.274  -0.274  -0.260  -0.257
 -0.249  -0.243  -0.232  -0.228  -0.200  -0.141

 Beta MOs
 -- Occupied --
-14.777 -14.648 -10.562 -10.550 -10.549 -10.506 -10.505 -10.505
-10.505 -10.500 -10.499 -10.499 -10.499 -10.499 -10.498 -10.496
-10.494 -10.494 -10.493 -10.481 -10.472 -10.472 -10.456 -10.450
-10.444 -10.444 -10.443 -10.443 -10.442 -10.441 -10.440 -10.440
-10.440 -10.439 -10.439 -10.438 -10.438 -10.437 -10.437 -10.437
-10.436 -10.435 -10.435 -10.430 -10.430 -10.429 -10.429 -10.429
-10.429 -10.428 -10.427 -10.426 -10.426 -10.425 -10.425 -10.425
-10.425 -10.424 -10.424 -10.424 -10.423 -10.423 -10.422 -10.422
-10.422 -10.420 -10.412 -10.411 -10.408 -10.403 -10.402 -10.401
-10.397 -10.394 -10.394 -10.392  -6.892  -6.887  -1.171  -1.059
 -1.019  -1.017  -0.995  -0.990  -0.988  -0.941  -0.936  -0.932
 -0.929  -0.923  -0.917  -0.916  -0.911  -0.909  -0.907  -0.895
 -0.894  -0.878  -0.870  -0.859  -0.856  -0.838  -0.837  -0.832
 -0.827  -0.825  -0.824  -0.823  -0.818  -0.818  -0.803  -0.791
 -0.791  -0.788  -0.785  -0.773  -0.769  -0.767  -0.764  -0.742
 -0.739  -0.736  -0.727  -0.708  -0.705  -0.702  -0.694  -0.693
 -0.689  -0.686  -0.679  -0.677  -0.665  -0.661  -0.657  -0.656
 -0.654  -0.647  -0.639  -0.637  -0.623  -0.619  -0.617  -0.616
 -0.611  -0.606  -0.602  -0.590  -0.588  -0.575  -0.572  -0.570
 -0.568  -0.565  -0.562  -0.560  -0.557  -0.552  -0.550  -0.548
 -0.546  -0.541  -0.541  -0.537  -0.529  -0.524  -0.522  -0.518
 -0.515  -0.514  -0.507  -0.503  -0.502  -0.500  -0.498  -0.495
 -0.492  -0.490  -0.485  -0.481  -0.478  -0.478  -0.476  -0.474
 -0.472  -0.472  -0.471  -0.467  -0.466  -0.465  -0.464  -0.464
 -0.463  -0.460  -0.459  -0.457  -0.457  -0.456  -0.454  -0.454
 -0.453  -0.450  -0.445  -0.443  -0.441  -0.435  -0.435  -0.429
 -0.422  -0.421  -0.419  -0.414  -0.410  -0.408  -0.408  -0.406
 -0.404  -0.401  -0.401  -0.398  -0.394  -0.394  -0.392  -0.388
 -0.382  -0.377  -0.376  -0.374  -0.373  -0.372  -0.371  -0.369
 -0.365  -0.364  -0.361  -0.354  -0.352  -0.351  -0.347  -0.343
 -0.339  -0.337  -0.334  -0.327  -0.321  -0.313  -0.308  -0.290
 -0.286  -0.284  -0.282  -0.280  -0.274  -0.273  -0.271  -0.257
 -0.249  -0.248  -0.235  -0.229  -0.221  -0.200

          Ground-State Mulliken Net Atomic Charges

     Atom                 Charge (a.u.)    Spin (a.u.)
  --------------------------------------------------------
      1 N                    -0.599880      -0.289675
      2 C                     0.345383      -0.091190
      3 C                    -0.357954      -0.121594
      4 H                     0.267122       0.007563
      5 C                     0.091786       0.090075
      6 C                     0.258731       0.061707
      7 C                    -0.255071      -0.074531
      8 H                     0.267593       0.003933
      9 C                    -0.218686       0.051343
     10 H                     0.247757      -0.002928
     11 C                    -0.216096      -0.079053
     12 H                     0.245378       0.004412
     13 C                    -0.216742       0.047160
     14 H                     0.245955      -0.002460
     15 C                    -0.252237      -0.071287
     16 H                     0.261413       0.003816
     17 C                     0.239893       0.058565
     18 C                    -0.247672      -0.066682
     19 H                     0.258062       0.003604
     20 C                    -0.218015       0.043812
     21 H                     0.245115      -0.002288
     22 C                    -0.215502      -0.074117
     23 H                     0.245977       0.004135
     24 C                    -0.219207       0.048280
     25 H                     0.252637      -0.002810
     26 C                    -0.248623      -0.070877
     27 H                     0.271119       0.003772
     28 C                    -0.359722      -0.112549
     29 H                     0.268694       0.007082
     30 C                     0.064051       0.085850
     31 C                    -0.125324      -0.444265
     32 C                    -0.749220      -0.004389
     33 H                     0.229056       0.002803
     34 H                     0.275646       0.001336
     35 H                     0.282526      -0.001668
     36 C                    -0.540472       0.000464
     37 H                     0.293996      -0.001498
     38 H                     0.225749       0.001342
     39 C                    -0.654938      -0.000200
     40 H                     0.273033      -0.000577
     41 H                     0.233903      -0.000502
     42 H                     0.201707      -0.000007
     43 B                     0.507294       0.405319
     44 C                    -0.112494      -0.045597
     45 C                    -0.418149       0.014954
     46 H                     0.182706      -0.001559
     47 C                     0.082239       0.006549
     48 C                     0.099910       0.112811
     49 C                    -0.392900      -0.073545
     50 H                     0.218579       0.003147
     51 C                    -0.148706       0.082016
     52 C                     0.195196      -0.034333
     53 C                    -0.389452       0.054297
     54 H                     0.194152      -0.003268
     55 C                    -0.073343       0.021516
     56 C                     0.255307      -0.034343
     57 C                     0.196482      -0.060009
     58 C                    -0.391568       0.086013
     59 H                     0.210860      -0.005114
     60 C                    -0.202457      -0.037985
     61 H                     0.210769       0.001936
     62 C                    -0.342981       0.051544
     63 H                     0.209262      -0.003038
     64 C                    -0.199252      -0.052476
     65 H                     0.215624       0.002570
     66 C                    -0.347094       0.077593
     67 H                     0.209169      -0.004676
     68 C                    -0.123268      -0.030998
     69 C                    -0.383337       0.003317
     70 H                     0.167763       0.000590
     71 C                     0.082488       0.015851
     72 C                     0.094002       0.114120
     73 C                    -0.412339      -0.075411
     74 H                     0.224401       0.003059
     75 C                    -0.141600       0.084126
     76 C                     0.200902      -0.038195
     77 C                    -0.389954       0.061317
     78 H                     0.181531      -0.003777
     79 C                    -0.076016       0.023286
     80 C                     0.252223      -0.037386
     81 C                     0.199845      -0.062055
     82 C                    -0.396564       0.090588
     83 H                     0.212501      -0.005383
     84 C                    -0.201375      -0.042166
     85 H                     0.206594       0.002150
     86 C                    -0.342472       0.058078
     87 H                     0.209011      -0.003434
     88 C                    -0.198264      -0.055259
     89 H                     0.216868       0.002703
     90 C                    -0.346660       0.081658
     91 H                     0.209133      -0.004917
     92 B                     0.587222       0.255146
     93 C                    -0.188213      -0.024866
     94 C                     0.063612       0.004117
     95 C                    -0.331185      -0.001455
     96 H                     0.219053       0.000361
     97 C                     0.252724       0.001225
     98 C                    -0.335389      -0.001332
     99 H                     0.220619       0.000357
    100 C                     0.043028       0.003851
    101 N                    -0.673992      -0.000621
    102 C                     0.319006       0.000094
    103 C                    -0.290920      -0.000133
    104 H                     0.245679       0.000007
    105 C                    -0.213190       0.000092
    106 H                     0.213840      -0.000004
    107 C                    -0.242821      -0.000185
    108 H                     0.210606       0.000010
    109 C                    -0.209944       0.000105
    110 H                     0.211566      -0.000005
    111 C                    -0.286958      -0.000153
    112 H                     0.248055       0.000005
    113 C                     0.317156       0.000085
    114 C                    -0.291795      -0.000125
    115 H                     0.246060       0.000006
    116 C                    -0.213617       0.000088
    117 H                     0.214243      -0.000004
    118 C                    -0.242124      -0.000175
    119 H                     0.210916       0.000009
    120 C                    -0.211009       0.000106
    121 H                     0.213875      -0.000005
    122 C                    -0.284353      -0.000153
    123 H                     0.245159       0.000005
    124 C                    -0.755462       0.000585
    125 H                     0.226704       0.001472
    126 H                     0.244988      -0.000418
    127 H                     0.246119      -0.000999
    128 C                    -0.538646       0.002814
    129 H                     0.255585      -0.001805
    130 H                     0.221494       0.000316
    131 C                    -0.645819      -0.000243
    132 H                     0.248329      -0.000205
    133 H                     0.209880      -0.000065
    134 H                     0.208434       0.000003
  --------------------------------------------------------
  Sum of atomic charges =    -0.000000

                    Cartesian Multipole Moments
 -----------------------------------------------------------------
    Charge (ESU x 10^10)
                -0.0000
    Dipole Moment (Debye)
         X       0.8807      Y      -0.0934      Z     -22.4991
       Tot      22.5165
    Quadrupole Moments (Debye-Ang)
        XX    -438.0961     XY       6.2078     YY    -447.0425
        XZ      -0.2221     YZ       4.3508     ZZ    -616.5764

 Total job time:  78242.42s(wall), 237793.99s(cpu)
        *  Thank you very much for using Q-Chem.  Have a nice day.  *
