 Q-Chem 5.0, Q-Chem, Inc., Pleasanton, CA (2017)
 Q-Chem 5.0.1 for Intel X86 EM64T Linux

User input:
--------------------------------------------------------------
$rem
threads 8
jobtype opt
method PBEh-3c
basis def2-mSVP
mem_static      1024
mem_total       8000
sym_ignore      true
unrestricted true
scf_algorithm	diis
scf_max_cycles	2500
solvent_method  pcm
geom_opt_tol_energy 25
geom_opt_tol_gradient 75
$end

$pcm
theory  iefpcm
$end

$solvent
dielectric      8.93
$end

$molecule
read uincoords.mol
$end
--------------------------------------------------------------

   20   -3006.2935500244      9.63E-09 Convergence criterion met
 Total energy in the final basis set = -3006.29355002
   18   -3006.2935868348      7.47E-09 Convergence criterion met
 Total energy in the final basis set = -3006.29358683
   18   -3006.2930720898      6.73E-09 Convergence criterion met
 Total energy in the final basis set = -3006.29307209
   18   -3006.2936945016      6.51E-09 Convergence criterion met
 Total energy in the final basis set = -3006.29369450
   19   -3006.2933740415      6.45E-09 Convergence criterion met
 Total energy in the final basis set = -3006.29337404
   18   -3006.2937541377      9.76E-09 Convergence criterion met
 Total energy in the final basis set = -3006.29375414
   18   -3006.2937246962      7.89E-09 Convergence criterion met
 Total energy in the final basis set = -3006.29372470
   18   -3006.2937215123      8.02E-09 Convergence criterion met
   18   -3006.2936837709      8.52E-09 Convergence criterion met
 Total energy in the final basis set = -3006.29368377
   18   -3006.2936524547      8.80E-09 Convergence criterion met
 Total energy in the final basis set = -3006.29365245
   18   -3006.2936343920      8.94E-09 Convergence criterion met
 Total energy in the final basis set = -3006.29363439
   18   -3006.2936272565      8.94E-09 Convergence criterion met
 Total energy in the final basis set = -3006.29362726
   18   -3006.2936243498      8.93E-09 Convergence criterion met
 Total energy in the final basis set = -3006.29362435
   18   -3006.2936226254      8.97E-09 Convergence criterion met
 Total energy in the final basis set = -3006.29362263

             Standard Nuclear Orientation (Angstroms)
    I     Atom           X                Y                Z
 ----------------------------------------------------------------
    1      N       0.2252391700    -0.0787496450     0.0048494230
    2      C       0.1815488542    -0.0183911111     1.3757460466
    3      C       1.3725316794     0.0315332892     2.1215268069
    4      H       2.3273648071    -0.0094635669     1.6117887869
    5      C       1.3270470582     0.0441568100     3.4980766211
    6      C       1.2705576072     0.5337662238    -0.7116216327
    7      C       1.6857520036     1.8188919051    -0.3618186676
    8      H       1.1942225521     2.3508202927     0.4424037822
    9      C       2.7067967878     2.4184676873    -1.0767432911
   10      H       3.0235244572     3.4190578679    -0.8162949079
   11      C       3.3089335573     1.7468588464    -2.1335278364
   12      H       4.1065992852     2.2201014129    -2.6901795039
   13      C       2.8848347898     0.4692509453    -2.4811813915
   14      H       3.3577731259    -0.0568269982    -3.2993219583
   15      C       1.8638596439    -0.1423858707    -1.7780843685
   16      H       1.5454818613    -1.1440733887    -2.0362917399
   17      C      -0.7772926874    -0.7615632817    -0.7121777845
   18      C      -1.3283690210    -0.1821818147    -1.8550283296
   19      H      -1.0064930075     0.7974969788    -2.1834418989
   20      C      -2.3169572780    -0.8584158027    -2.5465787532
   21      H      -2.7580123285    -0.4054398820    -3.4241185615
   22      C      -2.7512339240    -2.1055549106    -2.1122690383
   23      H      -3.5245156254    -2.6287045036    -2.6587576886
   24      C      -2.1903219939    -2.6821993807    -0.9797899529
   25      H      -2.5144597330    -3.6593471752    -0.6483664226
   26      C      -1.2021521251    -2.0171837592    -0.2762114078
   27      H      -0.7462160668    -2.4775272473     0.5908725485
   28      C      -1.0616094736    -0.0244558746     2.0375688043
   29      H      -1.9775490136    -0.0152664530     1.4600298488
   30      C      -1.1125667638     0.0055983315     3.4105235795
   31      C       0.0838787232     0.0213177356     4.1706790545
   32      C      -2.4408435551     0.0092897095     4.1061698123
   33      H      -3.2663587009     0.0180669127     3.3955012600
   34      H      -2.5430936208     0.8773874775     4.7586009418
   35      H      -2.5485692625    -0.8733836151     4.7392862901
   36      C       2.6198229289     0.0917975630     4.2639576293
   37      H       2.5043997378    -0.4146327233     5.2240691912
   38      H       3.3895734590    -0.4535741196     3.7130411661
   39      C       3.0810993954     1.5295993567     4.4928334866
   40      H       2.3503145158     2.0875468751     5.0781762978
   41      H       4.0273221440     1.5495463405     5.0335562106
   42      H       3.2229664068     2.0504591053     3.5447607715
   43      B       0.0047933542    -0.0907768907     5.7452789826
   44      C      -0.1217663653     1.1470481304     6.6292858335
   45      C      -0.2141641164     2.4348554250     6.0602875243
   46      H      -0.1825749063     2.5472378738     4.9802554362
   47      C      -0.3536355936     3.5429802794     6.8563779963
   48      C      -0.3967789188     3.4073527430     8.2764154103
   49      C      -0.3000486298     2.1597205449     8.8496596290
   50      H      -0.3365320560     2.0559845068     9.9292981847
   51      C      -0.1717163913     1.0028203929     8.0508356005
   52      C      -0.4982154994     4.9559384840     6.5269653231
   53      C      -0.5446800180     5.6786628975     5.3608107567
   54      H      -0.4543977473     5.2050219865     4.3905217529
   55      C      -0.6280101058     5.6364170230     7.7536699089
   56      C      -0.8090079888     7.0115591861     7.8644061083
   57      C      -0.5719950613     4.7418798147     8.8445421900
   58      C      -0.7002721617     5.2560908523    10.1105143386
   59      H      -0.6693468729     4.6242906357    10.9897187231
   60      C      -0.7216927060     7.0786910935     5.4444220805
   61      H      -0.7597919853     7.6508191603     4.5259031977
   62      C      -0.8513558589     7.7372723719     6.6473151332
   63      H      -0.9891702013     8.8115539468     6.6617849541
   64      C      -0.8825746606     6.6519512354    10.2553911086
   65      H      -0.9845744492     7.0553779695    11.2548122693
   66      C      -0.9377353738     7.5142002308     9.1825789669
   67      H      -1.0826816357     8.5748324069     9.3472165642
   68      C       0.0175500018    -1.4880206338     6.3677799159
   69      C       0.0588083527    -2.6386380933     5.5536428803
   70      H       0.0903347988    -2.5381200624     4.4731336696
   71      C       0.0507614008    -3.8894230087     6.1133278594
   72      C       0.0147727318    -4.0504228629     7.5319634358
   73      C      -0.0208664163    -2.9393367687     8.3413542855
   74      H      -0.0521208771    -3.0548908139     9.4202715500
   75      C      -0.0299896386    -1.6404055182     7.7874432381
   76      C       0.0670393916    -5.2156153607     5.5025022350
   77      C       0.0936350624    -5.6968698455     4.2154966110
   78      H       0.1125448177    -5.0352918441     3.3578002934
   79      C       0.0413578381    -6.1392813518     6.5657378850
   80      C       0.0412534581    -7.5236725414     6.3940945786
   81      C       0.0105969689    -5.4872121884     7.8169778809
   82      C      -0.0205018092    -6.2678866863     8.9476526210
   83      H      -0.0462168411    -5.8358133332     9.9402444539
   84      C       0.0946404325    -7.0971514826     4.0134386105
   85      H       0.1151001424    -7.4734004667     2.9982002383
   86      C       0.0696716696    -7.9942496376     5.0577819045
   87      H       0.0706725129    -9.0592629041     4.8582922424
   88      C      -0.0197569738    -7.6764725897     8.8040912862
   89      H      -0.0444805308    -8.2840560468     9.6999547005
   90      C       0.0098716615    -8.3010343971     7.5774929387
   91      H       0.0079465731    -9.3828366788     7.5173785961
   92      B      -0.1113855136    -0.3996571227     8.6899929010
   93      C      -0.1270350133    -0.5401131753    10.2645357971
   94      C      -1.3220778386    -0.4813958119    10.9929236792
   95      C      -1.2984846499    -0.5220748339    12.3834365500
   96      H      -2.2279141095    -0.4688849112    12.9411421020
   97      C      -0.0960602597    -0.6053957174    13.0681347950
   98      C       1.0930065971    -0.6884355685    12.3537235332
   99      H       2.0345570866    -0.7564270397    12.8873708204
  100      C       1.0832619411    -0.6671946331    10.9645934180
  101      N      -0.0814739613    -0.5871743194    14.4831970839
  102      C      -0.6826111242     0.4860712090    15.1500102668
  103      C      -1.3228715859     0.3076122933    16.3788754956
  104      H      -1.3567438362    -0.6736874915    16.8348329890
  105      C      -1.9264233618     1.3789545924    17.0176587544
  106      H      -2.4178196887     1.2159763577    17.9685897468
  107      C      -1.9263805970     2.6424501921    16.4417940817
  108      H      -2.4077179914     3.4738244460    16.9394006241
  109      C      -1.3019705166     2.8200457095    15.2145271310
  110      H      -1.2883545549     3.7971105633    14.7480585128
  111      C      -0.6789730817     1.7602031133    14.5760433187
  112      H      -0.1906504588     1.9229414612    13.6238165341
  113      C       0.5612090268    -1.6294033904    15.1621023373
  114      C       1.3106502554    -1.3899374248    16.3153622761
  115      H       1.3998067018    -0.3833395667    16.7033442390
  116      C       1.9512744189    -2.4340394909    16.9635178105
  117      H       2.5285832068    -2.2265026024    17.8556047754
  118      C       1.8781463555    -3.7289772110    16.4677047457
  119      H       2.3877861987    -4.5394603820    16.9717158411
  120      C       1.1446154990    -3.9675856520    15.3131667725
  121      H       1.0736963815    -4.9709480295    14.9124968998
  122      C       0.4846018910    -2.9339630790    14.6683999494
  123      H      -0.0913297284    -3.1396818283    13.7749184941
  124      C       2.3814100150    -0.7568341535    10.2104431379
  125      H       3.2393366651    -0.7568773465    10.8828025663
  126      H       2.4273178266    -1.6693747097     9.6125241304
  127      H       2.5002140457     0.0773268234     9.5158250588
  128      C      -2.6570406695    -0.4294760554    10.2929806626
  129      H      -2.5658487728     0.1104981161     9.3476281215
  130      H      -3.3694208271     0.1339879375    10.9013555823
  131      C      -3.2220305600    -1.8225265399    10.0210274015
  132      H      -2.5567668472    -2.3955195806     9.3746912298
  133      H      -3.3512373469    -2.3825057097    10.9483760154
  134      H      -4.1935238870    -1.7608237087     9.5283946416
 ----------------------------------------------------------------

   18   -3006.2936202045      8.90E-09 Convergence criterion met
 Total energy in the final basis set = -3006.29362020
 Final energy is   -3006.29362020445
 **  OPTIMIZATION CONVERGED  **

                    Orbital Energies (a.u.)
 --------------------------------------------------------------

 Alpha MOs
 -- Occupied --
-14.767 -14.667 -10.533 -10.527 -10.526 -10.491 -10.490 -10.481
-10.481 -10.481 -10.481 -10.476 -10.476 -10.475 -10.474 -10.474
-10.474 -10.473 -10.471 -10.471 -10.471 -10.471 -10.459 -10.457
-10.457 -10.453 -10.453 -10.453 -10.453 -10.452 -10.452 -10.452
-10.451 -10.451 -10.451 -10.451 -10.450 -10.450 -10.450 -10.450
-10.449 -10.446 -10.446 -10.446 -10.445 -10.444 -10.444 -10.444
-10.444 -10.443 -10.443 -10.442 -10.442 -10.441 -10.441 -10.440
-10.440 -10.440 -10.439 -10.439 -10.439 -10.438 -10.438 -10.437
-10.432 -10.431 -10.430 -10.425 -10.424 -10.418 -10.414 -10.414
-10.414 -10.412 -10.411 -10.411  -6.906  -6.903  -1.155  -1.077
 -1.004  -1.004  -0.995  -0.994  -0.973  -0.958  -0.955  -0.947
 -0.945  -0.935  -0.923  -0.923  -0.905  -0.898  -0.890  -0.885
 -0.884  -0.875  -0.869  -0.868  -0.856  -0.849  -0.842  -0.841
 -0.839  -0.837  -0.837  -0.835  -0.834  -0.822  -0.809  -0.807
 -0.801  -0.799  -0.789  -0.787  -0.787  -0.757  -0.748  -0.742
 -0.721  -0.720  -0.718  -0.716  -0.713  -0.708  -0.706  -0.705
 -0.703  -0.696  -0.678  -0.677  -0.673  -0.669  -0.667  -0.660
 -0.658  -0.652  -0.637  -0.636  -0.632  -0.632  -0.629  -0.620
 -0.604  -0.595  -0.586  -0.584  -0.583  -0.581  -0.581  -0.578
 -0.577  -0.571  -0.563  -0.563  -0.557  -0.554  -0.552  -0.547
 -0.541  -0.540  -0.531  -0.531  -0.525  -0.522  -0.517  -0.515
 -0.515  -0.514  -0.510  -0.510  -0.508  -0.505  -0.497  -0.495
 -0.494  -0.494  -0.491  -0.490  -0.488  -0.485  -0.480  -0.480
 -0.479  -0.478  -0.478  -0.477  -0.476  -0.475  -0.473  -0.472
 -0.469  -0.467  -0.463  -0.461  -0.457  -0.454  -0.453  -0.451
 -0.448  -0.445  -0.443  -0.441  -0.439  -0.437  -0.436  -0.431
 -0.429  -0.428  -0.426  -0.425  -0.424  -0.423  -0.419  -0.418
 -0.414  -0.414  -0.411  -0.408  -0.403  -0.398  -0.397  -0.394
 -0.393  -0.392  -0.389  -0.389  -0.388  -0.387  -0.384  -0.383
 -0.380  -0.377  -0.369  -0.362  -0.360  -0.354  -0.352  -0.339
 -0.336  -0.336  -0.330  -0.324  -0.322  -0.313  -0.312  -0.307
 -0.306  -0.301  -0.299  -0.293  -0.291  -0.289  -0.277  -0.275
 -0.269  -0.268  -0.257  -0.247  -0.245  -0.219  -0.154

 Beta MOs
 -- Occupied --
-14.756 -14.667 -10.534 -10.528 -10.528 -10.491 -10.490 -10.480
-10.479 -10.479 -10.479 -10.478 -10.476 -10.475 -10.473 -10.473
-10.473 -10.472 -10.472 -10.472 -10.472 -10.472 -10.458 -10.457
-10.455 -10.454 -10.454 -10.453 -10.453 -10.452 -10.452 -10.452
-10.451 -10.451 -10.451 -10.450 -10.450 -10.450 -10.450 -10.449
-10.449 -10.446 -10.446 -10.446 -10.445 -10.444 -10.443 -10.443
-10.443 -10.443 -10.442 -10.442 -10.442 -10.441 -10.441 -10.440
-10.440 -10.440 -10.439 -10.439 -10.439 -10.439 -10.438 -10.437
-10.432 -10.431 -10.430 -10.425 -10.424 -10.418 -10.414 -10.413
-10.413 -10.412 -10.411 -10.410  -6.903  -6.901  -1.138  -1.077
 -1.004  -1.004  -0.992  -0.991  -0.968  -0.958  -0.955  -0.945
 -0.944  -0.935  -0.923  -0.923  -0.904  -0.894  -0.889  -0.884
 -0.883  -0.875  -0.867  -0.867  -0.855  -0.849  -0.841  -0.840
 -0.836  -0.836  -0.835  -0.835  -0.834  -0.816  -0.808  -0.804
 -0.800  -0.798  -0.787  -0.787  -0.783  -0.757  -0.743  -0.739
 -0.720  -0.718  -0.716  -0.714  -0.711  -0.707  -0.706  -0.704
 -0.703  -0.696  -0.677  -0.677  -0.671  -0.667  -0.667  -0.658
 -0.656  -0.649  -0.636  -0.634  -0.632  -0.632  -0.628  -0.617
 -0.604  -0.592  -0.583  -0.582  -0.581  -0.580  -0.579  -0.575
 -0.571  -0.568  -0.562  -0.562  -0.557  -0.551  -0.550  -0.546
 -0.540  -0.539  -0.530  -0.530  -0.524  -0.520  -0.517  -0.515
 -0.515  -0.512  -0.509  -0.509  -0.507  -0.503  -0.496  -0.494
 -0.494  -0.492  -0.489  -0.488  -0.487  -0.483  -0.480  -0.479
 -0.478  -0.478  -0.475  -0.475  -0.474  -0.473  -0.472  -0.468
 -0.467  -0.464  -0.461  -0.460  -0.455  -0.453  -0.452  -0.449
 -0.445  -0.443  -0.440  -0.439  -0.437  -0.435  -0.435  -0.430
 -0.428  -0.426  -0.425  -0.424  -0.423  -0.420  -0.418  -0.415
 -0.412  -0.411  -0.410  -0.408  -0.402  -0.398  -0.395  -0.393
 -0.392  -0.387  -0.387  -0.386  -0.386  -0.384  -0.382  -0.379
 -0.377  -0.369  -0.368  -0.359  -0.354  -0.352  -0.348  -0.337
 -0.330  -0.328  -0.324  -0.322  -0.319  -0.306  -0.302  -0.301
 -0.300  -0.299  -0.295  -0.293  -0.287  -0.287  -0.276  -0.269
 -0.264  -0.250  -0.244  -0.237  -0.219

          Ground-State Mulliken Net Atomic Charges

     Atom                 Charge (a.u.)    Spin (a.u.)
  --------------------------------------------------------
      1 N                    -0.570863       0.385951
      2 C                     0.325689      -0.007607
      3 C                    -0.344206       0.170174
      4 H                     0.288628      -0.008595
      5 C                     0.060037      -0.125743
      6 C                     0.259054      -0.076099
      7 C                    -0.258827       0.111814
      8 H                     0.294250      -0.005661
      9 C                    -0.239103      -0.077784
     10 H                     0.273622       0.004150
     11 C                    -0.230331       0.127630
     12 H                     0.272199      -0.006961
     13 C                    -0.237971      -0.072789
     14 H                     0.272960       0.003696
     15 C                    -0.261949       0.106324
     16 H                     0.290197      -0.005484
     17 C                     0.252203      -0.074799
     18 C                    -0.259250       0.103388
     19 H                     0.289304      -0.005346
     20 C                    -0.238572      -0.070669
     21 H                     0.272694       0.003614
     22 C                    -0.230207       0.123347
     23 H                     0.272133      -0.006727
     24 C                    -0.238387      -0.075298
     25 H                     0.273680       0.004039
     26 C                    -0.255981       0.108817
     27 H                     0.293335      -0.005528
     28 C                    -0.355320       0.156209
     29 H                     0.291108      -0.007749
     30 C                     0.047738      -0.119401
     31 C                    -0.148550       0.310810
     32 C                    -0.760498       0.009610
     33 H                     0.252591       0.001181
     34 H                     0.261431      -0.004523
     35 H                     0.264007      -0.003695
     36 C                    -0.543733       0.011430
     37 H                     0.272433      -0.003875
     38 H                     0.245774      -0.000640
     39 C                    -0.662001      -0.002550
     40 H                     0.247429      -0.000129
     41 H                     0.235516      -0.000457
     42 H                     0.218221      -0.000078
     43 B                     0.526441       0.326277
     44 C                    -0.128426       0.022896
     45 C                    -0.416588      -0.017506
     46 H                     0.219933      -0.000609
     47 C                     0.058574       0.044425
     48 C                     0.076404       0.087603
     49 C                    -0.411358      -0.053799
     50 H                     0.227281       0.002119
     51 C                    -0.147655       0.059567
     52 C                     0.173745      -0.045927
     53 C                    -0.406317       0.071620
     54 H                     0.236671      -0.004187
     55 C                    -0.078749       0.023540
     56 C                     0.221873      -0.038213
     57 C                     0.173555      -0.056224
     58 C                    -0.409727       0.084374
     59 H                     0.241564      -0.004920
     60 C                    -0.233286      -0.046916
     61 H                     0.247187       0.002287
     62 C                    -0.361574       0.066852
     63 H                     0.244529      -0.003882
     64 C                    -0.230679      -0.052873
     65 H                     0.247984       0.002544
     66 C                    -0.364920       0.077173
     67 H                     0.244543      -0.004514
     68 C                    -0.139236       0.029604
     69 C                    -0.403359      -0.020671
     70 H                     0.214614      -0.001085
     71 C                     0.058693       0.047700
     72 C                     0.070795       0.085275
     73 C                    -0.418728      -0.052084
     74 H                     0.230636       0.001917
     75 C                    -0.138980       0.055514
     76 C                     0.176436      -0.046729
     77 C                    -0.407305       0.073013
     78 H                     0.234432      -0.004281
     79 C                    -0.079287       0.023711
     80 C                     0.217742      -0.038487
     81 C                     0.177612      -0.055658
     82 C                    -0.413217       0.083663
     83 H                     0.241980      -0.004885
     84 C                    -0.232769      -0.047532
     85 H                     0.246661       0.002316
     86 C                    -0.360329       0.067642
     87 H                     0.244939      -0.003926
     88 C                    -0.230094      -0.052445
     89 H                     0.248580       0.002524
     90 C                    -0.362941       0.076168
     91 H                     0.244893      -0.004448
     92 B                     0.538727       0.283918
     93 C                    -0.180126      -0.026443
     94 C                     0.045972       0.004504
     95 C                    -0.347719      -0.001678
     96 H                     0.236584       0.000383
     97 C                     0.261448       0.001889
     98 C                    -0.357028      -0.001583
     99 H                     0.239025       0.000387
    100 C                     0.025966       0.004331
    101 N                    -0.672392      -0.000066
    102 C                     0.315477      -0.000043
    103 C                    -0.307923       0.000095
    104 H                     0.261183      -0.000005
    105 C                    -0.240609      -0.000068
    106 H                     0.245909       0.000003
    107 C                    -0.272737       0.000106
    108 H                     0.242151      -0.000006
    109 C                    -0.238927      -0.000067
    110 H                     0.245302       0.000003
    111 C                    -0.308903       0.000092
    112 H                     0.261691      -0.000007
    113 C                     0.310437      -0.000053
    114 C                    -0.304749       0.000103
    115 H                     0.261353      -0.000006
    116 C                    -0.241526      -0.000068
    117 H                     0.246624       0.000003
    118 C                    -0.270357       0.000110
    119 H                     0.243078      -0.000006
    120 C                    -0.239692      -0.000062
    121 H                     0.246484       0.000003
    122 C                    -0.305080       0.000084
    123 H                     0.259503      -0.000009
    124 C                    -0.763198       0.000623
    125 H                     0.242365       0.001514
    126 H                     0.244856      -0.000391
    127 H                     0.247456      -0.001079
    128 C                    -0.539859       0.003221
    129 H                     0.253743      -0.002087
    130 H                     0.232538       0.000380
    131 C                    -0.658942      -0.000251
    132 H                     0.239623      -0.000228
    133 H                     0.216734      -0.000076
    134 H                     0.222280       0.000005
  --------------------------------------------------------
  Sum of atomic charges =    -0.000000

                    Cartesian Multipole Moments
 -----------------------------------------------------------------
    Charge (ESU x 10^10)
                -0.0000
    Dipole Moment (Debye)
         X       1.2453      Y       0.6972      Z     -30.2541
       Tot      30.2878
    Quadrupole Moments (Debye-Ang)
        XX    -435.8224     XY       8.7827     YY    -431.8798
        XZ       2.4061     YZ       6.0294     ZZ    -653.6597

 Total job time:  77092.44s(wall), 224013.12s(cpu)
        *  Thank you very much for using Q-Chem.  Have a nice day.  *
