 Q-Chem 5.0, Q-Chem, Inc., Pleasanton, CA (2017)
 Q-Chem 5.0.1 for Intel X86 EM64T Linux

User input:
--------------------------------------------------------------
$rem
threads 8
jobtype opt
method PBEh-3c
basis def2-mSVP
mem_static      1024
mem_total       8000
sym_ignore      true
unrestricted true
scf_algorithm	diis
scf_max_cycles	250
solvent_method  pcm
geom_opt_tol_energy 25
geom_opt_tol_gradient 75
$end

$pcm
theory  iefpcm
$end
$solvent
dielectric      4.33
$end

$molecule
read uincoords.mol
$end
--------------------------------------------------------------

   21   -3006.2824848400      8.57E-09 Convergence criterion met
 Total energy in the final basis set = -3006.28248484
   18   -3006.2823833262      6.99E-09 Convergence criterion met
 Total energy in the final basis set = -3006.28238333
   17   -3006.2818352133      9.14E-09 Convergence criterion met
 Total energy in the final basis set = -3006.28183521
   17   -3006.2824473694      8.40E-09 Convergence criterion met
 Total energy in the final basis set = -3006.28244737
   19   -3006.2821298392      9.58E-09 Convergence criterion met
 Total energy in the final basis set = -3006.28212984
   17   -3006.2824968473      8.83E-09 Convergence criterion met
 Total energy in the final basis set = -3006.28249685
   17   -3006.2824450134      9.08E-09 Convergence criterion met
 Total energy in the final basis set = -3006.28244501
   17   -3006.2824562419      8.72E-09 Convergence criterion met
 Total energy in the final basis set = -3006.28245624
   17   -3006.2824205277      8.98E-09 Convergence criterion met
 Total energy in the final basis set = -3006.28242053
   17   -3006.2823858374      9.01E-09 Convergence criterion met
 Total energy in the final basis set = -3006.28238584
   17   -3006.2823677906      9.14E-09 Convergence criterion met
 Total energy in the final basis set = -3006.28236779
   17   -3006.2823612428      9.17E-09 Convergence criterion met
 Total energy in the final basis set = -3006.28236124

             Standard Nuclear Orientation (Angstroms)
    I     Atom           X                Y                Z
 ----------------------------------------------------------------
    1      N       0.2014994539    -0.0909866360     0.0092281392
    2      C       0.1696577765    -0.0219994141     1.3775282797
    3      C       1.3681282695     0.0276829800     2.1146302663
    4      H       2.3182315856    -0.0199444350     1.5967039875
    5      C       1.3349606619     0.0463527329     3.4900991866
    6      C       1.2534706361     0.4968731479    -0.7214475642
    7      C       1.6853054605     1.7818181304    -0.3948010700
    8      H       1.2054508487     2.3312222363     0.4047002328
    9      C       2.7100926749     2.3580013953    -1.1238487600
   10      H       3.0405874010     3.3583003630    -0.8799186464
   11      C       3.2987495520     1.6633233593    -2.1728005195
   12      H       4.0990951641     2.1183066583    -2.7405886474
   13      C       2.8574377993     0.3860203049    -2.4980086005
   14      H       3.3189208914    -0.1582341691    -3.3107566537
   15      C       1.8329725214    -0.2021839989    -1.7797179899
   16      H       1.4986113590    -1.2026329711    -2.0220886868
   17      C      -0.8206046424    -0.7574617274    -0.6987450366
   18      C      -1.3752582028    -0.1682905682    -1.8339997850
   19      H      -1.0400329313     0.8058395090    -2.1656003138
   20      C      -2.3817164885    -0.8282161228    -2.5157866449
   21      H      -2.8249732104    -0.3674167154    -3.3881258912
   22      C      -2.8307660529    -2.0686798512    -2.0785093768
   23      H      -3.6185040096    -2.5786011135    -2.6167203149
   24      C      -2.2662069021    -2.6554820936    -0.9536221254
   25      H      -2.6026161715    -3.6273244755    -0.6188907258
   26      C      -1.2592965063    -2.0069415746    -0.2609353775
   27      H      -0.8024016254    -2.4743295680     0.6018998578
   28      C      -1.0687379962    -0.0195025833     2.0512086446
   29      H      -1.9891609442    -0.0109152351     1.4809985932
   30      C      -1.1085494757     0.0187909657     3.4231460492
   31      C       0.0957460842     0.0325134099     4.1743272341
   32      C      -2.4291653618     0.0328030435     4.1316458931
   33      H      -3.2622115264     0.0325365326     3.4296664349
   34      H      -2.5233111177     0.9089463634     4.7743029363
   35      H      -2.5294796918    -0.8404733566     4.7787190321
   36      C       2.6324194274     0.0868486786     4.2474107523
   37      H       2.5232797697    -0.4321330308     5.2013479574
   38      H       3.3992633559    -0.4501327149     3.6841819669
   39      C       3.0918296970     1.5226211096     4.4925018351
   40      H       2.3661537548     2.0697095006     5.0937869322
   41      H       4.0425087102     1.5363398419     5.0252544625
   42      H       3.2244535395     2.0578533399     3.5510214888
   43      B       0.0272018267    -0.0748976750     5.7490732939
   44      C      -0.1025013290     1.1651780707     6.6276646646
   45      C      -0.1964997410     2.4519587667     6.0566026905
   46      H      -0.1647221791     2.5631125902     4.9762761949
   47      C      -0.3370457713     3.5609036882     6.8504986025
   48      C      -0.3802194897     3.4277780541     8.2702167131
   49      C      -0.2828049319     2.1811564519     8.8454279170
   50      H      -0.3192375360     2.0778050682     9.9250191926
   51      C      -0.1531644951     1.0236331860     8.0487971606
   52      C      -0.4827250642     4.9731923392     6.5184639494
   53      C      -0.5301826327     5.6938068671     5.3514599308
   54      H      -0.4400286061     5.2183137749     4.3820556717
   55      C      -0.6128378888     5.6558458110     7.7436278033
   56      C      -0.7948099217     7.0307586345     7.8518619701
   57      C      -0.5563368121     4.7630123563     8.8356838058
   58      C      -0.6853188635     5.2794258646    10.1002988564
   59      H      -0.6543636141     4.6488147881    10.9802456610
   60      C      -0.7081509982     7.0935759539     5.4321710687
   61      H      -0.7470618128     7.6641950499     4.5127062654
   62      C      -0.8378915304     7.7539711876     6.6336695846
   63      H      -0.9764596154     8.8281880085     6.6460550947
   64      C      -0.8684527930     6.6751560961    10.2428343965
   65      H      -0.9708895140     7.0802217247    11.2415528900
   66      C      -0.9239420941     7.5354537344     9.1689635749
   67      H      -1.0695252209     8.5962290199     9.3320370067
   68      C       0.0474989577    -1.4709634042     6.3711285054
   69      C       0.0983623772    -2.6232781270     5.5599106693
   70      H       0.1348686315    -2.5250456147     4.4791958405
   71      C       0.0938607143    -3.8724462537     6.1220460488
   72      C       0.0506018903    -4.0302493277     7.5403552854
   73      C       0.0068738824    -2.9174910798     8.3468550567
   74      H      -0.0292966443    -3.0298001854     9.4259089476
   75      C      -0.0044953734    -1.6203692402     7.7902703595
   76      C       0.1190512402    -5.2000666138     5.5145116801
   77      C       0.1555939908    -5.6848109926     4.2293655428
   78      H       0.1781853461    -5.0251753539     3.3702542851
   79      C       0.0900674073    -6.1213132709     6.5795033200
   80      C       0.0955514779    -7.5058428480     6.4114034824
   81      C       0.0494976209    -5.4660038778     7.8286033515
   82      C       0.0136256846    -6.2440008422     8.9606061870
   83      H      -0.0197756447    -5.8092089249     9.9517111123
   84      C       0.1626662732    -7.0851907264     4.0305073162
   85      H       0.1911197476    -7.4642503528     3.0164545076
   86      C       0.1340017439    -7.9794743550     5.0767439128
   87      H       0.1399118416    -9.0449434587     4.8797765302
   88      C       0.0195409260    -7.6526511150     8.8207688070
   89      H      -0.0091491786    -8.2580297335     9.7180089225
   90      C       0.0590695819    -8.2801769553     7.5963711272
   91      H       0.0608652769    -9.3621300624     7.5392400969
   92      B      -0.0930577887    -0.3779122843     8.6900025059
   93      C      -0.1160697723    -0.5192552212    10.2640067145
   94      C      -1.3148831413    -0.4659778953    10.9861625835
   95      C      -1.2981062908    -0.5160039854    12.3763066161
   96      H      -2.2300478708    -0.4675535874    12.9301513666
   97      C      -0.0992194290    -0.6036072019    13.0662534071
   98      C       1.0936937960    -0.6786490841    12.3576821607
   99      H       2.0320005714    -0.7501103441    12.8964666296
  100      C       1.0910189652    -0.6477401675    10.9689517449
  101      N      -0.0921174809    -0.6005650519    14.4817047877
  102      C      -0.7075773602     0.4595576835    15.1561364609
  103      C      -1.3665806200     0.2602499263    16.3715360824
  104      H      -1.4041549876    -0.7283284453    16.8110576290
  105      C      -1.9844582877     1.3193923298    17.0164803422
  106      H      -2.4906691839     1.1402123192    17.9566432467
  107      C      -1.9802678574     2.5910716834    16.4598042360
  108      H      -2.4728722451     3.4130627644    16.9618890458
  109      C      -1.3374453420     2.7892675037    15.2455021277
  110      H      -1.3209453485     3.7732238278    14.7939303301
  111      C      -0.7001619476     1.7419295787    14.6013240493
  112      H      -0.1979544745     1.9191765236    13.6590428772
  113      C       0.5371159752    -1.6547368838    15.1534463327
  114      C       1.2621087217    -1.4360329744    16.3263995778
  115      H       1.3427479817    -0.4361183534    16.7329900524
  116      C       1.8882422599    -2.4912451030    16.9699418825
  117      H       2.4463803702    -2.2992192596    17.8775635421
  118      C       1.8255864426    -3.7772742439    16.4507858994
  119      H       2.3240206482    -4.5966522644    16.9515254020
  120      C       1.1174613700    -3.9949875142    15.2767697913
  121      H       1.0554358731    -4.9910840108    14.8569805477
  122      C       0.4716081758    -2.9505412505    14.6358006268
  123      H      -0.0846301091    -3.1403377176    13.7266140334
  124      C       2.3923537740    -0.7290736806    10.2196038139
  125      H       3.2475651623    -0.7318200687    10.8954668551
  126      H       2.4429099780    -1.6369842669     9.6151120349
  127      H       2.5114105521     0.1104980701     9.5316485345
  128      C      -2.6459037635    -0.4100236541    10.2791882542
  129      H      -2.5508213551     0.1401071482     9.3401042642
  130      H      -3.3624344129     0.1463230624    10.8893480647
  131      C      -3.2068213876    -1.8010748592     9.9893559022
  132      H      -2.5389703894    -2.3648360962     9.3378275261
  133      H      -3.3376425439    -2.3725485864    10.9094696792
  134      H      -4.1769514288    -1.7355828527     9.4944360841
 ----------------------------------------------------------------

   17   -3006.2823597614      9.19E-09 Convergence criterion met
 Total energy in the final basis set = -3006.28235976
 Final energy is   -3006.28235976141
 **  OPTIMIZATION CONVERGED  **

                    Orbital Energies (a.u.)
 --------------------------------------------------------------

 Alpha MOs
 -- Occupied --
-14.769 -14.663 -10.539 -10.531 -10.530 -10.487 -10.486 -10.486
-10.485 -10.485 -10.485 -10.480 -10.479 -10.479 -10.478 -10.477
-10.477 -10.476 -10.476 -10.476 -10.475 -10.471 -10.463 -10.454
-10.453 -10.451 -10.450 -10.449 -10.449 -10.449 -10.449 -10.448
-10.448 -10.448 -10.448 -10.448 -10.447 -10.447 -10.447 -10.447
-10.446 -10.443 -10.442 -10.442 -10.442 -10.441 -10.440 -10.440
-10.439 -10.439 -10.439 -10.439 -10.438 -10.438 -10.437 -10.436
-10.436 -10.436 -10.435 -10.435 -10.435 -10.435 -10.433 -10.433
-10.432 -10.426 -10.426 -10.424 -10.421 -10.413 -10.410 -10.410
-10.410 -10.407 -10.406 -10.406  -6.903  -6.899  -1.158  -1.073
 -1.001  -1.000  -0.999  -0.998  -0.977  -0.955  -0.951  -0.943
 -0.941  -0.931  -0.920  -0.920  -0.908  -0.900  -0.889  -0.888
 -0.881  -0.873  -0.873  -0.870  -0.852  -0.846  -0.843  -0.838
 -0.837  -0.834  -0.834  -0.832  -0.831  -0.824  -0.804  -0.804
 -0.798  -0.796  -0.789  -0.785  -0.783  -0.753  -0.751  -0.746
 -0.722  -0.718  -0.718  -0.715  -0.713  -0.709  -0.704  -0.702
 -0.699  -0.692  -0.675  -0.674  -0.673  -0.668  -0.664  -0.662
 -0.657  -0.648  -0.640  -0.633  -0.629  -0.628  -0.624  -0.623
 -0.601  -0.598  -0.587  -0.586  -0.583  -0.580  -0.579  -0.578
 -0.574  -0.568  -0.560  -0.560  -0.557  -0.554  -0.553  -0.545
 -0.543  -0.536  -0.530  -0.528  -0.527  -0.526  -0.519  -0.515
 -0.514  -0.513  -0.512  -0.510  -0.506  -0.502  -0.498  -0.493
 -0.491  -0.491  -0.490  -0.487  -0.486  -0.483  -0.481  -0.477
 -0.476  -0.475  -0.475  -0.473  -0.472  -0.472  -0.471  -0.468
 -0.466  -0.465  -0.464  -0.457  -0.457  -0.455  -0.452  -0.450
 -0.450  -0.446  -0.445  -0.440  -0.439  -0.436  -0.432  -0.432
 -0.430  -0.428  -0.425  -0.424  -0.422  -0.420  -0.416  -0.415
 -0.411  -0.410  -0.408  -0.405  -0.401  -0.398  -0.395  -0.394
 -0.389  -0.389  -0.388  -0.385  -0.385  -0.384  -0.381  -0.379
 -0.377  -0.374  -0.365  -0.358  -0.356  -0.351  -0.348  -0.340
 -0.336  -0.334  -0.334  -0.326  -0.320  -0.314  -0.311  -0.308
 -0.302  -0.297  -0.295  -0.289  -0.288  -0.286  -0.273  -0.271
 -0.270  -0.264  -0.254  -0.243  -0.240  -0.215  -0.150

 Beta MOs
 -- Occupied --
-14.759 -14.663 -10.539 -10.532 -10.532 -10.487 -10.486 -10.484
-10.484 -10.484 -10.483 -10.481 -10.478 -10.477 -10.477 -10.477
-10.477 -10.477 -10.476 -10.476 -10.475 -10.471 -10.459 -10.454
-10.454 -10.450 -10.450 -10.450 -10.449 -10.449 -10.449 -10.449
-10.448 -10.448 -10.448 -10.447 -10.447 -10.447 -10.446 -10.446
-10.446 -10.443 -10.442 -10.442 -10.442 -10.440 -10.439 -10.439
-10.439 -10.439 -10.438 -10.438 -10.438 -10.437 -10.437 -10.436
-10.436 -10.436 -10.435 -10.435 -10.435 -10.435 -10.434 -10.433
-10.433 -10.426 -10.426 -10.424 -10.421 -10.413 -10.410 -10.410
-10.409 -10.407 -10.406 -10.406  -6.900  -6.897  -1.142  -1.073
 -1.000  -1.000  -0.997  -0.994  -0.972  -0.955  -0.950  -0.942
 -0.940  -0.931  -0.919  -0.919  -0.907  -0.896  -0.887  -0.886
 -0.880  -0.872  -0.871  -0.870  -0.851  -0.846  -0.839  -0.837
 -0.836  -0.833  -0.833  -0.832  -0.831  -0.818  -0.804  -0.801
 -0.797  -0.795  -0.785  -0.783  -0.782  -0.753  -0.746  -0.743
 -0.720  -0.717  -0.716  -0.713  -0.711  -0.708  -0.704  -0.702
 -0.699  -0.692  -0.674  -0.674  -0.672  -0.667  -0.664  -0.660
 -0.654  -0.646  -0.637  -0.633  -0.629  -0.628  -0.624  -0.621
 -0.601  -0.595  -0.583  -0.583  -0.579  -0.578  -0.577  -0.572
 -0.572  -0.568  -0.559  -0.559  -0.555  -0.554  -0.551  -0.544
 -0.542  -0.536  -0.529  -0.527  -0.526  -0.525  -0.517  -0.514
 -0.513  -0.512  -0.512  -0.509  -0.505  -0.501  -0.494  -0.492
 -0.491  -0.490  -0.487  -0.485  -0.485  -0.482  -0.477  -0.475
 -0.475  -0.475  -0.473  -0.472  -0.470  -0.470  -0.468  -0.467
 -0.465  -0.464  -0.462  -0.456  -0.455  -0.452  -0.450  -0.449
 -0.448  -0.444  -0.442  -0.439  -0.437  -0.435  -0.431  -0.430
 -0.429  -0.427  -0.424  -0.422  -0.422  -0.419  -0.415  -0.412
 -0.409  -0.407  -0.406  -0.405  -0.399  -0.396  -0.394  -0.389
 -0.388  -0.388  -0.384  -0.383  -0.382  -0.381  -0.379  -0.376
 -0.376  -0.370  -0.364  -0.355  -0.350  -0.348  -0.346  -0.335
 -0.333  -0.328  -0.326  -0.322  -0.318  -0.304  -0.302  -0.298
 -0.297  -0.296  -0.295  -0.289  -0.284  -0.283  -0.271  -0.264
 -0.260  -0.246  -0.240  -0.233  -0.215

          Ground-State Mulliken Net Atomic Charges

     Atom                 Charge (a.u.)    Spin (a.u.)
  --------------------------------------------------------
      1 N                    -0.575753       0.369485
      2 C                     0.328357       0.011453
      3 C                    -0.346601       0.164133
      4 H                     0.284192      -0.008418
      5 C                     0.065766      -0.121196
      6 C                     0.257156      -0.073935
      7 C                    -0.258032       0.104341
      8 H                     0.289208      -0.005317
      9 C                    -0.234984      -0.072455
     10 H                     0.269222       0.003921
     11 C                    -0.227547       0.117277
     12 H                     0.267399      -0.006422
     13 C                    -0.233783      -0.067291
     14 H                     0.267993       0.003429
     15 C                    -0.260592       0.098891
     16 H                     0.284188      -0.005139
     17 C                     0.250836      -0.072719
     18 C                    -0.258099       0.096499
     19 H                     0.283356      -0.005028
     20 C                    -0.234372      -0.065594
     21 H                     0.267693       0.003365
     22 C                    -0.227377       0.113939
     23 H                     0.267424      -0.006238
     24 C                    -0.234169      -0.070472
     25 H                     0.269715       0.003825
     26 C                    -0.255037       0.102027
     27 H                     0.288220      -0.005216
     28 C                    -0.357072       0.150335
     29 H                     0.286824      -0.007580
     30 C                     0.050127      -0.114998
     31 C                    -0.145174       0.331078
     32 C                    -0.758689       0.009359
     33 H                     0.247028       0.001213
     34 H                     0.265727      -0.004321
     35 H                     0.269286      -0.003415
     36 C                    -0.544009       0.010904
     37 H                     0.279214      -0.003783
     38 H                     0.241299      -0.000505
     39 C                    -0.660084      -0.002206
     40 H                     0.253690      -0.000180
     41 H                     0.236068      -0.000347
     42 H                     0.212393      -0.000108
     43 B                     0.529402       0.333720
     44 C                    -0.125064       0.017701
     45 C                    -0.415794      -0.012002
     46 H                     0.210143      -0.000952
     47 C                     0.064483       0.037708
     48 C                     0.082005       0.092766
     49 C                    -0.407272      -0.057442
     50 H                     0.224950       0.002340
     51 C                    -0.147989       0.063804
     52 C                     0.179280      -0.043768
     53 C                    -0.403668       0.068890
     54 H                     0.226018      -0.004058
     55 C                    -0.077527       0.023265
     56 C                     0.230098      -0.037778
     57 C                     0.179116      -0.057073
     58 C                    -0.406180       0.085262
     59 H                     0.234839      -0.004993
     60 C                    -0.226991      -0.045548
     61 H                     0.238599       0.002241
     62 C                    -0.358605       0.064600
     63 H                     0.236415      -0.003769
     64 C                    -0.224024      -0.053107
     65 H                     0.240665       0.002566
     66 C                    -0.362243       0.077897
     67 H                     0.236360      -0.004590
     68 C                    -0.136176       0.024734
     69 C                    -0.400093      -0.015653
     70 H                     0.203282      -0.001472
     71 C                     0.064819       0.041435
     72 C                     0.076365       0.091080
     73 C                    -0.416890      -0.056462
     74 H                     0.229371       0.002168
     75 C                    -0.138977       0.060973
     76 C                     0.182235      -0.044865
     77 C                    -0.404573       0.070906
     78 H                     0.222367      -0.004193
     79 C                    -0.078233       0.023625
     80 C                     0.226085      -0.038384
     81 C                     0.183100      -0.056851
     82 C                    -0.409967       0.085237
     83 H                     0.235589      -0.004996
     84 C                    -0.226332      -0.046572
     85 H                     0.237661       0.002290
     86 C                    -0.357553       0.066039
     87 H                     0.236762      -0.003852
     88 C                    -0.223465      -0.053076
     89 H                     0.241398       0.002564
     90 C                    -0.360379       0.077556
     91 H                     0.236643      -0.004563
     92 B                     0.552638       0.278112
     93 C                    -0.182776      -0.025891
     94 C                     0.050130       0.004390
     95 C                    -0.345047      -0.001626
     96 H                     0.232892       0.000375
     97 C                     0.259805       0.001833
     98 C                    -0.353086      -0.001536
     99 H                     0.235037       0.000382
    100 C                     0.030272       0.004256
    101 N                    -0.672876      -0.000056
    102 C                     0.315910      -0.000047
    103 C                    -0.305074       0.000097
    104 H                     0.258191      -0.000005
    105 C                    -0.235283      -0.000070
    106 H                     0.239050       0.000004
    107 C                    -0.266865       0.000109
    108 H                     0.235360      -0.000006
    109 C                    -0.233014      -0.000070
    110 H                     0.238246       0.000004
    111 C                    -0.303640       0.000095
    112 H                     0.259313      -0.000007
    113 C                     0.312620      -0.000055
    114 C                    -0.302180       0.000104
    115 H                     0.258384      -0.000006
    116 C                    -0.236009      -0.000070
    117 H                     0.239621       0.000003
    118 C                    -0.265145       0.000111
    119 H                     0.236071      -0.000007
    120 C                    -0.233880      -0.000064
    121 H                     0.239535       0.000004
    122 C                    -0.301221       0.000086
    123 H                     0.257313      -0.000009
    124 C                    -0.761939       0.000617
    125 H                     0.238020       0.001511
    126 H                     0.245642      -0.000393
    127 H                     0.248383      -0.001052
    128 C                    -0.540792       0.003141
    129 H                     0.255973      -0.002033
    130 H                     0.229651       0.000377
    131 C                    -0.656412      -0.000245
    132 H                     0.242945      -0.000226
    133 H                     0.214235      -0.000074
    134 H                     0.218938       0.000004
  --------------------------------------------------------
  Sum of atomic charges =    -0.000000

                    Cartesian Multipole Moments
 -----------------------------------------------------------------
    Charge (ESU x 10^10)
                -0.0000
    Dipole Moment (Debye)
         X       1.0184      Y       0.6326      Z     -28.7873
       Tot      28.8123
    Quadrupole Moments (Debye-Ang)
        XX    -436.4426     XY       8.8371     YY    -437.6826
        XZ       1.5791     YZ       5.5947     ZZ    -648.5537

 Total job time:  56114.52s(wall), 176587.17s(cpu)
        *  Thank you very much for using Q-Chem.  Have a nice day.  *
