 Q-Chem 5.0, Q-Chem, Inc., Pleasanton, CA (2017)
 Q-Chem 5.0.1 for Intel X86 EM64T Linux

User input:
--------------------------------------------------------------
$rem
threads 8
jobtype opt
method PBEh-3c
basis def2-mSVP
mem_static      1024
mem_total       8000
sym_ignore      true
unrestricted true
scf_algorithm   diis
scf_max_cycles  250
solvent_method  pcm
geom_opt_tol_energy 25
geom_opt_tol_gradient 75
$end

$pcm
theory  iefpcm
$end

$solvent
dielectric      1.0001
$end

$molecule
read uincoords.mol
$end

--------------------------------------------------------------

   22   -3006.2415629337      8.47E-09 Convergence criterion met
 Total energy in the final basis set = -3006.24156293
   16   -3006.2413374738      8.33E-09 Convergence criterion met
 Total energy in the final basis set = -3006.24133747
   15   -3006.2406065752      9.59E-09 Convergence criterion met
 Total energy in the final basis set = -3006.24060658
   14   -3006.2414431914      9.29E-09 Convergence criterion met
 Total energy in the final basis set = -3006.24144319
   16   -3006.2409009210      7.15E-09 Convergence criterion met
 Total energy in the final basis set = -3006.24090092
   14   -3006.2415093735      8.92E-09 Convergence criterion met
 Total energy in the final basis set = -3006.24150937
   13   -3006.2414231224      8.31E-09 Convergence criterion met
 Total energy in the final basis set = -3006.24142312
   13   -3006.2413047695      8.68E-09 Convergence criterion met
   12   -3006.2407301985      9.35E-09 Convergence criterion met
 Total energy in the final basis set = -3006.24073020
   13   -3006.2406392164      6.44E-09 Convergence criterion met
 Total energy in the final basis set = -3006.24063922
   11   -3006.2406287178      8.03E-09 Convergence criterion met
 Total energy in the final basis set = -3006.24062872
   10   -3006.2406646889      8.65E-09 Convergence criterion met
 Total energy in the final basis set = -3006.24066469
   10   -3006.2406870794      6.34E-09 Convergence criterion met
 Total energy in the final basis set = -3006.24068708
    9   -3006.2406893533      7.53E-09 Convergence criterion met
 Total energy in the final basis set = -3006.24068935

             Standard Nuclear Orientation (Angstroms)
    I     Atom           X                Y                Z
 ----------------------------------------------------------------
    1      N       0.2292067414    -0.2772510745     0.0723590913
    2      C       0.2160590589    -0.0250546009     1.4121791683
    3      C       1.4219241511     0.0313610356     2.1467978518
    4      H       2.3646802952    -0.1257607383     1.6383710115
    5      C       1.3966308407     0.1761275981     3.5096220996
    6      C       1.3517946791     0.0279733103    -0.7320648986
    7      C       1.9513236121     1.2808970762    -0.6428414677
    8      H       1.5599102289     2.0228782487     0.0411942105
    9      C       3.0377911985     1.5738706328    -1.4494239495
   10      H       3.5021119286     2.5482688096    -1.3844423895
   11      C       3.5176707040     0.6307793647    -2.3467840451
   12      H       4.3644496135     0.8653636995    -2.9772786566
   13      C       2.9075940396    -0.6128808775    -2.4386221136
   14      H       3.2812145394    -1.3516856706    -3.1344489674
   15      C       1.8240842041    -0.9193921121    -1.6355722317
   16      H       1.3520663320    -1.8911055536    -1.6999171160
   17      C      -0.8779717530    -0.8995057363    -0.5564395578
   18      C      -1.3895750842    -0.3699408576    -1.7369065967
   19      H      -0.9547126738     0.5234406131    -2.1660728332
   20      C      -2.4671168825    -0.9863205828    -2.3486806480
   21      H      -2.8732738145    -0.5689368103    -3.2599993912
   22      C      -3.0310828282    -2.1267717008    -1.7934101004
   23      H      -3.8742291051    -2.6034360653    -2.2747767032
   24      C      -2.5094117111    -2.6573379081    -0.6225884098
   25      H      -2.9370247172    -3.5523503463    -0.1915785644
   26      C      -1.4302888478    -2.0514459962    -0.0023894976
   27      H      -1.0145307778    -2.4756195050     0.9028869434
   28      C      -1.0177491175     0.1489073714     2.0803185678
   29      H      -1.9354192969     0.1664764373     1.5065201679
   30      C      -1.0548561676     0.3102637186     3.4388252940
   31      C       0.1519954398     0.2711713584     4.1977057930
   32      C      -2.3640583490     0.4770560285     4.1434460308
   33      H      -3.1993218327     0.4917523332     3.4440786312
   34      H      -2.3835606004     1.3974745036     4.7274252543
   35      H      -2.5200376990    -0.3390290307     4.8514922273
   36      C       2.6847819792     0.1932300320     4.2781327034
   37      H       2.5733470544    -0.3995726441     5.1879353633
   38      H       3.4702002411    -0.2816727963     3.6853731160
   39      C       3.1045895355     1.6163729707     4.6421671598
   40      H       2.3650645912     2.0949949052     5.2825442947
   41      H       4.0498041993     1.6051362411     5.1839447051
   42      H       3.2350506913     2.2312610959     3.7506069411
   43      B       0.0702508037     0.1338818758     5.7649721606
   44      C      -0.0945503819     1.3337096734     6.6857802461
   45      C      -0.1871006307     2.6468701211     6.1759581359
   46      H      -0.1174656718     2.8132629187     5.1037580211
   47      C      -0.3782139263     3.7102054785     7.0182805002
   48      C      -0.4694272365     3.5031600977     8.4250602582
   49      C      -0.3602531279     2.2321725254     8.9405752911
   50      H      -0.4254418218     2.0718845055    10.0115001071
   51      C      -0.1838645056     1.1199039632     8.0936336745
   52      C      -0.5508212181     5.1347411731     6.7535536032
   53      C      -0.5786360436     5.9135708078     5.6257502905
   54      H      -0.4374307642     5.4927888297     4.6374152797
   55      C      -0.7484396555     5.7477966671     8.0051148853
   56      C      -0.9817312514     7.1073027449     8.1769192961
   57      C      -0.7065508085     4.8007735166     9.0501396196
   58      C      -0.9057927379     5.2439763660    10.3317250962
   59      H      -0.8935282197     4.5667085923    11.1765694150
   60      C      -0.8059414657     7.3001550957     5.7703842614
   61      H      -0.8296043323     7.9170901056     4.8809161821
   62      C      -1.0033489593     7.8907120003     6.9973353391
   63      H      -1.1795728813     8.9575792034     7.0589691123
   64      C      -1.1406215372     6.6229102951    10.5395000077
   65      H      -1.2986885036     6.9705287126    11.5523572284
   66      C      -1.1809461424     7.5360540410     9.5113838955
   67      H      -1.3695622475     8.5811540800     9.7232926177
   68      C       0.0885756285    -1.2915659765     6.3115279565
   69      C       0.1639817201    -2.4058030844     5.4491379790
   70      H       0.2197478359    -2.2630759093     4.3737799472
   71      C       0.1601900517    -3.6775533942     5.9513825705
   72      C       0.0928710611    -3.9034151577     7.3579748942
   73      C       0.0229634767    -2.8294816629     8.2140350883
   74      H      -0.0313966221    -2.9868935147     9.2866562002
   75      C       0.0075295477    -1.5094598424     7.7188839656
   76      C       0.2064958937    -4.9733715347     5.2804196208
   77      C       0.2690786874    -5.3938549686     3.9750871755
   78      H       0.3058482484    -4.6908319121     3.1511552483
   79      C       0.1653159484    -5.9451808205     6.2976299891
   80      C       0.1824541963    -7.3188532255     6.0614364226
   81      C       0.0986028105    -5.3510065799     7.5755695586
   82      C       0.0495674116    -6.1844972255     8.6656027299
   83      H      -0.0033074625    -5.7992181057     9.6758726293
   84      C       0.2877923737    -6.7812466510     3.7066993046
   85      H       0.3373213926    -7.1112816580     2.6763808380
   86      C       0.2461173835    -7.7246025736     4.7068326894
   87      H       0.2620582305    -8.7788046170     4.4572101815
   88      C       0.0677858374    -7.5837877178     8.4569574420
   89      H       0.0288308572    -8.2325338183     9.3228268695
   90      C       0.1315336878    -8.1502019634     7.2056431721
   91      H       0.1419216600    -9.2279484713     7.0964389966
   92      B      -0.1138941292    -0.3099365874     8.6714836153
   93      C      -0.1447045500    -0.5113118486    10.2365543882
   94      C      -1.3442289849    -0.4911296505    10.9579867213
   95      C      -1.3245848644    -0.5615416777    12.3462818120
   96      H      -2.2544659309    -0.5308304471    12.9041782034
   97      C      -0.1235501955    -0.6376225674    13.0333051956
   98      C       1.0691289059    -0.6887094074    12.3235641034
   99      H       2.0075225663    -0.7536347442    12.8623984911
  100      C       1.0648100125    -0.6352430303    10.9365502740
  101      N      -0.1155118008    -0.6336421295    14.4485522095
  102      C      -0.7165531880     0.4373655394    15.1178954782
  103      C      -1.3548450620     0.2569884267    16.3466222950
  104      H      -1.3851062744    -0.7260515718    16.7985107531
  105      C      -1.9585588237     1.3261183086    16.9862050476
  106      H      -2.4490275159     1.1619773188    17.9372190937
  107      C      -1.9609760638     2.5889724384    16.4121979776
  108      H      -2.4429035414     3.4190006615    16.9109172134
  109      C      -1.3391493117     2.7680206090    15.1853515892
  110      H      -1.3281712075     3.7456767131    14.7203381513
  111      C      -0.7161163058     1.7111436774    14.5451640051
  112      H      -0.2297197908     1.8706567517    13.5917695950
  113      C       0.5404506365    -1.6697527636    15.1203802422
  114      C       1.2669854257    -1.4343064139    16.2884372290
  115      H       1.3265807834    -0.4321207530    16.6924260789
  116      C       1.9205165954    -2.4743883702    16.9275491649
  117      H       2.4799096928    -2.2693709246    17.8313897355
  118      C       1.8842272942    -3.7607543657    16.4099496052
  119      H       2.4042679067    -4.5680495936    16.9078383411
  120      C       1.1746192394    -3.9945971782    15.2410339560
  121      H       1.1336414436    -4.9918651053    14.8218695080
  122      C       0.5020451803    -2.9666065381    14.6038013527
  123      H      -0.0535948455    -3.1650748145    13.6964250817
  124      C       2.3651650628    -0.6726870730    10.1826589609
  125      H       3.2213565303    -0.6987656575    10.8567261066
  126      H       2.4232923997    -1.5503263712     9.5360823188
  127      H       2.4751555341     0.2002673667     9.5357922450
  128      C      -2.6738708178    -0.4377780086    10.2488547152
  129      H      -2.5922465452     0.1658043167     9.3414734279
  130      H      -3.4077962557     0.0656630224    10.8838166784
  131      C      -3.1934334362    -1.8261729798     9.8813055461
  132      H      -2.5121547187    -2.3319235864     9.1974696512
  133      H      -3.3046912601    -2.4527090395    10.7673271473
  134      H      -4.1666845400    -1.7622682778     9.3922481440
 ----------------------------------------------------------------

    8   -3006.2406847155      7.98E-09 Convergence criterion met
 Total energy in the final basis set = -3006.24068472
 Final energy is   -3006.24068471547
 **  OPTIMIZATION CONVERGED  **

                    Orbital Energies (a.u.)
 --------------------------------------------------------------

 Alpha MOs
 -- Occupied --
-14.777 -14.648 -10.561 -10.549 -10.549 -10.506 -10.505 -10.505
-10.505 -10.500 -10.499 -10.499 -10.499 -10.498 -10.497 -10.497
-10.494 -10.494 -10.493 -10.481 -10.472 -10.472 -10.456 -10.450
-10.444 -10.444 -10.443 -10.443 -10.441 -10.441 -10.441 -10.440
-10.440 -10.439 -10.439 -10.438 -10.438 -10.437 -10.437 -10.437
-10.436 -10.436 -10.435 -10.430 -10.430 -10.430 -10.429 -10.429
-10.429 -10.429 -10.428 -10.427 -10.427 -10.426 -10.425 -10.425
-10.425 -10.425 -10.424 -10.424 -10.423 -10.423 -10.423 -10.422
-10.422 -10.419 -10.412 -10.411 -10.408 -10.403 -10.402 -10.401
-10.397 -10.396 -10.395 -10.392  -6.896  -6.889  -1.171  -1.059
 -1.019  -1.017  -0.995  -0.990  -0.989  -0.941  -0.937  -0.933
 -0.930  -0.923  -0.918  -0.916  -0.912  -0.910  -0.907  -0.895
 -0.894  -0.879  -0.871  -0.859  -0.857  -0.839  -0.837  -0.832
 -0.828  -0.826  -0.825  -0.824  -0.818  -0.818  -0.804  -0.794
 -0.791  -0.789  -0.786  -0.775  -0.769  -0.767  -0.764  -0.742
 -0.739  -0.736  -0.727  -0.709  -0.707  -0.703  -0.695  -0.693
 -0.689  -0.686  -0.679  -0.677  -0.665  -0.661  -0.658  -0.657
 -0.655  -0.648  -0.639  -0.639  -0.623  -0.620  -0.617  -0.617
 -0.611  -0.606  -0.602  -0.591  -0.588  -0.576  -0.573  -0.571
 -0.568  -0.566  -0.563  -0.560  -0.557  -0.552  -0.551  -0.548
 -0.547  -0.541  -0.540  -0.537  -0.530  -0.524  -0.523  -0.519
 -0.516  -0.514  -0.508  -0.503  -0.503  -0.501  -0.498  -0.496
 -0.492  -0.490  -0.485  -0.482  -0.479  -0.478  -0.477  -0.474
 -0.472  -0.472  -0.471  -0.467  -0.466  -0.465  -0.464  -0.464
 -0.463  -0.461  -0.460  -0.459  -0.457  -0.456  -0.454  -0.454
 -0.453  -0.450  -0.446  -0.444  -0.442  -0.436  -0.435  -0.430
 -0.422  -0.422  -0.420  -0.415  -0.411  -0.409  -0.408  -0.407
 -0.405  -0.402  -0.402  -0.400  -0.395  -0.394  -0.394  -0.389
 -0.382  -0.377  -0.376  -0.375  -0.374  -0.373  -0.373  -0.369
 -0.366  -0.365  -0.361  -0.354  -0.353  -0.352  -0.348  -0.346
 -0.344  -0.339  -0.335  -0.327  -0.323  -0.315  -0.310  -0.297
 -0.290  -0.284  -0.282  -0.280  -0.277  -0.274  -0.274  -0.260
 -0.257  -0.249  -0.243  -0.232  -0.228  -0.200  -0.141

 Beta MOs
 -- Occupied --
-14.769 -14.648 -10.560 -10.550 -10.550 -10.505 -10.504 -10.504
-10.504 -10.500 -10.500 -10.499 -10.498 -10.498 -10.497 -10.497
-10.495 -10.492 -10.491 -10.476 -10.472 -10.472 -10.456 -10.450
-10.444 -10.444 -10.443 -10.443 -10.442 -10.441 -10.440 -10.440
-10.440 -10.439 -10.439 -10.438 -10.438 -10.437 -10.437 -10.437
-10.436 -10.435 -10.435 -10.430 -10.430 -10.430 -10.429 -10.429
-10.429 -10.429 -10.427 -10.426 -10.426 -10.425 -10.425 -10.425
-10.425 -10.424 -10.424 -10.424 -10.423 -10.423 -10.422 -10.422
-10.422 -10.420 -10.412 -10.411 -10.408 -10.403 -10.402 -10.401
-10.397 -10.394 -10.394 -10.392  -6.893  -6.887  -1.158  -1.059
 -1.018  -1.013  -0.990  -0.989  -0.988  -0.941  -0.936  -0.932
 -0.929  -0.922  -0.917  -0.911  -0.911  -0.909  -0.906  -0.894
 -0.892  -0.878  -0.870  -0.856  -0.854  -0.838  -0.832  -0.832
 -0.826  -0.825  -0.824  -0.823  -0.818  -0.818  -0.799  -0.791
 -0.791  -0.788  -0.785  -0.773  -0.769  -0.762  -0.761  -0.740
 -0.739  -0.734  -0.725  -0.708  -0.705  -0.702  -0.694  -0.691
 -0.689  -0.686  -0.679  -0.676  -0.665  -0.661  -0.655  -0.655
 -0.654  -0.646  -0.637  -0.636  -0.623  -0.619  -0.616  -0.615
 -0.611  -0.604  -0.591  -0.588  -0.587  -0.574  -0.572  -0.570
 -0.568  -0.565  -0.562  -0.560  -0.556  -0.551  -0.550  -0.546
 -0.545  -0.541  -0.539  -0.537  -0.529  -0.522  -0.521  -0.517
 -0.515  -0.509  -0.505  -0.502  -0.501  -0.498  -0.497  -0.493
 -0.490  -0.485  -0.483  -0.481  -0.478  -0.478  -0.476  -0.473
 -0.471  -0.471  -0.466  -0.466  -0.465  -0.464  -0.464  -0.464
 -0.463  -0.459  -0.459  -0.457  -0.457  -0.456  -0.454  -0.453
 -0.452  -0.446  -0.445  -0.443  -0.441  -0.435  -0.432  -0.429
 -0.422  -0.420  -0.419  -0.413  -0.409  -0.408  -0.406  -0.404
 -0.402  -0.400  -0.398  -0.394  -0.394  -0.392  -0.388  -0.388
 -0.382  -0.377  -0.376  -0.374  -0.373  -0.372  -0.371  -0.369
 -0.364  -0.363  -0.357  -0.351  -0.350  -0.347  -0.345  -0.340
 -0.338  -0.334  -0.322  -0.322  -0.321  -0.308  -0.305  -0.290
 -0.286  -0.282  -0.280  -0.274  -0.273  -0.271  -0.257  -0.250
 -0.248  -0.235  -0.229  -0.221  -0.200

          Ground-State Mulliken Net Atomic Charges

     Atom                 Charge (a.u.)    Spin (a.u.)
  --------------------------------------------------------
      1 N                    -0.600004       0.288997
      2 C                     0.344329       0.095524
      3 C                    -0.357361       0.115821
      4 H                     0.266970      -0.006464
      5 C                     0.091404      -0.079060
      6 C                     0.259221      -0.061688
      7 C                    -0.255313       0.074739
      8 H                     0.267600      -0.003944
      9 C                    -0.218636      -0.051522
     10 H                     0.247674       0.002939
     11 C                    -0.216198       0.079342
     12 H                     0.245290      -0.004429
     13 C                    -0.216698      -0.047344
     14 H                     0.245868       0.002466
     15 C                    -0.252561       0.071506
     16 H                     0.261433      -0.003827
     17 C                     0.240022      -0.058401
     18 C                    -0.247875       0.066711
     19 H                     0.258068      -0.003603
     20 C                    -0.218003      -0.043867
     21 H                     0.245041       0.002287
     22 C                    -0.215574       0.074233
     23 H                     0.245898      -0.004142
     24 C                    -0.219161      -0.048370
     25 H                     0.252565       0.002821
     26 C                    -0.248652       0.070946
     27 H                     0.271021      -0.003765
     28 C                    -0.359303       0.109742
     29 H                     0.268530      -0.006063
     30 C                     0.063645      -0.079761
     31 C                    -0.125529       0.400197
     32 C                    -0.749161       0.007625
     33 H                     0.229087       0.001079
     34 H                     0.275651      -0.002667
     35 H                     0.282307      -0.001556
     36 C                    -0.540362       0.007672
     37 H                     0.294020      -0.003249
     38 H                     0.225740      -0.000036
     39 C                    -0.654995      -0.000153
     40 H                     0.272982      -0.000551
     41 H                     0.233897       0.000454
     42 H                     0.201884      -0.000226
     43 B                     0.509363       0.371894
     44 C                    -0.113117      -0.006357
     45 C                    -0.418170       0.018298
     46 H                     0.182835      -0.002465
     47 C                     0.082138       0.006615
     48 C                     0.100002       0.111088
     49 C                    -0.392901      -0.068259
     50 H                     0.218585       0.003016
     51 C                    -0.148756       0.079309
     52 C                     0.195224      -0.033770
     53 C                    -0.389432       0.054374
     54 H                     0.194209      -0.003266
     55 C                    -0.073321       0.021300
     56 C                     0.255325      -0.034180
     57 C                     0.196511      -0.059426
     58 C                    -0.391577       0.085319
     59 H                     0.210874      -0.005074
     60 C                    -0.202468      -0.037942
     61 H                     0.210824       0.001938
     62 C                    -0.342961       0.051610
     63 H                     0.209301      -0.003043
     64 C                    -0.199261      -0.052091
     65 H                     0.215655       0.002551
     66 C                    -0.347077       0.077056
     67 H                     0.209205      -0.004637
     68 C                    -0.124062       0.004278
     69 C                    -0.383296       0.009677
     70 H                     0.168140      -0.003541
     71 C                     0.082440       0.015277
     72 C                     0.094133       0.113632
     73 C                    -0.412462      -0.071050
     74 H                     0.224411       0.002973
     75 C                    -0.141370       0.082355
     76 C                     0.200872      -0.037711
     77 C                    -0.389967       0.061428
     78 H                     0.181729      -0.003722
     79 C                    -0.075994       0.023221
     80 C                     0.252187      -0.037352
     81 C                     0.199843      -0.061804
     82 C                    -0.396545       0.090276
     83 H                     0.212500      -0.005367
     84 C                    -0.201399      -0.042210
     85 H                     0.206685       0.002154
     86 C                    -0.342446       0.058157
     87 H                     0.209028      -0.003439
     88 C                    -0.198280      -0.055095
     89 H                     0.216874       0.002696
     90 C                    -0.346630       0.081480
     91 H                     0.209151      -0.004901
     92 B                     0.586766       0.257203
     93 C                    -0.188162      -0.024224
     94 C                     0.063640       0.004475
     95 C                    -0.331065      -0.001594
     96 H                     0.219045       0.000363
     97 C                     0.252637       0.002158
     98 C                    -0.335257      -0.001501
     99 H                     0.220628       0.000361
    100 C                     0.042969       0.004202
    101 N                    -0.673926       0.000635
    102 C                     0.319106      -0.000207
    103 C                    -0.290840       0.000360
    104 H                     0.245655      -0.000020
    105 C                    -0.213183      -0.000255
    106 H                     0.213854       0.000013
    107 C                    -0.242827       0.000446
    108 H                     0.210622      -0.000025
    109 C                    -0.209938      -0.000270
    110 H                     0.211561       0.000015
    111 C                    -0.287060       0.000375
    112 H                     0.248088      -0.000022
    113 C                     0.316982      -0.000216
    114 C                    -0.291760       0.000358
    115 H                     0.246056      -0.000020
    116 C                    -0.213632      -0.000249
    117 H                     0.214280       0.000012
    118 C                    -0.242073       0.000435
    119 H                     0.210957      -0.000025
    120 C                    -0.211024      -0.000258
    121 H                     0.213909       0.000014
    122 C                    -0.284172       0.000360
    123 H                     0.245112      -0.000023
    124 C                    -0.755401       0.000544
    125 H                     0.226708       0.001471
    126 H                     0.245098      -0.000404
    127 H                     0.246050      -0.000975
    128 C                    -0.538607       0.002764
    129 H                     0.255607      -0.001788
    130 H                     0.221486       0.000325
    131 C                    -0.645823      -0.000218
    132 H                     0.248263      -0.000213
    133 H                     0.209899      -0.000067
    134 H                     0.208464       0.000001
  --------------------------------------------------------
  Sum of atomic charges =    -0.000000

                    Cartesian Multipole Moments
 -----------------------------------------------------------------
    Charge (ESU x 10^10)
                -0.0000
    Dipole Moment (Debye)
         X       0.8632      Y      -0.0720      Z     -22.4260
       Tot      22.4427
    Quadrupole Moments (Debye-Ang)
        XX    -438.0752     XY       6.2071     YY    -446.9801
        XZ      -0.1670     YZ       4.3968     ZZ    -615.8900

 Total job time:  81027.45s(wall), 235069.94s(cpu)
        *  Thank you very much for using Q-Chem.  Have a nice day.  *
