 Q-Chem 5.0, Q-Chem, Inc., Pleasanton, CA (2017)
 Q-Chem 5.0.1 for Intel X86 EM64T Linux

User input:
--------------------------------------------------------------
$rem
threads 8
jobtype opt
method PBEh-3c
basis def2-mSVP
mem_static      1024
mem_total       8000
sym_ignore      true
unrestricted true
scf_algorithm   diis
scf_max_cycles  250
solvent_method  pcm
geom_opt_tol_energy 25
geom_opt_tol_gradient 75
$end

$pcm
theory  iefpcm
$end

$solvent
dielectric      2.03
$end

$molecule
read uincoords.mol
$end

--------------------------------------------------------------

   21   -3006.2642802900      9.20E-09 Convergence criterion met
 Total energy in the final basis set = -3006.26428029
   17   -3006.2640582365      7.51E-09 Convergence criterion met
 Total energy in the final basis set = -3006.26405824
   16   -3006.2634051248      8.75E-09 Convergence criterion met
 Total energy in the final basis set = -3006.26340512
   16   -3006.2640906332      7.88E-09 Convergence criterion met
 Total energy in the final basis set = -3006.26409063
   16   -3006.2636923004      8.77E-09 Convergence criterion met
 Total energy in the final basis set = -3006.26369230
   16   -3006.2641432357      9.37E-09 Convergence criterion met
 Total energy in the final basis set = -3006.26414324
   16   -3006.2640637998      8.62E-09 Convergence criterion met
 Total energy in the final basis set = -3006.26406380
   16   -3006.2640489293      7.97E-09 Convergence criterion met
   16   -3006.2634889158      7.90E-09 Convergence criterion met
 Total energy in the final basis set = -3006.26348892
   16   -3006.2635019687      7.94E-09 Convergence criterion met
 Total energy in the final basis set = -3006.26350197
   16   -3006.2635032580      7.93E-09 Convergence criterion met
 Total energy in the final basis set = -3006.26350326
   16   -3006.2634923738      7.98E-09 Convergence criterion met
 Total energy in the final basis set = -3006.26349237
   16   -3006.2634786889      7.94E-09 Convergence criterion met
 Total energy in the final basis set = -3006.26347869
   16   -3006.2634691106      7.95E-09 Convergence criterion met
 Total energy in the final basis set = -3006.26346911

             Standard Nuclear Orientation (Angstroms)
    I     Atom           X                Y                Z
 ----------------------------------------------------------------
    1      N       0.1923342669    -0.2448417613     0.0525373572
    2      C       0.1868146298    -0.0232157037     1.3990129342
    3      C       1.3959580865     0.0213710848     2.1262955067
    4      H       2.3370458323    -0.1254952849     1.6113823485
    5      C       1.3774066322     0.1475471897     3.4932978290
    6      C       1.3034274674     0.0920021790    -0.7524990816
    7      C       1.9045868786     1.3416912609    -0.6234144487
    8      H       1.5200575632     2.0609388526     0.0882647097
    9      C       2.9807732563     1.6629017459    -1.4329348397
   10      H       3.4453950135     2.6349547134    -1.3401893138
   11      C       3.4496872548     0.7514345338    -2.3689656270
   12      H       4.2890984290     1.0087328699    -3.0006680615
   13      C       2.8381285288    -0.4889634412    -2.4989756263
   14      H       3.2038164202    -1.2025877590    -3.2247083137
   15      C       1.7632449756    -0.8235106571    -1.6959395623
   16      H       1.2918131682    -1.7932228948    -1.7887711295
   17      C      -0.9134034761    -0.8629363736    -0.5800379346
   18      C      -1.4319543776    -0.3168493713    -1.7510176785
   19      H      -1.0050633116     0.5859502891    -2.1685304476
   20      C      -2.5106385689    -0.9284317449    -2.3652308399
   21      H      -2.9241852270    -0.4988734217    -3.2675872422
   22      C      -3.0662615223    -2.0804534482    -1.8236960012
   23      H      -3.9096704188    -2.5537318446    -2.3082210662
   24      C      -2.5362975335    -2.6272985696    -0.6634274538
   25      H      -2.9570724505    -3.5316511487    -0.2452760258
   26      C      -1.4576561425    -2.0255236180    -0.0386450197
   27      H      -1.0328491005    -2.4636822193     0.8556693409
   28      C      -1.0421914425     0.1297883769     2.0784121533
   29      H      -1.9646409484     0.1561694044     1.5126255021
   30      C      -1.0694429486     0.2661103149     3.4418772503
   31      C       0.1410529788     0.2327411688     4.1884749155
   32      C      -2.3785749072     0.4124531717     4.1542235300
   33      H      -3.2164671105     0.4179030851     3.4580050524
   34      H      -2.4099699205     1.3325701711     4.7383029859
   35      H      -2.5250471164    -0.4072635902     4.8600161524
   36      C       2.6756763047     0.1720912200     4.2467907499
   37      H       2.5702467233    -0.3792864928     5.1827641469
   38      H       3.4459750990    -0.3391686365     3.6648104538
   39      C       3.1211424032     1.6032545053     4.5409441588
   40      H       2.3940690111     2.1213785886     5.1652310086
   41      H       4.0726705888     1.6054983933     5.0719329245
   42      H       3.2469768391     2.1732588960     3.6192892738
   43      B       0.0746519488     0.1111592605     5.7609699722
   44      C      -0.0732318323     1.3235395926     6.6706686681
   45      C      -0.1659848823     2.6281361266     6.1406754464
   46      H      -0.1087847586     2.7755648094     5.0653631100
   47      C      -0.3421794589     3.7070577565     6.9672254199
   48      C      -0.4192538148     3.5245000282     8.3792255677
   49      C      -0.3129638096     2.2613226518     8.9147855950
   50      H      -0.3698932782     2.1203459835     9.9890938791
   51      C      -0.1499432805     1.1336076036     8.0839702741
   52      C      -0.5091963929     5.1273120908     6.6797279884
   53      C      -0.5448223881     5.8867397903     5.5380101344
   54      H      -0.4181759286     5.4477901852     4.5555803031
   55      C      -0.6881016419     5.7636971677     7.9230132776
   56      C      -0.9092429506     7.1283366151     8.0733608128
   57      C      -0.6403240166     4.8348051954     8.9845050699
   58      C      -0.8198770618     5.3025582410    10.2611089830
   59      H      -0.8007031038     4.6411001460    11.1183293216
   60      C      -0.7606551283     7.2776809413     5.6612541138
   61      H      -0.7904571168     7.8788898140     4.7611713026
   62      C      -0.9391141821     7.8918118779     6.8802385477
   63      H      -1.1066007207     8.9609914338     6.9253766523
   64      C      -1.0423430604     6.6870706209    10.4467441803
   65      H      -1.1847747019     7.0538754167    11.4552577673
   66      C      -1.0889354400     7.5826170838     9.4025196489
   67      H      -1.2671732835     8.6328617834     9.5978748646
   68      C       0.0999506050    -1.3047245963     6.3352499471
   69      C       0.1719829410    -2.4315878827     5.4898360470
   70      H       0.2154691016    -2.3030519933     4.4124307068
   71      C       0.1814947668    -3.6963981546     6.0123192155
   72      C       0.1291087455    -3.8998460021     7.4237492048
   73      C       0.0605820033    -2.8131413584     8.2634427037
   74      H       0.0155330461    -2.9565745016     9.3384381443
   75      C       0.0350385401    -1.5002724343     7.7474647798
   76      C       0.2310691864    -5.0028920570     5.3625611776
   77      C       0.2844640960    -5.4448571801     4.0631996087
   78      H       0.3058410052    -4.7562271683     3.2268492735
   79      C       0.2073042398    -5.9582592286     6.3965594257
   80      C       0.2338287694    -7.3359713196     6.1832338094
   81      C       0.1473008104    -5.3438442385     7.6654395884
   82      C       0.1142004898    -6.1592162887     8.7704207804
   83      H       0.0669760818    -5.7576131222     9.7747473508
   84      C       0.3125545451    -6.8370452750     3.8183659846
   85      H       0.3544640221    -7.1832771888     2.7930294437
   86      C       0.2886808786    -7.7645694923     4.8346330420
   87      H       0.3112884805    -8.8227658148     4.6027895762
   88      C       0.1418007850    -7.5619777037     8.5848138183
   89      H       0.1153718422    -8.1965339558     9.4617159355
   90      C       0.1996786552    -8.1487831857     7.3418086263
   91      H       0.2178745532    -9.2281581402     7.2501215779
   92      B      -0.0818114359    -0.2867907523     8.6828120969
   93      C      -0.1182196117    -0.4745215788    10.2509886950
   94      C      -1.3227698868    -0.4576015140    10.9649519916
   95      C      -1.3138804608    -0.5414989190    12.3530979002
   96      H      -2.2492796540    -0.5190747811    12.9024330921
   97      C      -0.1182830089    -0.6272223924    13.0487722888
   98      C       1.0800599225    -0.6679787227    12.3472892502
   99      H       2.0150564931    -0.7389362500    12.8916462951
  100      C       1.0860184609    -0.6021400614    10.9601781307
  101      N      -0.1209409890    -0.6532076475    14.4640204064
  102      C      -0.7589325945     0.3841377686    15.1528891016
  103      C      -1.4354780000     0.1499298547    16.3517822100
  104      H      -1.4677660215    -0.8491203424    16.7671960567
  105      C      -2.0773253976     1.1866900505    17.0087747639
  106      H      -2.5974747843     0.9808350877    17.9357006512
  107      C      -2.0795958073     2.4698062267    16.4802514595
  108      H      -2.5911945278     3.2743448969    16.9913714002
  109      C      -1.4189397885     2.7025898146    15.2822898094
  110      H      -1.4075520828     3.6964849086    14.8529856029
  111      C      -0.7579653622     1.6780666505    14.6264973785
  112      H      -0.2426521383     1.8796831269    13.6963747426
  113      C       0.5165533841    -1.7108422386    15.1203684566
  114      C       1.2146717675    -1.5083990415    16.3123597846
  115      H       1.2666401763    -0.5176782668    16.7451005459
  116      C       1.8498582980    -2.5668405753    16.9404723468
  117      H       2.3868493956    -2.3869250953    17.8631815045
  118      C       1.8234529860    -3.8397823038    16.3883191706
  119      H       2.3291375030    -4.6615190753    16.8775939105
  120      C       1.1422863844    -4.0408405632    15.1960559447
  121      H       1.1089186864    -5.0266989908    14.7497943964
  122      C       0.4876485510    -2.9939756372    14.5693008121
  123      H      -0.0468681119    -3.1700711424    13.6446401405
  124      C       2.3928541286    -0.6379104121    10.2171737633
  125      H       3.2436178773    -0.6576982897    10.8983573900
  126      H       2.4592407920    -1.5189072800     9.5757325522
  127      H       2.5051967517     0.2313435749     9.5658633779
  128      C      -2.6482975579    -0.3980052713    10.2483817478
  129      H      -2.5590173682     0.2066752237     9.3425655913
  130      H      -3.3841736656     0.1061930721    10.8804692348
  131      C      -3.1715707496    -1.7834363514     9.8743302216
  132      H      -2.4843958218    -2.2933073337     9.1993749011
  133      H      -3.2987497775    -2.4096750872    10.7586526718
  134      H      -4.1378602083    -1.7128188505     9.3724889039
 ----------------------------------------------------------------

   16   -3006.2634586458      7.91E-09 Convergence criterion met
 Total energy in the final basis set = -3006.26345865
 Final energy is   -3006.26345864581
 **  OPTIMIZATION CONVERGED  **

                    Orbital Energies (a.u.)
 --------------------------------------------------------------

 Alpha MOs
 -- Occupied --
-14.772 -14.656 -10.549 -10.537 -10.537 -10.494 -10.493 -10.492
-10.492 -10.487 -10.486 -10.486 -10.485 -10.485 -10.485 -10.485
-10.484 -10.484 -10.484 -10.480 -10.480 -10.471 -10.464 -10.449
-10.448 -10.447 -10.446 -10.445 -10.445 -10.445 -10.444 -10.444
-10.444 -10.443 -10.443 -10.443 -10.443 -10.442 -10.442 -10.442
-10.441 -10.441 -10.437 -10.437 -10.437 -10.436 -10.436 -10.434
-10.434 -10.434 -10.433 -10.432 -10.432 -10.432 -10.432 -10.431
-10.431 -10.431 -10.431 -10.431 -10.430 -10.429 -10.429 -10.427
-10.426 -10.425 -10.419 -10.418 -10.414 -10.407 -10.406 -10.405
-10.403 -10.401 -10.401 -10.399  -6.899  -6.894  -1.163  -1.067
 -1.006  -1.006  -0.995  -0.995  -0.984  -0.949  -0.944  -0.938
 -0.936  -0.925  -0.916  -0.915  -0.914  -0.906  -0.895  -0.884
 -0.881  -0.880  -0.876  -0.863  -0.849  -0.845  -0.840  -0.834
 -0.832  -0.830  -0.829  -0.828  -0.826  -0.825  -0.799  -0.798
 -0.796  -0.792  -0.791  -0.780  -0.776  -0.757  -0.752  -0.746
 -0.729  -0.725  -0.717  -0.713  -0.711  -0.708  -0.700  -0.696
 -0.693  -0.686  -0.681  -0.670  -0.668  -0.667  -0.663  -0.660
 -0.653  -0.646  -0.643  -0.630  -0.628  -0.624  -0.623  -0.618
 -0.605  -0.595  -0.594  -0.590  -0.587  -0.577  -0.575  -0.572
 -0.569  -0.565  -0.564  -0.558  -0.555  -0.555  -0.550  -0.548
 -0.538  -0.537  -0.535  -0.530  -0.527  -0.524  -0.523  -0.522
 -0.515  -0.509  -0.508  -0.507  -0.504  -0.502  -0.498  -0.495
 -0.491  -0.487  -0.485  -0.485  -0.484  -0.482  -0.478  -0.475
 -0.471  -0.471  -0.471  -0.470  -0.469  -0.469  -0.466  -0.465
 -0.463  -0.461  -0.460  -0.460  -0.459  -0.457  -0.453  -0.451
 -0.448  -0.446  -0.444  -0.442  -0.440  -0.438  -0.435  -0.429
 -0.429  -0.425  -0.424  -0.420  -0.416  -0.414  -0.411  -0.411
 -0.407  -0.405  -0.403  -0.401  -0.400  -0.397  -0.394  -0.392
 -0.389  -0.384  -0.382  -0.380  -0.380  -0.379  -0.377  -0.374
 -0.371  -0.370  -0.359  -0.354  -0.351  -0.349  -0.347  -0.342
 -0.341  -0.338  -0.331  -0.329  -0.318  -0.315  -0.315  -0.302
 -0.296  -0.291  -0.288  -0.283  -0.282  -0.280  -0.277  -0.266
 -0.264  -0.257  -0.248  -0.238  -0.234  -0.208  -0.145

 Beta MOs
 -- Occupied --
-14.763 -14.656 -10.549 -10.539 -10.538 -10.492 -10.491 -10.491
-10.491 -10.488 -10.486 -10.486 -10.485 -10.485 -10.485 -10.485
-10.484 -10.483 -10.482 -10.480 -10.480 -10.466 -10.464 -10.450
-10.448 -10.447 -10.447 -10.445 -10.445 -10.445 -10.444 -10.444
-10.443 -10.443 -10.443 -10.443 -10.442 -10.442 -10.442 -10.441
-10.441 -10.440 -10.437 -10.437 -10.437 -10.436 -10.436 -10.434
-10.433 -10.433 -10.432 -10.432 -10.432 -10.432 -10.431 -10.431
-10.431 -10.431 -10.431 -10.431 -10.430 -10.429 -10.429 -10.428
-10.426 -10.425 -10.419 -10.418 -10.414 -10.407 -10.406 -10.405
-10.403 -10.400 -10.400 -10.399  -6.896  -6.892  -1.148  -1.067
 -1.004  -1.002  -0.995  -0.994  -0.979  -0.949  -0.944  -0.937
 -0.934  -0.925  -0.915  -0.914  -0.913  -0.901  -0.894  -0.883
 -0.880  -0.879  -0.875  -0.863  -0.845  -0.844  -0.840  -0.832
 -0.831  -0.829  -0.828  -0.826  -0.825  -0.822  -0.798  -0.796
 -0.793  -0.790  -0.789  -0.778  -0.776  -0.752  -0.750  -0.746
 -0.726  -0.723  -0.716  -0.712  -0.709  -0.707  -0.699  -0.696
 -0.693  -0.686  -0.679  -0.669  -0.668  -0.666  -0.661  -0.659
 -0.650  -0.644  -0.641  -0.629  -0.626  -0.624  -0.623  -0.617
 -0.602  -0.595  -0.591  -0.583  -0.579  -0.575  -0.574  -0.572
 -0.568  -0.564  -0.562  -0.557  -0.554  -0.554  -0.548  -0.547
 -0.537  -0.536  -0.533  -0.529  -0.526  -0.523  -0.522  -0.521
 -0.513  -0.508  -0.508  -0.507  -0.501  -0.499  -0.496  -0.492
 -0.489  -0.485  -0.485  -0.485  -0.481  -0.477  -0.475  -0.473
 -0.471  -0.470  -0.470  -0.469  -0.469  -0.467  -0.465  -0.464
 -0.462  -0.460  -0.460  -0.458  -0.456  -0.454  -0.451  -0.450
 -0.447  -0.446  -0.443  -0.441  -0.438  -0.436  -0.433  -0.429
 -0.426  -0.425  -0.423  -0.418  -0.416  -0.413  -0.410  -0.408
 -0.404  -0.402  -0.402  -0.400  -0.397  -0.393  -0.391  -0.389
 -0.383  -0.382  -0.380  -0.378  -0.378  -0.377  -0.376  -0.373
 -0.370  -0.368  -0.358  -0.351  -0.344  -0.344  -0.343  -0.341
 -0.336  -0.332  -0.327  -0.321  -0.313  -0.311  -0.301  -0.296
 -0.292  -0.291  -0.288  -0.282  -0.279  -0.278  -0.264  -0.257
 -0.254  -0.241  -0.235  -0.227  -0.208

          Ground-State Mulliken Net Atomic Charges

     Atom                 Charge (a.u.)    Spin (a.u.)
  --------------------------------------------------------
      1 N                    -0.587256       0.331977
      2 C                     0.341934       0.049693
      3 C                    -0.354833       0.147636
      4 H                     0.277906      -0.007855
      5 C                     0.078391      -0.106831
      6 C                     0.258886      -0.068125
      7 C                    -0.258782       0.088017
      8 H                     0.279648      -0.004559
      9 C                    -0.228227      -0.060824
     10 H                     0.260010       0.003368
     11 C                    -0.222939       0.095911
     12 H                     0.257803      -0.005293
     13 C                    -0.226515      -0.056260
     14 H                     0.258484       0.002914
     15 C                    -0.257276       0.083926
     16 H                     0.273896      -0.004412
     17 C                     0.238684      -0.064255
     18 C                    -0.251818       0.077756
     19 H                     0.271444      -0.004125
     20 C                    -0.227822      -0.051777
     21 H                     0.257934       0.002694
     22 C                    -0.222296       0.088995
     23 H                     0.258175      -0.004911
     24 C                    -0.228145      -0.056712
     25 H                     0.262826       0.003217
     26 C                    -0.250349       0.082935
     27 H                     0.279573      -0.004318
     28 C                    -0.359932       0.139666
     29 H                     0.280339      -0.007305
     30 C                     0.055984      -0.105915
     31 C                    -0.135455       0.377086
     32 C                    -0.754118       0.009084
     33 H                     0.238726       0.001019
     34 H                     0.270505      -0.003680
     35 H                     0.277253      -0.002831
     36 C                    -0.541365       0.009535
     37 H                     0.287877      -0.003728
     38 H                     0.234103      -0.000277
     39 C                    -0.657389      -0.001340
     40 H                     0.262164      -0.000368
     41 H                     0.236140       0.000054
     42 H                     0.206520      -0.000185
     43 B                     0.520487       0.349259
     44 C                    -0.118306       0.006614
     45 C                    -0.417881       0.001187
     46 H                     0.196936      -0.001499
     47 C                     0.073074       0.023530
     48 C                     0.090424       0.101288
     49 C                    -0.400351      -0.062779
     50 H                     0.221977       0.002671
     51 C                    -0.149467       0.070630
     52 C                     0.187173      -0.039130
     53 C                    -0.398101       0.062198
     54 H                     0.211366      -0.003697
     55 C                    -0.075281       0.022339
     56 C                     0.242325      -0.036143
     57 C                     0.187539      -0.058139
     58 C                    -0.399630       0.085382
     59 H                     0.223846      -0.005034
     60 C                    -0.216182      -0.042030
     61 H                     0.225734       0.002102
     62 C                    -0.352221       0.058642
     63 H                     0.223776      -0.003440
     64 C                    -0.213004      -0.052667
     65 H                     0.229050       0.002560
     66 C                    -0.356069       0.077638
     67 H                     0.223608      -0.004622
     68 C                    -0.129621       0.016487
     69 C                    -0.390976      -0.005369
     70 H                     0.185789      -0.002470
     71 C                     0.074009       0.030137
     72 C                     0.084479       0.101417
     73 C                    -0.414667      -0.063631
     74 H                     0.227683       0.002572
     75 C                    -0.141071       0.071037
     76 C                     0.191430      -0.041730
     77 C                    -0.399089       0.067058
     78 H                     0.202906      -0.004011
     79 C                    -0.077104       0.023505
     80 C                     0.238767      -0.038129
     81 C                     0.191122      -0.059146
     82 C                    -0.404235       0.087912
     83 H                     0.225322      -0.005185
     84 C                    -0.215442      -0.044848
     85 H                     0.223214       0.002242
     86 C                    -0.351505       0.062982
     87 H                     0.223861      -0.003699
     88 C                    -0.212144      -0.054184
     89 H                     0.230123       0.002633
     90 C                    -0.355073       0.079755
     91 H                     0.223793      -0.004744
     92 B                     0.570293       0.268503
     93 C                    -0.185504      -0.025242
     94 C                     0.057435       0.004351
     95 C                    -0.340504      -0.001592
     96 H                     0.226866       0.000368
     97 C                     0.257176       0.001804
     98 C                    -0.345945      -0.001496
     99 H                     0.228770       0.000374
    100 C                     0.036353       0.004183
    101 N                    -0.673403      -0.000023
    102 C                     0.315992      -0.000056
    103 C                    -0.298692       0.000108
    104 H                     0.252806      -0.000006
    105 C                    -0.226010      -0.000078
    106 H                     0.227770       0.000004
    107 C                    -0.256231       0.000122
    108 H                     0.224241      -0.000007
    109 C                    -0.223015      -0.000078
    110 H                     0.226430       0.000004
    111 C                    -0.295125       0.000106
    112 H                     0.254646      -0.000007
    113 C                     0.315676      -0.000063
    114 C                    -0.297807       0.000113
    115 H                     0.252981      -0.000006
    116 C                    -0.226239      -0.000077
    117 H                     0.228064       0.000004
    118 C                    -0.255586       0.000123
    119 H                     0.224529      -0.000007
    120 C                    -0.223856      -0.000072
    121 H                     0.227898       0.000004
    122 C                    -0.294515       0.000098
    123 H                     0.252698      -0.000009
    124 C                    -0.759720       0.000581
    125 H                     0.232280       0.001507
    126 H                     0.245904      -0.000410
    127 H                     0.248456      -0.001007
    128 C                    -0.540508       0.002868
    129 H                     0.256453      -0.001871
    130 H                     0.225645       0.000360
    131 C                    -0.652590      -0.000215
    132 H                     0.247557      -0.000237
    133 H                     0.211604      -0.000074
    134 H                     0.213648       0.000002
  --------------------------------------------------------
  Sum of atomic charges =    -0.000000

                    Cartesian Multipole Moments
 -----------------------------------------------------------------
    Charge (ESU x 10^10)
                -0.0000
    Dipole Moment (Debye)
         X       0.7865      Y      -0.1709      Z     -25.8683
       Tot      25.8808
    Quadrupole Moments (Debye-Ang)
        XX    -435.6386     XY       6.7555     YY    -444.8154
        XZ      -0.7634     YZ       4.4784     ZZ    -636.0995

 Total job time:  81523.47s(wall), 255880.78s(cpu)
        *  Thank you very much for using Q-Chem.  Have a nice day.  *
