 Q-Chem 5.0, Q-Chem, Inc., Pleasanton, CA (2017)
 Q-Chem 5.0.1 for Intel X86 EM64T Linux

User input:
--------------------------------------------------------------
$rem
threads 8
jobtype opt
method PBEh-3c
basis def2-mSVP
mem_static      1024
mem_total       8000
sym_ignore      true
unrestricted true
scf_algorithm	diis
scf_max_cycles	250
solvent_method  pcm
geom_opt_tol_energy 25
geom_opt_tol_gradient 75
$end

$pcm
theory  iefpcm
$end

$solvent
dielectric      2.38
$end

$molecule
read uincoords.mol
$end
--------------------------------------------------------------

   21   -3006.2686881377      8.33E-09 Convergence criterion met
 Total energy in the final basis set = -3006.26868814
   17   -3006.2684840448      8.16E-09 Convergence criterion met
 Total energy in the final basis set = -3006.26848404
   17   -3006.2678587201      6.79E-09 Convergence criterion met
 Total energy in the final basis set = -3006.26785872
   16   -3006.2685204368      8.84E-09 Convergence criterion met
 Total energy in the final basis set = -3006.26852044
   17   -3006.2681512606      7.86E-09 Convergence criterion met
 Total energy in the final basis set = -3006.26815126
   17   -3006.2685694608      7.32E-09 Convergence criterion met
 Total energy in the final basis set = -3006.26856946
   16   -3006.2684955076      9.80E-09 Convergence criterion met
 Total energy in the final basis set = -3006.26849551
   16   -3006.2684917549      9.04E-09 Convergence criterion met
   16   -3006.2678026780      8.68E-09 Convergence criterion met
 Total energy in the final basis set = -3006.26780268
   16   -3006.2679326965      9.29E-09 Convergence criterion met
 Total energy in the final basis set = -3006.26793270
   16   -3006.2679040338      9.01E-09 Convergence criterion met
 Total energy in the final basis set = -3006.26790403
   16   -3006.2679046655      8.96E-09 Convergence criterion met
 Total energy in the final basis set = -3006.26790467
   16   -3006.2679001156      9.01E-09 Convergence criterion met
 Total energy in the final basis set = -3006.26790012
   16   -3006.2678963584      9.07E-09 Convergence criterion met
 Total energy in the final basis set = -3006.26789636

             Standard Nuclear Orientation (Angstroms)
    I     Atom           X                Y                Z
 ----------------------------------------------------------------
    1      N       0.1897759810    -0.2407446013     0.0495238894
    2      C       0.1843205063    -0.0228123254     1.3970056387
    3      C       1.3932325344     0.0201136779     2.1240007987
    4      H       2.3344985079    -0.1256477963     1.6090373866
    5      C       1.3744880564     0.1441035515     3.4916681014
    6      C       1.2994305808     0.1009532833    -0.7547761017
    7      C       1.9004014224     1.3503251283    -0.6197562154
    8      H       1.5161512816     2.0662916979     0.0953670544
    9      C       2.9753075485     1.6758954591    -1.4291907241
   10      H       3.4394932564     2.6477806315    -1.3324839313
   11      C       3.4434494872     0.7690924838    -2.3703370347
   12      H       4.2819510914     1.0299638091    -3.0018168073
   13      C       2.8323063905    -0.4710845722    -2.5058465851
   14      H       3.1975544615    -1.1810539597    -3.2353827859
   15      C       1.7583706671    -0.8099378142    -1.7034274432
   16      H       1.2876605886    -1.7796121186    -1.8002391936
   17      C      -0.9148441178    -0.8593079206    -0.5838534593
   18      C      -1.4338801393    -0.3119462850    -1.7542593460
   19      H      -1.0085138811     0.5922218025    -2.1703758440
   20      C      -2.5120266798    -0.9238237571    -2.3690511461
   21      H      -2.9262593215    -0.4933913052    -3.2706849841
   22      C      -3.0661983458    -2.0774201084    -1.8290221076
   23      H      -3.9090446034    -2.5510223592    -2.3142576737
   24      C      -2.5355502654    -2.6254693634    -0.6694826883
   25      H      -2.9550725643    -3.5311363380    -0.2529054594
   26      C      -1.4577923304    -2.0232451223    -0.0436700451
   27      H      -1.0319389408    -2.4626443434     0.8495263182
   28      C      -1.0443943799     0.1279003931     2.0767905056
   29      H      -1.9670565672     0.1558097624     1.5114151763
   30      C      -1.0712815260     0.2608663285     3.4410008271
   31      C       0.1389353660     0.2279149365     4.1867668652
   32      C      -2.3810935005     0.4048150323     4.1531657733
   33      H      -3.2186409241     0.4093173127     3.4565538103
   34      H      -2.4144525582     1.3249470293     4.7371524622
   35      H      -2.5273682441    -0.4153964428     4.8584256365
   36      C       2.6737339311     0.1703571698     4.2438784803
   37      H       2.5685299187    -0.3739231365     5.1840145193
   38      H       3.4422473125    -0.3467053250     3.6647409650
   39      C       3.1226945005     1.6026803591     4.5266997983
   40      H       2.3968208882     2.1271213724     5.1472466951
   41      H       4.0747816630     1.6075230549     5.0567366990
   42      H       3.2484121843     2.1650528547     3.6003515285
   43      B       0.0736226172     0.1079278701     5.7598690921
   44      C      -0.0722118082     1.3215629474     6.6688081816
   45      C      -0.1656216384     2.6251014363     6.1364928567
   46      H      -0.1104379788     2.7702721370     5.0608397725
   47      C      -0.3400688503     3.7058247256     6.9612982349
   48      C      -0.4147063118     3.5261116123     8.3739969282
   49      C      -0.3080790813     2.2639051163     8.9118597197
   50      H      -0.3636218431     2.1253186607     9.9865858452
   51      C      -0.1466980634     1.1343781171     8.0828344380
   52      C      -0.5071795405     5.1254714681     6.6712356518
   53      C      -0.5445421795     5.8825821462     5.5278485077
   54      H      -0.4198654819     5.4415807116     4.5460829958
   55      C      -0.6835849187     5.7644977020     7.9136369711
   56      C      -0.9037399132     7.1296784299     8.0615597783
   57      C      -0.6341703612     4.8378017941     8.9770736986
   58      C      -0.8108028901     5.3083646906    10.2532167017
   59      H      -0.7899902506     4.6488609915    11.1119315904
   60      C      -0.7595519340     7.2739581635     5.6487251640
   61      H      -0.7907488443     7.8732759847     4.7474247709
   62      C      -0.9354627746     7.8908212934     6.8668528290
   63      H      -1.1023501619     8.9601804766     6.9101320262
   64      C      -1.0322741636     6.6934630787    10.4363144663
   65      H      -1.1724182371     7.0624751419    11.4443564086
   66      C      -1.0805761584     7.5869146131     9.3901745950
   67      H      -1.2579294732     8.6376767154     9.5836244712
   68      C       0.0998197096    -1.3068558296     6.3378277719
   69      C       0.1709312140    -2.4351218941     5.4942878973
   70      H       0.2123871644    -2.3081753713     4.4166786051
   71      C       0.1821908036    -3.6991935209     6.0190897734
   72      C       0.1323508936    -3.9001022650     7.4311332983
   73      C       0.0644931413    -2.8119718538     8.2690258771
   74      H       0.0211270969    -2.9539838189     9.3442813350
   75      C       0.0375095758    -1.4998604570     7.7506715988
   76      C       0.2315875290    -5.0068823884     5.3717006201
   77      C       0.2829328678    -5.4512324799     4.0729326491
   78      H       0.3019371474    -4.7643042131     3.2351505586
   79      C       0.2103322449    -5.9603543104     6.4076355372
   80      C       0.2374952427    -7.3385410024     6.1968626523
   81      C       0.1519271199    -5.3437151302     7.6755606549
   82      C       0.1211108677    -6.1570182837     8.7822757977
   83      H       0.0751710274    -5.7536308397     9.7859776106
   84      C       0.3116780136    -6.8440036046     3.8307887525
   85      H       0.3518765416    -7.1919956037     2.8059880131
   86      C       0.2903562909    -7.7697665733     4.8488875050
   87      H       0.3133310985    -8.8284017820     4.6190625597
   88      C       0.1493968483    -7.5601934944     8.5992149069
   89      H       0.1247782921    -8.1931375542     9.4773456554
   90      C       0.2057650952    -8.1492805451     7.3570607310
   91      H       0.2245680808    -9.2288178007     7.2672641472
   92      B      -0.0782202576    -0.2848510517     8.6841396511
   93      C      -0.1143696864    -0.4708066647    10.2527603528
   94      C      -1.3192758826    -0.4543669875    10.9663023125
   95      C      -1.3112042746    -0.5390371704    12.3545019783
   96      H      -2.2471718025    -0.5176651229    12.9029715347
   97      C      -0.1160201368    -0.6251982638    13.0509150259
   98      C       1.0827874221    -0.6649071509    12.3499684183
   99      H       2.0176584623    -0.7359881309    12.8945892989
  100      C       1.0894809700    -0.5982813612    10.9628025740
  101      N      -0.1194579348    -0.6538810957    14.4660556828
  102      C      -0.7631701103     0.3789297551    15.1567439410
  103      C      -1.4447888493     0.1376540771    16.3513614393
  104      H      -1.4766406463    -0.8632306333    16.7624167965
  105      C      -2.0925526610     1.1699593139    17.0098272836
  106      H      -2.6166454401     0.9587798810    17.9333410611
  107      C      -2.0955820780     2.4554179864    16.4867252649
  108      H      -2.6118004909     3.2564090133    16.9988299897
  109      C      -1.4296426991     2.6952651203    15.2929469886
  110      H      -1.4187314491     3.6910639198    14.8680493360
  111      C      -0.7627764035     1.6751558252    14.6359591418
  112      H      -0.2434890474     1.8822538690    13.7092076322
  113      C       0.5167672546    -1.7131686890    15.1211483998
  114      C       1.2117381894    -1.5131539995    16.3154541971
  115      H       1.2623009735    -0.5234679639    16.7507964144
  116      C       1.8456129741    -2.5728717143    16.9429517096
  117      H       2.3800932117    -2.3948540393    17.8675014634
  118      C       1.8209707513    -3.8447005038    16.3878377395
  119      H       2.3256170515    -4.6674005117    16.8766138601
  120      C       1.1428566654    -4.0433648930    15.1933122472
  121      H       1.1107502728    -5.0282705724    14.7448208545
  122      C       0.4894907967    -2.9951526525    14.5671788792
  123      H      -0.0428476195    -3.1698127268    13.6409533180
  124      C       2.3969210948    -0.6339199214    10.2207832998
  125      H       3.2472062914    -0.6530210118    10.9025865196
  126      H       2.4640898248    -1.5153274511     9.5799544861
  127      H       2.5094975337     0.2348537510     9.5688778694
  128      C      -2.6447535139    -0.3956240404    10.2494961731
  129      H      -2.5548951996     0.2057414647     9.3415715203
  130      H      -3.3802285156     0.1112160913    10.8799227446
  131      C      -3.1692412854    -1.7819028193     9.8801379771
  132      H      -2.4817124577    -2.2949930661     9.2079287375
  133      H      -3.2980804133    -2.4046836952    10.7666817186
  134      H      -4.1348673090    -1.7120902502     9.3769205419
 ----------------------------------------------------------------

   16   -3006.2678892798      9.06E-09 Convergence criterion met
 Total energy in the final basis set = -3006.26788928
 Final energy is   -3006.26788927984
 **  OPTIMIZATION CONVERGED  **

                    Orbital Energies (a.u.)
 --------------------------------------------------------------

 Alpha MOs
 -- Occupied --
-14.771 -14.658 -10.547 -10.535 -10.535 -10.491 -10.491 -10.490
-10.490 -10.485 -10.484 -10.484 -10.483 -10.482 -10.482 -10.482
-10.482 -10.482 -10.482 -10.481 -10.481 -10.469 -10.465 -10.450
-10.449 -10.449 -10.447 -10.446 -10.446 -10.446 -10.445 -10.445
-10.444 -10.444 -10.444 -10.444 -10.444 -10.443 -10.443 -10.443
-10.443 -10.442 -10.439 -10.438 -10.438 -10.438 -10.436 -10.435
-10.435 -10.435 -10.434 -10.434 -10.434 -10.434 -10.433 -10.433
-10.432 -10.432 -10.432 -10.432 -10.432 -10.431 -10.431 -10.428
-10.427 -10.425 -10.421 -10.420 -10.416 -10.408 -10.407 -10.406
-10.405 -10.402 -10.402 -10.401  -6.900  -6.895  -1.161  -1.068
 -1.004  -1.003  -0.997  -0.996  -0.982  -0.950  -0.946  -0.939
 -0.937  -0.926  -0.917  -0.916  -0.913  -0.904  -0.893  -0.885
 -0.879  -0.878  -0.877  -0.865  -0.848  -0.846  -0.841  -0.835
 -0.833  -0.831  -0.830  -0.827  -0.827  -0.826  -0.800  -0.799
 -0.796  -0.792  -0.792  -0.781  -0.778  -0.756  -0.750  -0.748
 -0.727  -0.723  -0.716  -0.714  -0.712  -0.709  -0.701  -0.698
 -0.695  -0.687  -0.679  -0.671  -0.669  -0.666  -0.664  -0.661
 -0.654  -0.644  -0.644  -0.630  -0.627  -0.625  -0.624  -0.619
 -0.603  -0.596  -0.592  -0.588  -0.587  -0.577  -0.576  -0.573
 -0.570  -0.565  -0.562  -0.558  -0.556  -0.554  -0.550  -0.549
 -0.538  -0.536  -0.533  -0.531  -0.525  -0.524  -0.523  -0.521
 -0.514  -0.510  -0.509  -0.508  -0.503  -0.502  -0.499  -0.495
 -0.490  -0.488  -0.486  -0.486  -0.483  -0.483  -0.479  -0.475
 -0.473  -0.472  -0.471  -0.471  -0.470  -0.469  -0.468  -0.467
 -0.464  -0.462  -0.461  -0.459  -0.457  -0.457  -0.452  -0.450
 -0.448  -0.447  -0.444  -0.442  -0.438  -0.437  -0.435  -0.431
 -0.428  -0.427  -0.425  -0.421  -0.418  -0.416  -0.412  -0.412
 -0.408  -0.406  -0.404  -0.402  -0.401  -0.397  -0.394  -0.391
 -0.391  -0.385  -0.383  -0.382  -0.381  -0.380  -0.378  -0.375
 -0.372  -0.371  -0.360  -0.355  -0.352  -0.349  -0.346  -0.344
 -0.339  -0.337  -0.330  -0.329  -0.316  -0.316  -0.315  -0.304
 -0.297  -0.292  -0.290  -0.284  -0.284  -0.282  -0.275  -0.267
 -0.266  -0.259  -0.249  -0.239  -0.235  -0.210  -0.146

 Beta MOs
 -- Occupied --
-14.761 -14.658 -10.547 -10.537 -10.536 -10.490 -10.489 -10.489
-10.489 -10.486 -10.484 -10.483 -10.483 -10.483 -10.482 -10.482
-10.482 -10.482 -10.481 -10.481 -10.480 -10.465 -10.464 -10.451
-10.449 -10.448 -10.447 -10.447 -10.446 -10.446 -10.445 -10.445
-10.445 -10.445 -10.444 -10.444 -10.444 -10.443 -10.443 -10.443
-10.442 -10.442 -10.439 -10.438 -10.438 -10.438 -10.435 -10.435
-10.435 -10.434 -10.434 -10.434 -10.434 -10.433 -10.433 -10.432
-10.432 -10.432 -10.432 -10.432 -10.432 -10.431 -10.430 -10.429
-10.428 -10.425 -10.421 -10.420 -10.416 -10.408 -10.407 -10.406
-10.405 -10.401 -10.401 -10.401  -6.897  -6.893  -1.146  -1.068
 -1.002  -1.000  -0.996  -0.996  -0.977  -0.950  -0.945  -0.938
 -0.936  -0.926  -0.916  -0.916  -0.911  -0.900  -0.892  -0.884
 -0.878  -0.877  -0.876  -0.865  -0.846  -0.843  -0.841  -0.834
 -0.832  -0.830  -0.829  -0.827  -0.826  -0.821  -0.799  -0.797
 -0.794  -0.791  -0.788  -0.779  -0.778  -0.750  -0.748  -0.747
 -0.724  -0.721  -0.714  -0.713  -0.710  -0.708  -0.700  -0.698
 -0.695  -0.687  -0.677  -0.670  -0.669  -0.665  -0.663  -0.660
 -0.651  -0.642  -0.642  -0.629  -0.625  -0.625  -0.624  -0.619
 -0.600  -0.596  -0.589  -0.583  -0.577  -0.576  -0.575  -0.573
 -0.569  -0.565  -0.560  -0.557  -0.555  -0.553  -0.549  -0.547
 -0.538  -0.535  -0.531  -0.531  -0.524  -0.523  -0.522  -0.520
 -0.513  -0.509  -0.509  -0.508  -0.501  -0.499  -0.497  -0.491
 -0.488  -0.487  -0.486  -0.485  -0.482  -0.479  -0.474  -0.473
 -0.473  -0.471  -0.471  -0.470  -0.469  -0.466  -0.466  -0.465
 -0.464  -0.461  -0.461  -0.456  -0.456  -0.453  -0.451  -0.449
 -0.447  -0.446  -0.442  -0.440  -0.436  -0.435  -0.434  -0.431
 -0.426  -0.425  -0.424  -0.420  -0.417  -0.414  -0.412  -0.409
 -0.405  -0.403  -0.403  -0.401  -0.397  -0.394  -0.390  -0.390
 -0.385  -0.383  -0.381  -0.379  -0.378  -0.378  -0.377  -0.374
 -0.371  -0.368  -0.359  -0.352  -0.345  -0.345  -0.342  -0.341
 -0.334  -0.330  -0.328  -0.321  -0.314  -0.310  -0.300  -0.297
 -0.293  -0.292  -0.290  -0.284  -0.280  -0.279  -0.266  -0.259
 -0.256  -0.242  -0.236  -0.228  -0.210

          Ground-State Mulliken Net Atomic Charges

     Atom                 Charge (a.u.)    Spin (a.u.)
  --------------------------------------------------------
      1 N                    -0.585056       0.339479
      2 C                     0.341537       0.041271
      3 C                    -0.354196       0.152613
      4 H                     0.279904      -0.008060
      5 C                     0.075919      -0.110993
      6 C                     0.259015      -0.069148
      7 C                    -0.259207       0.090506
      8 H                     0.281787      -0.004674
      9 C                    -0.230051      -0.062577
     10 H                     0.262166       0.003447
     11 C                    -0.224223       0.099142
     12 H                     0.260040      -0.005460
     13 C                    -0.228368      -0.057976
     14 H                     0.260755       0.003000
     15 C                    -0.258084       0.086303
     16 H                     0.276218      -0.004524
     17 C                     0.238577      -0.065178
     18 C                    -0.252448       0.079852
     19 H                     0.273913      -0.004223
     20 C                    -0.229684      -0.053292
     21 H                     0.260242       0.002772
     22 C                    -0.223562       0.091841
     23 H                     0.260352      -0.005058
     24 C                    -0.229902      -0.058267
     25 H                     0.264611       0.003289
     26 C                    -0.250636       0.085159
     27 H                     0.281344      -0.004419
     28 C                    -0.359843       0.144411
     29 H                     0.282446      -0.007492
     30 C                     0.054626      -0.109865
     31 C                    -0.137201       0.371565
     32 C                    -0.755023       0.009312
     33 H                     0.240728       0.001005
     34 H                     0.269280      -0.003837
     35 H                     0.275902      -0.003027
     36 C                    -0.541449       0.009844
     37 H                     0.286228      -0.003797
     38 H                     0.235785      -0.000327
     39 C                    -0.657977      -0.001533
     40 H                     0.259926      -0.000340
     41 H                     0.236362      -0.000016
     42 H                     0.207904      -0.000176
     43 B                     0.521570       0.345441
     44 C                    -0.119415       0.009004
     45 C                    -0.417923      -0.001671
     46 H                     0.200008      -0.001334
     47 C                     0.071105       0.026544
     48 C                     0.088402       0.099414
     49 C                    -0.401835      -0.061638
     50 H                     0.222723       0.002600
     51 C                    -0.149564       0.069030
     52 C                     0.185338      -0.040091
     53 C                    -0.399581       0.063575
     54 H                     0.215032      -0.003770
     55 C                    -0.075704       0.022513
     56 C                     0.239488      -0.036464
     57 C                     0.185610      -0.057880
     58 C                    -0.401217       0.085313
     59 H                     0.226514      -0.005022
     60 C                    -0.218836      -0.042741
     61 H                     0.228867       0.002129
     62 C                    -0.353847       0.059859
     63 H                     0.226787      -0.003507
     64 C                    -0.215703      -0.052729
     65 H                     0.231808       0.002559
     66 C                    -0.357618       0.077656
     67 H                     0.226617      -0.004612
     68 C                    -0.130732       0.018680
     69 C                    -0.392353      -0.007852
     70 H                     0.189565      -0.002289
     71 C                     0.072087       0.032790
     72 C                     0.082492       0.099108
     73 C                    -0.415190      -0.062108
     74 H                     0.228220       0.002487
     75 C                    -0.140983       0.068874
     76 C                     0.189394      -0.042471
     77 C                    -0.400657       0.068025
     78 H                     0.207372      -0.004057
     79 C                    -0.077396       0.023553
     80 C                     0.235844      -0.038231
     81 C                     0.189251      -0.058647
     82 C                    -0.405689       0.087390
     83 H                     0.227846      -0.005146
     84 C                    -0.218151      -0.045292
     85 H                     0.226635       0.002255
     86 C                    -0.353060       0.063776
     87 H                     0.226930      -0.003740
     88 C                    -0.214859      -0.053978
     89 H                     0.232839       0.002619
     90 C                    -0.356514       0.079340
     91 H                     0.226847      -0.004707
     92 B                     0.566572       0.270592
     93 C                    -0.184936      -0.025370
     94 C                     0.055954       0.004342
     95 C                    -0.342039      -0.001590
     96 H                     0.228342       0.000369
     97 C                     0.258110       0.001792
     98 C                    -0.347910      -0.001495
     99 H                     0.230376       0.000376
    100 C                     0.034988       0.004185
    101 N                    -0.673214      -0.000036
    102 C                     0.315306      -0.000052
    103 C                    -0.300019       0.000103
    104 H                     0.254126      -0.000006
    105 C                    -0.228436      -0.000075
    106 H                     0.230561       0.000004
    107 C                    -0.258693       0.000116
    108 H                     0.226992      -0.000007
    109 C                    -0.225539      -0.000074
    110 H                     0.229359       0.000004
    111 C                    -0.296736       0.000100
    112 H                     0.255801      -0.000007
    113 C                     0.315270      -0.000059
    114 C                    -0.298945       0.000108
    115 H                     0.254283      -0.000006
    116 C                    -0.228608      -0.000073
    117 H                     0.230825       0.000004
    118 C                    -0.258083       0.000116
    119 H                     0.227269      -0.000007
    120 C                    -0.226313      -0.000068
    121 H                     0.230688       0.000004
    122 C                    -0.296449       0.000092
    123 H                     0.253967      -0.000009
    124 C                    -0.760429       0.000584
    125 H                     0.233578       0.001511
    126 H                     0.245913      -0.000411
    127 H                     0.248640      -0.001011
    128 C                    -0.540667       0.002905
    129 H                     0.256387      -0.001895
    130 H                     0.226575       0.000365
    131 C                    -0.653710      -0.000220
    132 H                     0.246870      -0.000237
    133 H                     0.212114      -0.000075
    134 H                     0.214843       0.000002
  --------------------------------------------------------
  Sum of atomic charges =    -0.000000

                    Cartesian Multipole Moments
 -----------------------------------------------------------------
    Charge (ESU x 10^10)
                -0.0000
    Dipole Moment (Debye)
         X       0.7823      Y      -0.1972      Z     -26.4737
       Tot      26.4860
    Quadrupole Moments (Debye-Ang)
        XX    -435.1880     XY       6.7676     YY    -443.7578
        XZ      -0.9313     YZ       4.4608     ZZ    -638.9722

 Total job time:  84475.29s(wall), 267989.52s(cpu)
        *  Thank you very much for using Q-Chem.  Have a nice day.  *
