 Q-Chem 5.0, Q-Chem, Inc., Pleasanton, CA (2017)
 Q-Chem 5.0.1 for Intel X86 EM64T Linux

User input:
--------------------------------------------------------------
$rem
threads 8
jobtype opt
method PBEh-3c
basis def2-mSVP
mem_static      1024
mem_total       8000
sym_ignore      true
unrestricted true
scf_algorithm	diis
scf_max_cycles	250
solvent_method  pcm
geom_opt_tol_energy 25
geom_opt_tol_gradient 75
$end

$pcm
theory  iefpcm
$end
$solvent
dielectric      4.33
$end

$molecule
read utLEincoords.mol
$end
--------------------------------------------------------------

   21   -3006.2752350415      8.96E-09 Convergence criterion met
 Total energy in the final basis set = -3006.27523504
   20   -3006.2821073199      6.41E-09 Convergence criterion met
 Total energy in the final basis set = -3006.28210732
   20   -3006.2828168743      6.18E-09 Convergence criterion met
 Total energy in the final basis set = -3006.28281687
   20   -3006.2828457056      6.10E-09 Convergence criterion met
 Total energy in the final basis set = -3006.28284571
   17   -3006.2830501525      7.97E-09 Convergence criterion met
 Total energy in the final basis set = -3006.28305015
   17   -3006.2832195922      9.05E-09 Convergence criterion met
 Total energy in the final basis set = -3006.28321959
   17   -3006.2832252209      8.90E-09 Convergence criterion met
 Total energy in the final basis set = -3006.28322522
   17   -3006.2832027252      8.48E-09 Convergence criterion met
   17   -3006.2832548937      9.04E-09 Convergence criterion met
 Total energy in the final basis set = -3006.28325489
   17   -3006.2832565320      8.99E-09 Convergence criterion met
 Total energy in the final basis set = -3006.28325653
   17   -3006.2832604975      9.01E-09 Convergence criterion met
 Total energy in the final basis set = -3006.28326050
   17   -3006.2832608900      9.09E-09 Convergence criterion met
 Total energy in the final basis set = -3006.28326089
   17   -3006.2832584531      9.07E-09 Convergence criterion met
 Total energy in the final basis set = -3006.28325845
   17   -3006.2832580540      8.98E-09 Convergence criterion met
 Total energy in the final basis set = -3006.28325805

             Standard Nuclear Orientation (Angstroms)
    I     Atom           X                Y                Z
 ----------------------------------------------------------------
    1      N      -0.1423875043    -0.0772195920     0.2075444379
    2      C      -0.2016071106    -0.2075044316     1.6121318930
    3      C       0.9690590705    -0.1098236460     2.3616533177
    4      H       1.9207660689     0.0438565309     1.8699339255
    5      C       0.9027440619    -0.2380660100     3.7371696109
    6      H       1.8101027132    -0.1778102754     4.3224126214
    7      C      -0.3192489600    -0.4527348223     4.3637250408
    8      H      -0.3645362078    -0.5509036634     5.4399523885
    9      C      -1.4833448923    -0.5355841866     3.6109942351
   10      H      -2.4375518728    -0.6862877467     4.0971755126
   11      C      -1.4325598255    -0.4109527427     2.2340837671
   12      H      -2.3409827446    -0.4495706259     1.6465545202
   13      C       0.6459443306     0.9643333330    -0.3321150141
   14      C       1.5313285323     0.6869073901    -1.3714937802
   15      H       1.6304534669    -0.3230502521    -1.7482051045
   16      C       2.2979202953     1.7109951712    -1.8989229505
   17      H       2.9915487717     1.4990138087    -2.7011315726
   18      C       2.1850007458     2.9996602991    -1.3937531654
   19      H       2.7846325494     3.7973411854    -1.8110568956
   20      C       1.3051973578     3.2659102946    -0.3514416932
   21      H       1.2115116056     4.2705598889     0.0375869288
   22      C       0.5352204608     2.2510770144     0.1881470082
   23      H      -0.1625397728     2.4570809214     0.9895609825
   24      C      -0.8356804117    -0.9238123794    -0.6128099533
   25      C      -1.1311764974    -2.2381337726    -0.1970593330
   26      H      -0.7520035323    -2.5993335965     0.7510208026
   27      C      -1.8436684682    -3.0855878530    -1.0141010922
   28      C      -1.2566362379    -0.4903520698    -1.8885982342
   29      H      -1.0568110481     0.5251027806    -2.2057618472
   30      C      -1.9762178305    -1.3288129236    -2.7048223219
   31      C      -2.3090255715    -2.6407765968    -2.2760161827
   32      C      -2.4416561983    -0.8483524092    -4.0460241428
   33      H      -2.0762478190     0.1546717645    -4.2620149505
   34      H      -3.5310105438    -0.8343768962    -4.1030653918
   35      H      -2.0961982392    -1.5156610957    -4.8374225824
   36      C      -2.1414944669    -4.4809165909    -0.5373037584
   37      H      -2.1922545066    -5.1597336381    -1.3904103843
   38      H      -1.3200521890    -4.8322722707     0.0916660454
   39      C      -3.4492955085    -4.5509174850     0.2488981948
   40      H      -4.2953980138    -4.2445113759    -0.3651566757
   41      H      -3.6366652907    -5.5696029925     0.5882989862
   42      H      -3.4163509928    -3.9043505248     1.1271081563
   43      B      -3.2204230905    -3.5570320777    -3.1925038807
   44      C      -4.7400148579    -3.3972636310    -3.1125823388
   45      C      -5.3267992935    -2.4482182669    -2.2455112824
   46      H      -4.6928852105    -1.8199871523    -1.6270102991
   47      C      -6.6894797070    -2.3125611959    -2.1717446039
   48      C      -7.5471991079    -1.4324677412    -1.3775216021
   49      C      -7.3446316398    -0.4433711982    -0.4471907640
   50      H      -6.3504889229    -0.1436624920    -0.1387877194
   51      C      -8.4725691490     0.1969199558     0.1182151812
   52      H      -8.3092787055     0.9767138609     0.8514445020
   53      C      -9.7644104801    -0.1319066485    -0.2263463880
   54      H     -10.5964604479     0.3866257898     0.2346245670
   55      C      -8.8747975122    -1.7597726460    -1.7229791316
   56      C     -10.0043477140    -1.1480983570    -1.1832186864
   57      C      -8.9186151141    -2.7903114410    -2.6851150953
   58      C     -10.1458430201    -3.2256587273    -3.1235499220
   59      H     -10.2426954897    -4.0142005463    -3.8599151953
   60      C     -11.3085657405    -2.6207731276    -2.5918825774
   61      H     -12.2744445081    -2.9659110402    -2.9392947998
   62      C     -11.2577351836    -1.6149077278    -1.6532804121
   63      H     -12.1756059825    -1.1818737758    -1.2741924503
   64      C      -7.5322341287    -3.1416192292    -2.9727878601
   65      C      -6.9830291669    -4.0688164754    -3.8247461720
   66      H      -7.6285996165    -4.6941497091    -4.4334719888
   67      C      -5.5853037665    -4.2184034254    -3.9238153528
   68      C      -2.5987411550    -4.5669586679    -4.1574662123
   69      C      -1.1957017519    -4.7104465632    -4.2590489005
   70      H      -0.5486141142    -4.0924315739    -3.6434325687
   71      C      -0.6430861997    -5.6221765669    -5.1242035722
   72      C       0.7434584142    -5.9807555134    -5.4312479259
   73      C       1.9813873111    -5.5716344619    -5.0019911979
   74      H       2.1000625092    -4.7977821609    -4.2535849258
   75      C       3.1283232008    -6.1856939363    -5.5588406070
   76      H       4.1031410709    -5.8606569779    -5.2175948952
   77      C       3.0541166248    -7.1757874810    -6.5128885389
   78      H       3.9619529126    -7.6149279930    -6.9085421061
   79      C       0.6812637811    -6.9958081370    -6.4091098169
   80      C       1.7905968025    -7.6185071876    -6.9752897110
   81      C      -0.6530704156    -7.3060043432    -6.7442612147
   82      C      -0.8869688321    -8.2790582232    -7.6848128776
   83      H      -1.8910930781    -8.5585681461    -7.9802837339
   84      C       0.2224556261    -8.9265600827    -8.2757060865
   85      H       0.0379098807    -9.6935971705    -9.0174384054
   86      C       1.5227043971    -8.6187380395    -7.9436893518
   87      H       2.3409001071    -9.1422269849    -8.4232777931
   88      C      -1.4940638952    -6.4364818200    -5.9314788507
   89      C      -2.8597567557    -6.3104593195    -5.8512119954
   90      H      -3.4984866367    -6.9313377684    -6.4718850772
   91      C      -3.4484859892    -5.3811917384    -4.9720535562
   92      B      -4.9798570923    -5.2454710124    -4.8947570812
   93      C      -5.9124425140    -6.1593695288    -5.7938576054
   94      C      -6.4555677750    -5.6982129579    -7.0010807055
   95      C      -7.2437673583    -6.5328615107    -7.7877429994
   96      H      -7.6438256283    -6.1659402322    -8.7271652615
   97      C      -7.5241035150    -7.8299516658    -7.3877249624
   98      C      -7.0110196862    -8.2901449490    -6.1807418389
   99      H      -7.2399935636    -9.2983560280    -5.8532485257
  100      C      -6.2094098919    -7.4738946798    -5.3938797819
  101      N      -8.3254107972    -8.6726330555    -8.1931750152
  102      C      -9.5494945755    -8.1975403608    -8.6835994430
  103      C      -9.9578817685    -8.4875816994    -9.9866816496
  104      H      -9.3200683672    -9.0764215944   -10.6336317092
  105      C     -11.1769885565    -8.0274646101   -10.4574415758
  106      H     -11.4766652490    -8.2648806537   -11.4704416404
  107      C     -12.0007133987    -7.2531838199    -9.6518421577
  108      H     -12.9490813895    -6.8902272076   -10.0255123231
  109      C     -11.5892824599    -6.9491429622    -8.3613521311
  110      H     -12.2206190252    -6.3494904711    -7.7179985254
  111      C     -10.3806577117    -7.4212831707    -7.8750475247
  112      H     -10.0794292548    -7.1899535498    -6.8614323511
  113      C      -7.8798526832    -9.9622954534    -8.5111548979
  114      C      -8.7768815080   -11.0310945462    -8.5783342274
  115      H      -9.8278521431   -10.8667822224    -8.3772585127
  116      C      -8.3304958692   -12.3025294788    -8.8996270204
  117      H      -9.0430264041   -13.1164616704    -8.9464424607
  118      C      -6.9839959092   -12.5416900485    -9.1392642197
  119      H      -6.6379590863   -13.5376621480    -9.3820889686
  120      C      -6.0884087299   -11.4842145267    -9.0597151322
  121      H      -5.0351590480   -11.6505229308    -9.2471005998
  122      C      -6.5277963196   -10.2048880268    -8.7579796036
  123      H      -5.8187191713    -9.3883227119    -8.7142767819
  124      C      -5.6695595304    -8.0125606474    -4.0979468692
  125      H      -6.0615673042    -9.0072313028    -3.8852983542
  126      H      -4.5803926934    -8.0833365403    -4.1205153067
  127      H      -5.9255371474    -7.3648561257    -3.2573952715
  128      C      -6.1441919990    -4.3208532529    -7.5257052590
  129      H      -7.0065873966    -3.9363206481    -8.0770381690
  130      H      -5.9769179718    -3.6295247758    -6.6969069033
  131      C      -4.9213094373    -4.3207100582    -8.4401930572
  132      H      -4.0368051477    -4.6702236361    -7.9073738880
  133      H      -5.0719253939    -4.9754195473    -9.3001746618
  134      H      -4.7110771463    -3.3181763006    -8.8156261838
 ----------------------------------------------------------------

   17   -3006.2832578102      8.99E-09 Convergence criterion met
 Total energy in the final basis set = -3006.28325781
 Final energy is   -3006.28325781016
 **  OPTIMIZATION CONVERGED  **

                    Orbital Energies (a.u.)
 --------------------------------------------------------------

 Alpha MOs
 -- Occupied --
-14.768 -14.663 -10.540 -10.530 -10.529 -10.486 -10.486 -10.485
-10.485 -10.485 -10.484 -10.480 -10.479 -10.478 -10.478 -10.478
-10.477 -10.476 -10.476 -10.475 -10.475 -10.472 -10.464 -10.454
-10.453 -10.451 -10.451 -10.450 -10.450 -10.449 -10.449 -10.448
-10.448 -10.448 -10.448 -10.447 -10.447 -10.447 -10.447 -10.446
-10.446 -10.443 -10.443 -10.443 -10.443 -10.441 -10.441 -10.440
-10.439 -10.439 -10.439 -10.439 -10.438 -10.438 -10.438 -10.437
-10.437 -10.436 -10.436 -10.436 -10.436 -10.436 -10.433 -10.431
-10.431 -10.425 -10.425 -10.423 -10.420 -10.413 -10.411 -10.411
-10.409 -10.407 -10.406 -10.406  -6.904  -6.899  -1.157  -1.072
 -1.000  -1.000  -0.998  -0.998  -0.976  -0.955  -0.951  -0.943
 -0.941  -0.931  -0.920  -0.920  -0.907  -0.900  -0.888  -0.887
 -0.880  -0.873  -0.873  -0.870  -0.851  -0.845  -0.843  -0.838
 -0.837  -0.834  -0.834  -0.832  -0.831  -0.824  -0.804  -0.803
 -0.798  -0.796  -0.789  -0.784  -0.783  -0.752  -0.751  -0.745
 -0.722  -0.718  -0.718  -0.715  -0.713  -0.709  -0.704  -0.702
 -0.699  -0.691  -0.675  -0.675  -0.673  -0.668  -0.664  -0.661
 -0.657  -0.648  -0.639  -0.633  -0.628  -0.628  -0.624  -0.624
 -0.600  -0.598  -0.587  -0.586  -0.582  -0.580  -0.579  -0.578
 -0.574  -0.568  -0.560  -0.560  -0.557  -0.554  -0.552  -0.545
 -0.543  -0.535  -0.529  -0.528  -0.526  -0.526  -0.518  -0.515
 -0.514  -0.513  -0.512  -0.510  -0.506  -0.502  -0.498  -0.493
 -0.491  -0.491  -0.490  -0.487  -0.486  -0.483  -0.480  -0.477
 -0.476  -0.475  -0.475  -0.473  -0.472  -0.471  -0.471  -0.468
 -0.465  -0.465  -0.464  -0.457  -0.456  -0.455  -0.451  -0.450
 -0.449  -0.446  -0.444  -0.440  -0.439  -0.433  -0.432  -0.432
 -0.430  -0.428  -0.425  -0.424  -0.423  -0.419  -0.416  -0.415
 -0.412  -0.410  -0.408  -0.406  -0.400  -0.397  -0.396  -0.394
 -0.390  -0.389  -0.388  -0.385  -0.385  -0.384  -0.381  -0.379
 -0.377  -0.373  -0.364  -0.358  -0.355  -0.351  -0.347  -0.340
 -0.335  -0.334  -0.333  -0.325  -0.321  -0.314  -0.311  -0.308
 -0.302  -0.299  -0.295  -0.289  -0.287  -0.286  -0.274  -0.271
 -0.270  -0.264  -0.254  -0.243  -0.240  -0.214  -0.150

 Beta MOs
 -- Occupied --
-14.759 -14.663 -10.540 -10.531 -10.530 -10.486 -10.486 -10.484
-10.483 -10.483 -10.483 -10.481 -10.479 -10.477 -10.477 -10.477
-10.476 -10.476 -10.476 -10.476 -10.476 -10.472 -10.460 -10.454
-10.454 -10.451 -10.451 -10.450 -10.449 -10.449 -10.449 -10.448
-10.448 -10.448 -10.447 -10.447 -10.447 -10.446 -10.446 -10.446
-10.446 -10.443 -10.443 -10.443 -10.443 -10.440 -10.440 -10.440
-10.439 -10.439 -10.439 -10.439 -10.438 -10.437 -10.437 -10.437
-10.436 -10.436 -10.436 -10.436 -10.436 -10.435 -10.433 -10.432
-10.432 -10.425 -10.425 -10.423 -10.420 -10.413 -10.411 -10.410
-10.409 -10.407 -10.405 -10.405  -6.901  -6.897  -1.141  -1.072
 -1.000  -1.000  -0.996  -0.994  -0.972  -0.955  -0.951  -0.941
 -0.939  -0.931  -0.919  -0.919  -0.907  -0.895  -0.887  -0.886
 -0.880  -0.872  -0.871  -0.870  -0.851  -0.845  -0.838  -0.836
 -0.836  -0.833  -0.833  -0.832  -0.831  -0.817  -0.804  -0.800
 -0.797  -0.795  -0.785  -0.783  -0.782  -0.752  -0.746  -0.742
 -0.719  -0.716  -0.716  -0.713  -0.711  -0.708  -0.703  -0.702
 -0.699  -0.691  -0.675  -0.674  -0.671  -0.668  -0.663  -0.660
 -0.654  -0.646  -0.637  -0.633  -0.628  -0.628  -0.623  -0.621
 -0.600  -0.595  -0.583  -0.582  -0.579  -0.578  -0.577  -0.572
 -0.571  -0.567  -0.559  -0.558  -0.554  -0.554  -0.550  -0.544
 -0.543  -0.535  -0.528  -0.526  -0.526  -0.524  -0.517  -0.514
 -0.514  -0.512  -0.511  -0.508  -0.505  -0.501  -0.494  -0.492
 -0.491  -0.490  -0.487  -0.485  -0.484  -0.483  -0.477  -0.476
 -0.475  -0.474  -0.472  -0.472  -0.470  -0.470  -0.468  -0.467
 -0.465  -0.464  -0.462  -0.456  -0.454  -0.452  -0.450  -0.449
 -0.447  -0.443  -0.441  -0.438  -0.437  -0.433  -0.431  -0.430
 -0.428  -0.427  -0.424  -0.422  -0.422  -0.418  -0.415  -0.412
 -0.409  -0.407  -0.406  -0.405  -0.399  -0.396  -0.394  -0.390
 -0.389  -0.387  -0.384  -0.382  -0.382  -0.381  -0.378  -0.376
 -0.375  -0.369  -0.363  -0.355  -0.348  -0.348  -0.346  -0.335
 -0.332  -0.328  -0.325  -0.321  -0.319  -0.304  -0.302  -0.299
 -0.298  -0.297  -0.295  -0.289  -0.284  -0.283  -0.273  -0.264
 -0.260  -0.246  -0.240  -0.232  -0.214

          Ground-State Mulliken Net Atomic Charges

     Atom                 Charge (a.u.)    Spin (a.u.)
  --------------------------------------------------------
      1 N                    -0.578108       0.365775
      2 C                     0.257025      -0.072207
      3 C                    -0.259221       0.094866
      4 H                     0.283070      -0.004958
      5 C                    -0.234745      -0.064296
      6 H                     0.267623       0.003296
      7 C                    -0.227498       0.112026
      8 H                     0.267076      -0.006134
      9 C                    -0.235259      -0.069589
     10 H                     0.269506       0.003782
     11 C                    -0.258683       0.100545
     12 H                     0.288989      -0.005142
     13 C                     0.246075      -0.068656
     14 C                    -0.254808       0.093209
     15 H                     0.288036      -0.004754
     16 C                    -0.235516      -0.064213
     17 H                     0.268851       0.003543
     18 C                    -0.227088       0.102994
     19 H                     0.266731      -0.005644
     20 C                    -0.235804      -0.059442
     21 H                     0.267397       0.003111
     22 C                    -0.255233       0.088316
     23 H                     0.281796      -0.004636
     24 C                     0.336576       0.013686
     25 C                    -0.348493       0.170348
     26 H                     0.285279      -0.008763
     27 C                     0.066452      -0.126164
     28 C                    -0.357253       0.155565
     29 H                     0.287210      -0.007906
     30 C                     0.048313      -0.116929
     31 C                    -0.145842       0.344253
     32 C                    -0.757640       0.009191
     33 H                     0.246887       0.001232
     34 H                     0.268639      -0.004301
     35 H                     0.267153      -0.003380
     36 C                    -0.545106       0.010722
     37 H                     0.276543      -0.003592
     38 H                     0.241223      -0.000506
     39 C                    -0.661244      -0.001923
     40 H                     0.258772      -0.000365
     41 H                     0.235500      -0.000339
     42 H                     0.211784      -0.000107
     43 B                     0.536854       0.333613
     44 C                    -0.131767       0.021519
     45 C                    -0.409818      -0.012540
     46 H                     0.208291      -0.001545
     47 C                     0.071104       0.038046
     48 C                     0.185820      -0.043758
     49 C                    -0.409145       0.068994
     50 H                     0.224256      -0.004074
     51 C                    -0.224885      -0.045819
     52 H                     0.237839       0.002260
     53 C                    -0.360051       0.064248
     54 H                     0.236763      -0.003741
     55 C                    -0.079325       0.023626
     56 C                     0.227243      -0.038182
     57 C                     0.178879      -0.057900
     58 C                    -0.402569       0.086384
     59 H                     0.235715      -0.005054
     60 C                    -0.225382      -0.053503
     61 H                     0.241459       0.002582
     62 C                    -0.359149       0.078891
     63 H                     0.236174      -0.004649
     64 C                     0.070339       0.093112
     65 C                    -0.404450      -0.057247
     66 H                     0.225174       0.002320
     67 C                    -0.147098       0.062875
     68 C                    -0.139258       0.019340
     69 C                    -0.411774      -0.011095
     70 H                     0.205457      -0.001121
     71 C                     0.077045       0.036957
     72 C                     0.182902      -0.043104
     73 C                    -0.409312       0.067907
     74 H                     0.226347      -0.004004
     75 C                    -0.224686      -0.045164
     76 H                     0.238376       0.002228
     77 C                    -0.360699       0.063155
     78 H                     0.236785      -0.003676
     79 C                    -0.078038       0.023322
     80 C                     0.228332      -0.037666
     81 C                     0.178892      -0.057562
     82 C                    -0.401832       0.085525
     83 H                     0.235276      -0.005005
     84 C                    -0.225728      -0.052997
     85 H                     0.241262       0.002558
     86 C                    -0.359082       0.078259
     87 H                     0.236070      -0.004614
     88 C                     0.065493       0.092809
     89 C                    -0.407907      -0.057102
     90 H                     0.229372       0.002214
     91 C                    -0.139687       0.062083
     92 B                     0.550643       0.279876
     93 C                    -0.189491      -0.026290
     94 C                     0.049058       0.004379
     95 C                    -0.353171      -0.001643
     96 H                     0.233521       0.000367
     97 C                     0.284295       0.001914
     98 C                    -0.361088      -0.001519
     99 H                     0.236226       0.000390
    100 C                     0.031964       0.004642
    101 N                    -0.674367      -0.000027
    102 C                     0.300439      -0.000069
    103 C                    -0.296911       0.000121
    104 H                     0.257358      -0.000007
    105 C                    -0.236013      -0.000087
    106 H                     0.240038       0.000004
    107 C                    -0.263125       0.000136
    108 H                     0.236753      -0.000008
    109 C                    -0.235687      -0.000087
    110 H                     0.239969       0.000005
    111 C                    -0.294517       0.000121
    112 H                     0.256678      -0.000007
    113 C                     0.306040      -0.000080
    114 C                    -0.298691       0.000137
    115 H                     0.257489      -0.000008
    116 C                    -0.235599      -0.000091
    117 H                     0.239765       0.000004
    118 C                    -0.264520       0.000145
    119 H                     0.236343      -0.000009
    120 C                    -0.234627      -0.000084
    121 H                     0.239515       0.000005
    122 C                    -0.298623       0.000114
    123 H                     0.256655      -0.000009
    124 C                    -0.759067       0.000389
    125 H                     0.237471       0.001446
    126 H                     0.245893      -0.000392
    127 H                     0.245982      -0.000871
    128 C                    -0.541182       0.002887
    129 H                     0.229632       0.000343
    130 H                     0.254837      -0.001881
    131 C                    -0.656571      -0.000106
    132 H                     0.242676      -0.000292
    133 H                     0.214736      -0.000078
    134 H                     0.218431       0.000003
  --------------------------------------------------------
  Sum of atomic charges =    -0.000000

                    Cartesian Multipole Moments
 -----------------------------------------------------------------
    Charge (ESU x 10^10)
                -0.0000
    Dipole Moment (Debye)
         X      15.5048      Y      16.8367      Z      16.6387
       Tot      28.2970
    Quadrupole Moments (Debye-Ang)
        XX    -503.8083     XY     -64.2007     YY    -513.8949
        XZ     -68.5704     YZ     -70.5632     ZZ    -495.3717

 Total job time:  74416.37s(wall), 228175.62s(cpu)
        *  Thank you very much for using Q-Chem.  Have a nice day.  *
