 Q-Chem 5.0, Q-Chem, Inc., Pleasanton, CA (2017)
 Q-Chem 5.0.1 for Intel X86 EM64T Linux

User input:
--------------------------------------------------------------
$rem
threads 8
jobtype opt
method PBEh-3c
basis def2-mSVP
mem_static      1024
mem_total       8000
sym_ignore      true
unrestricted true
scf_algorithm   diis
scf_max_cycles  250
solvent_method  pcm
geom_opt_tol_energy 25
geom_opt_tol_gradient 75
$end

$pcm
theory  iefpcm
$end

$solvent
dielectric      1.0001
$end

$molecule
read utLEincoords.mol
$end

--------------------------------------------------------------

   38   -3006.2343795608      4.90E-09 Convergence criterion met
 Total energy in the final basis set = -3006.23437956
   21   -3006.2402892624      7.87E-09 Convergence criterion met
 Total energy in the final basis set = -3006.24028926
   21   -3006.2410342548      9.39E-09 Convergence criterion met
 Total energy in the final basis set = -3006.24103425
   21   -3006.2411274731      7.82E-09 Convergence criterion met
 Total energy in the final basis set = -3006.24112747
   20   -3006.2412723475      6.87E-09 Convergence criterion met
 Total energy in the final basis set = -3006.24127235
   16   -3006.2413354416      8.03E-09 Convergence criterion met
 Total energy in the final basis set = -3006.24133544
   15   -3006.2419113395      8.51E-09 Convergence criterion met
 Total energy in the final basis set = -3006.24191134
   13   -3006.2418864087      7.47E-09 Convergence criterion met
   11   -3006.2418994185      9.71E-09 Convergence criterion met
 Total energy in the final basis set = -3006.24189942
   12   -3006.2418972299      7.17E-09 Convergence criterion met
 Total energy in the final basis set = -3006.24189723
   11   -3006.2418775019      7.55E-09 Convergence criterion met
 Total energy in the final basis set = -3006.24187750
   10   -3006.2418626415      5.72E-09 Convergence criterion met
 Total energy in the final basis set = -3006.24186264
    9   -3006.2418559675      9.66E-09 Convergence criterion met
 Total energy in the final basis set = -3006.24185597
    9   -3006.2418476732      6.99E-09 Convergence criterion met
 Total energy in the final basis set = -3006.24184767

             Standard Nuclear Orientation (Angstroms)
    I     Atom           X                Y                Z
 ----------------------------------------------------------------
    1      N      -0.2763964328    -0.0186245083     0.2207101536
    2      C      -0.3514818472    -0.1965909731     1.6245484014
    3      C       0.7915169115    -0.0369134695     2.4006439401
    4      H       1.7368513117     0.2017368091     1.9310908015
    5      C       0.7088984336    -0.2012671809     3.7720891527
    6      H       1.5980604413    -0.0884669227     4.3770964121
    7      C      -0.5044214599    -0.5173820754     4.3684357992
    8      H      -0.5632458130    -0.6452654151     5.4406785752
    9      C      -1.6429895321    -0.6643950347     3.5893067799
   10      H      -2.5929311792    -0.8977939885     4.0504907620
   11      C      -1.5740018427    -0.5002816669     2.2168302974
   12      H      -2.4636917296    -0.5970928892     1.6076500834
   13      C       0.3818527835     1.1420051780    -0.2586285187
   14      C       1.3638546136     1.0227048161    -1.2365329478
   15      H       1.6298107762     0.0461661635    -1.6207608259
   16      C       1.9992816433     2.1598090041    -1.7054195072
   17      H       2.7636931844     2.0686181935    -2.4648828142
   18      C       1.6624516191     3.4066126195    -1.1984449967
   19      H       2.1590941286     4.2931198564    -1.5685607123
   20      C       0.6891422213     3.5161519953    -0.2145448012
   21      H       0.4210049974     4.4873774136     0.1781884547
   22      C       0.0471361244     2.3866389235     0.2619074719
   23      H      -0.7195957318     2.4683782807     1.0211754115
   24      C      -0.8535700751    -0.9046687870    -0.6384068825
   25      C      -1.0695286868    -2.2456387947    -0.2433414822
   26      H      -0.6995129865    -2.5851634948     0.7159958858
   27      C      -1.7036537437    -3.1282892647    -1.0794430061
   28      C      -1.2479747443    -0.4938357732    -1.9341702306
   29      H      -1.0957780607     0.5324150597    -2.2417349028
   30      C      -1.8910648560    -1.3650356256    -2.7731391038
   31      C      -2.1840463612    -2.6952152000    -2.3475059320
   32      C      -2.3488643164    -0.9186044643    -4.1254541880
   33      H      -1.9899132449     0.0817086752    -4.3647370955
   34      H      -3.4384289670    -0.9183705432    -4.1844674834
   35      H      -1.9993660393    -1.6081211972    -4.8955626563
   36      C      -1.9312036609    -4.5436566089    -0.6298087330
   37      H      -1.9458678348    -5.2049105627    -1.4972980511
   38      H      -1.0958733442    -4.8639191945    -0.0018642699
   39      C      -3.2410472731    -4.6900815915     0.1448700128
   40      H      -4.0959942524    -4.4100393954    -0.4688537243
   41      H      -3.3817548464    -5.7240661273     0.4584763271
   42      H      -3.2442776184    -4.0645961201     1.0389022521
   43      B      -3.1048010838    -3.6156059702    -3.2404396508
   44      C      -4.6161721833    -3.4357427635    -3.1105046205
   45      C      -5.1720617978    -2.4878053174    -2.2207117313
   46      H      -4.5184761042    -1.8670874188    -1.6140800098
   47      C      -6.5296246252    -2.3462623631    -2.1061144747
   48      C      -7.3582473215    -1.4706628740    -1.2766179386
   49      C      -7.1228689345    -0.4934541711    -0.3433368200
   50      H      -6.1176873171    -0.2005219779    -0.0654306251
   51      C      -8.2281159751     0.1443247193     0.2652191908
   52      H      -8.0396750365     0.9157691598     1.0012574107
   53      C      -9.5302540379    -0.1763187647    -0.0418475242
   54      H     -10.3447721817     0.3400423780     0.4515440102
   55      C      -8.6965573799    -1.7883434498    -1.5835936806
   56      C      -9.8051867406    -1.1792022875    -1.0016073652
   57      C      -8.7736267657    -2.8067819388    -2.5559192549
   58      C     -10.0152668301    -3.2304834702    -2.9604271812
   59      H     -10.1379132522    -4.0095278972    -3.7025470469
   60      C     -11.1576703081    -2.6283912370    -2.3855993613
   61      H     -12.1352593863    -2.9655385401    -2.7067472713
   62      C     -11.0738530345    -1.6354570903    -1.4375880156
   63      H     -11.9778287254    -1.2040773128    -1.0251510242
   64      C      -7.3996089869    -3.1619067684    -2.8893632275
   65      C      -6.8803341479    -4.0849761854    -3.7646976305
   66      H      -7.5419063211    -4.7020876703    -4.3642884139
   67      C      -5.4891008684    -4.2457021755    -3.8994193295
   68      C      -2.5106370582    -4.6298694875    -4.2123069790
   69      C      -1.1124097245    -4.7857688119    -4.3564121683
   70      H      -0.4389717910    -4.1691656207    -3.7671620349
   71      C      -0.5971390401    -5.7063230174    -5.2329815885
   72      C       0.7765155544    -6.0740359709    -5.5858866254
   73      C       2.0295524411    -5.6699705271    -5.2026227069
   74      H       2.1773755103    -4.8948806064    -4.4608224691
   75      C       3.1531716211    -6.2883606097    -5.7983875180
   76      H       4.1411013933    -5.9671137485    -5.4933723730
   77      C       3.0401326917    -7.2781679275    -6.7471214409
   78      H       3.9314996185    -7.7207487539    -7.1748486928
   79      C       0.6753467095    -7.0901479745    -6.5577979533
   80      C       1.7604017569    -7.7166238896    -7.1631990356
   81      C      -0.6711233404    -7.3935610010    -6.8447706821
   82      C      -0.9417915891    -8.3636297400    -7.7766314493
   83      H      -1.9570123732    -8.6365141971    -8.0372378119
   84      C       0.1421565339    -9.0152752259    -8.4070445809
   85      H      -0.0719835997    -9.7800300059    -9.1429793367
   86      C       1.4535197194    -8.7142661275    -8.1214588463
   87      H       2.2511976361    -9.2407744989    -8.6310584971
   88      C      -1.4787979733    -6.5180914149    -6.0063441782
   89      C      -2.8403299704    -6.3801428124    -5.8824851049
   90      H      -3.5090610842    -6.9972880577    -6.4741327860
   91      C      -3.3908003180    -5.4377476172    -4.9959957609
   92      B      -4.9182859951    -5.2786984243    -4.8846094737
   93      C      -5.8775249009    -6.1692392395    -5.7741874192
   94      C      -6.3265875021    -5.7317050717    -7.0250637456
   95      C      -7.1309595765    -6.5486513080    -7.8127913571
   96      H      -7.4551001007    -6.2014454777    -8.7882432569
   97      C      -7.5252015953    -7.8006265306    -7.3685819672
   98      C      -7.1062151271    -8.2331685706    -6.1151325783
   99      H      -7.4214694287    -9.2052130229    -5.7529934116
  100      C      -6.2853337505    -7.4376318700    -5.3293848384
  101      N      -8.3452014986    -8.6227341486    -8.1748082146
  102      C      -9.4583115317    -8.0665782302    -8.8196546145
  103      C      -9.7762711146    -8.4232682130   -10.1305411050
  104      H      -9.1545435945    -9.1344520953   -10.6589283553
  105      C     -10.8804734504    -7.8714305305   -10.7578830941
  106      H     -11.1103151677    -8.1607901997   -11.7754251445
  107      C     -11.6750556834    -6.9416209428   -10.1035085582
  108      H     -12.5318363961    -6.5062548104   -10.6001270358
  109      C     -11.3537406525    -6.5760919815    -8.8042880987
  110      H     -11.9652226288    -5.8547459626    -8.2775750540
  111      C     -10.2634889326    -7.1370553132    -8.1615053799
  112      H     -10.0265051446    -6.8525431380    -7.1447735719
  113      C      -8.0293620860    -9.9768647398    -8.3440235869
  114      C      -9.0375754718   -10.9409790686    -8.4041504215
  115      H     -10.0736224561   -10.6408790206    -8.3145087127
  116      C      -8.7207326196   -12.2777320218    -8.5752601590
  117      H      -9.5182950820   -13.0084760406    -8.6189666436
  118      C      -7.3982088323   -12.6861393799    -8.6678032824
  119      H      -7.1541045180   -13.7326792996    -8.7919258788
  120      C      -6.3937078806   -11.7323862979    -8.5957639595
  121      H      -5.3561341974   -12.0320446759    -8.6692054039
  122      C      -6.7006355051   -10.3903884252    -8.4457684970
  123      H      -5.9074026173    -9.6558821493    -8.4028645283
  124      C      -5.8433382195    -7.9379448782    -3.9827171309
  125      H      -6.2527556204    -8.9249712882    -3.7676864713
  126      H      -4.7553999611    -8.0080792607    -3.9233675566
  127      H      -6.1602821963    -7.2629009633    -3.1853389432
  128      C      -5.9046535985    -4.4002222617    -7.5913864213
  129      H      -6.7595283975    -3.9285725554    -8.0845209237
  130      H      -5.6081249697    -3.7243355109    -6.7864388862
  131      C      -4.7583833861    -4.5367241827    -8.5908428771
  132      H      -3.8725710342    -4.9574310156    -8.1150265616
  133      H      -5.0348559956    -5.1921062583    -9.4179112789
  134      H      -4.4836218563    -3.5678549963    -9.0103115049
 ----------------------------------------------------------------

    7   -3006.2418437325      8.70E-09 Convergence criterion met
 Total energy in the final basis set = -3006.24184373
 Final energy is   -3006.24184373246
 **  OPTIMIZATION CONVERGED  **

                    Orbital Energies (a.u.)
 --------------------------------------------------------------

 Alpha MOs
 -- Occupied --
-14.776 -14.649 -10.562 -10.549 -10.548 -10.505 -10.505 -10.505
-10.505 -10.499 -10.499 -10.499 -10.498 -10.498 -10.498 -10.496
-10.493 -10.493 -10.492 -10.480 -10.472 -10.472 -10.457 -10.449
-10.443 -10.442 -10.442 -10.441 -10.441 -10.440 -10.440 -10.440
-10.439 -10.438 -10.438 -10.437 -10.437 -10.436 -10.436 -10.435
-10.435 -10.435 -10.433 -10.431 -10.431 -10.431 -10.430 -10.429
-10.429 -10.428 -10.427 -10.427 -10.426 -10.426 -10.426 -10.426
-10.425 -10.425 -10.425 -10.424 -10.424 -10.423 -10.422 -10.420
-10.419 -10.418 -10.410 -10.409 -10.407 -10.402 -10.402 -10.400
-10.396 -10.394 -10.394 -10.390  -6.896  -6.888  -1.170  -1.059
 -1.018  -1.016  -0.994  -0.989  -0.987  -0.942  -0.937  -0.932
 -0.929  -0.922  -0.918  -0.915  -0.910  -0.909  -0.906  -0.895
 -0.894  -0.878  -0.869  -0.858  -0.856  -0.838  -0.836  -0.833
 -0.827  -0.825  -0.824  -0.823  -0.820  -0.819  -0.803  -0.793
 -0.791  -0.788  -0.785  -0.774  -0.769  -0.766  -0.763  -0.742
 -0.738  -0.735  -0.727  -0.708  -0.706  -0.702  -0.694  -0.692
 -0.689  -0.687  -0.678  -0.676  -0.664  -0.663  -0.658  -0.656
 -0.654  -0.649  -0.640  -0.637  -0.623  -0.618  -0.617  -0.617
 -0.610  -0.606  -0.601  -0.590  -0.587  -0.575  -0.572  -0.570
 -0.568  -0.567  -0.563  -0.559  -0.556  -0.551  -0.550  -0.547
 -0.546  -0.542  -0.540  -0.537  -0.531  -0.522  -0.521  -0.518
 -0.515  -0.513  -0.506  -0.503  -0.503  -0.501  -0.497  -0.494
 -0.492  -0.490  -0.485  -0.481  -0.480  -0.479  -0.476  -0.474
 -0.471  -0.471  -0.470  -0.466  -0.466  -0.466  -0.465  -0.464
 -0.463  -0.462  -0.459  -0.457  -0.457  -0.455  -0.454  -0.453
 -0.451  -0.450  -0.445  -0.443  -0.441  -0.436  -0.434  -0.428
 -0.421  -0.420  -0.419  -0.415  -0.410  -0.409  -0.408  -0.406
 -0.405  -0.402  -0.401  -0.398  -0.396  -0.393  -0.392  -0.388
 -0.385  -0.378  -0.376  -0.375  -0.374  -0.372  -0.372  -0.369
 -0.366  -0.365  -0.361  -0.353  -0.352  -0.349  -0.347  -0.345
 -0.343  -0.339  -0.333  -0.326  -0.322  -0.313  -0.310  -0.296
 -0.289  -0.285  -0.284  -0.281  -0.275  -0.275  -0.273  -0.259
 -0.258  -0.247  -0.242  -0.231  -0.226  -0.199  -0.140

 Beta MOs
 -- Occupied --
-14.768 -14.649 -10.561 -10.550 -10.549 -10.504 -10.504 -10.504
-10.504 -10.500 -10.499 -10.499 -10.499 -10.498 -10.497 -10.497
-10.493 -10.491 -10.491 -10.475 -10.472 -10.472 -10.457 -10.449
-10.443 -10.442 -10.442 -10.442 -10.441 -10.440 -10.440 -10.439
-10.439 -10.438 -10.438 -10.437 -10.436 -10.436 -10.435 -10.435
-10.434 -10.434 -10.434 -10.431 -10.431 -10.431 -10.431 -10.429
-10.429 -10.428 -10.427 -10.427 -10.426 -10.426 -10.426 -10.426
-10.425 -10.425 -10.423 -10.423 -10.423 -10.423 -10.422 -10.420
-10.419 -10.419 -10.410 -10.409 -10.407 -10.402 -10.402 -10.400
-10.396 -10.393 -10.392 -10.391  -6.892  -6.886  -1.157  -1.059
 -1.017  -1.012  -0.989  -0.988  -0.987  -0.942  -0.937  -0.930
 -0.928  -0.920  -0.918  -0.911  -0.909  -0.908  -0.905  -0.894
 -0.892  -0.876  -0.869  -0.856  -0.853  -0.838  -0.833  -0.830
 -0.825  -0.824  -0.823  -0.822  -0.820  -0.819  -0.798  -0.790
 -0.790  -0.787  -0.784  -0.772  -0.769  -0.761  -0.760  -0.740
 -0.738  -0.733  -0.725  -0.706  -0.703  -0.701  -0.693  -0.690
 -0.689  -0.687  -0.678  -0.675  -0.663  -0.663  -0.657  -0.653
 -0.653  -0.646  -0.637  -0.635  -0.622  -0.618  -0.616  -0.615
 -0.609  -0.604  -0.591  -0.587  -0.586  -0.573  -0.571  -0.569
 -0.567  -0.566  -0.562  -0.558  -0.555  -0.550  -0.549  -0.546
 -0.544  -0.542  -0.539  -0.537  -0.531  -0.521  -0.520  -0.516
 -0.514  -0.509  -0.503  -0.503  -0.502  -0.497  -0.495  -0.493
 -0.490  -0.484  -0.482  -0.480  -0.479  -0.479  -0.475  -0.472
 -0.471  -0.468  -0.466  -0.466  -0.466  -0.465  -0.464  -0.464
 -0.462  -0.460  -0.457  -0.457  -0.456  -0.454  -0.453  -0.452
 -0.451  -0.446  -0.444  -0.442  -0.440  -0.434  -0.431  -0.427
 -0.420  -0.419  -0.418  -0.413  -0.410  -0.408  -0.406  -0.404
 -0.400  -0.400  -0.396  -0.395  -0.392  -0.390  -0.387  -0.386
 -0.384  -0.378  -0.376  -0.374  -0.371  -0.371  -0.370  -0.368
 -0.365  -0.362  -0.358  -0.349  -0.348  -0.346  -0.344  -0.340
 -0.336  -0.333  -0.321  -0.320  -0.320  -0.308  -0.304  -0.289
 -0.285  -0.285  -0.281  -0.275  -0.272  -0.271  -0.259  -0.247
 -0.247  -0.234  -0.228  -0.220  -0.198

          Ground-State Mulliken Net Atomic Charges

     Atom                 Charge (a.u.)    Spin (a.u.)
  --------------------------------------------------------
      1 N                    -0.602984       0.288129
      2 C                     0.253732      -0.059181
      3 C                    -0.250358       0.067717
      4 H                     0.257841      -0.003682
      5 C                    -0.217980      -0.044460
      6 H                     0.245010       0.002316
      7 C                    -0.215667       0.075487
      8 H                     0.245448      -0.004210
      9 C                    -0.219200      -0.049181
     10 H                     0.250514       0.002853
     11 C                    -0.253190       0.071927
     12 H                     0.270361      -0.003825
     13 C                     0.247339      -0.055724
     14 C                    -0.250926       0.065073
     15 H                     0.266349      -0.003447
     16 C                    -0.219610      -0.044335
     17 H                     0.248076       0.002601
     18 C                    -0.215111       0.067777
     19 H                     0.245325      -0.003786
     20 C                    -0.218724      -0.040340
     21 H                     0.245711       0.002178
     22 C                    -0.245728       0.062157
     23 H                     0.257838      -0.003393
     24 C                     0.348492       0.095822
     25 C                    -0.351989       0.126239
     26 H                     0.267390      -0.007031
     27 C                     0.084940      -0.088648
     28 C                    -0.359906       0.108511
     29 H                     0.268048      -0.006032
     30 C                     0.062763      -0.073367
     31 C                    -0.132403       0.401039
     32 C                    -0.749077       0.006228
     33 H                     0.228778       0.001620
     34 H                     0.282016      -0.002031
     35 H                     0.276453      -0.001807
     36 C                    -0.546736       0.007891
     37 H                     0.292140      -0.003139
     38 H                     0.227426       0.000190
     39 C                    -0.652579       0.000571
     40 H                     0.278959      -0.000645
     41 H                     0.233201       0.000049
     42 H                     0.197722      -0.000176
     43 B                     0.527734       0.372146
     44 C                    -0.123825      -0.000371
     45 C                    -0.401468       0.014110
     46 H                     0.174939      -0.003585
     47 C                     0.089115       0.010059
     48 C                     0.203267      -0.035985
     49 C                    -0.394009       0.058741
     50 H                     0.185361      -0.003554
     51 C                    -0.199899      -0.040998
     52 H                     0.207441       0.002098
     53 C                    -0.345261       0.055698
     54 H                     0.209014      -0.003285
     55 C                    -0.076500       0.023226
     56 C                     0.253028      -0.037027
     57 C                     0.196151      -0.063033
     58 C                    -0.388775       0.091592
     59 H                     0.211999      -0.005441
     60 C                    -0.200631      -0.055600
     61 H                     0.216565       0.002718
     62 C                    -0.344826       0.083051
     63 H                     0.208553      -0.005006
     64 C                     0.086170       0.116680
     65 C                    -0.392799      -0.072263
     66 H                     0.218111       0.003171
     67 C                    -0.149788       0.083211
     68 C                    -0.126779      -0.004635
     69 C                    -0.405548       0.018179
     70 H                     0.175850      -0.002776
     71 C                     0.095060       0.007811
     72 C                     0.200396      -0.034332
     73 C                    -0.394899       0.055410
     74 H                     0.193559      -0.003337
     75 C                    -0.200029      -0.038808
     76 H                     0.209905       0.001986
     77 C                    -0.345436       0.052224
     78 H                     0.209193      -0.003075
     79 C                    -0.074572       0.022092
     80 C                     0.253685      -0.035080
     81 C                     0.195477      -0.060929
     82 C                    -0.387855       0.087374
     83 H                     0.211208      -0.005193
     84 C                    -0.201340      -0.053148
     85 H                     0.216292       0.002600
     86 C                    -0.344060       0.079154
     87 H                     0.208634      -0.004768
     88 C                     0.083833       0.112553
     89 C                    -0.400580      -0.068878
     90 H                     0.223953       0.002921
     91 C                    -0.138964       0.078809
     92 B                     0.591478       0.256985
     93 C                    -0.201774      -0.022593
     94 C                     0.063347       0.003024
     95 C                    -0.346088      -0.000759
     96 H                     0.224083       0.000300
     97 C                     0.289157       0.001339
     98 C                    -0.351594      -0.000614
     99 H                     0.224420       0.000326
    100 C                     0.050483       0.003232
    101 N                    -0.675052       0.001395
    102 C                     0.297580      -0.000344
    103 C                    -0.281853       0.000520
    104 H                     0.244223      -0.000028
    105 C                    -0.213926      -0.000363
    106 H                     0.215183       0.000018
    107 C                    -0.239834       0.000636
    108 H                     0.212191      -0.000036
    109 C                    -0.213112      -0.000387
    110 H                     0.215305       0.000021
    111 C                    -0.276060       0.000545
    112 H                     0.244723      -0.000029
    113 C                     0.305084      -0.000351
    114 C                    -0.284550       0.000537
    115 H                     0.244319      -0.000029
    116 C                    -0.212965      -0.000374
    117 H                     0.214745       0.000019
    118 C                    -0.241176       0.000656
    119 H                     0.211870      -0.000037
    120 C                    -0.211808      -0.000391
    121 H                     0.215163       0.000021
    122 C                    -0.280729       0.000552
    123 H                     0.244486      -0.000029
    124 C                    -0.752192       0.000476
    125 H                     0.225908       0.001372
    126 H                     0.244277      -0.000647
    127 H                     0.242587      -0.000693
    128 C                    -0.542546       0.003585
    129 H                     0.222691       0.000385
    130 H                     0.256262      -0.002169
    131 C                    -0.643936      -0.000452
    132 H                     0.245197      -0.000091
    133 H                     0.209973       0.000011
    134 H                     0.208107       0.000021
  --------------------------------------------------------
  Sum of atomic charges =    -0.000000

                    Cartesian Multipole Moments
 -----------------------------------------------------------------
    Charge (ESU x 10^10)
                -0.0000
    Dipole Moment (Debye)
         X      11.6048      Y      13.4041      Z      13.0254
       Tot      22.0001
    Quadrupole Moments (Debye-Ang)
        XX    -498.2710     XY     -49.4407     YY    -501.5953
        XZ     -52.9587     YZ     -59.1082     ZZ    -489.3258

 Total job time:  93399.45s(wall), 353874.60s(cpu)
        *  Thank you very much for using Q-Chem.  Have a nice day.  *
