 Q-Chem 5.0, Q-Chem, Inc., Pleasanton, CA (2017)
 Q-Chem 5.0.1 for Intel X86 EM64T Linux

User input:
--------------------------------------------------------------
$rem
threads 8
jobtype opt
method PBEh-3c
basis def2-mSVP
mem_static      1024
mem_total       8000
sym_ignore      true
unrestricted true
scf_algorithm	diis
scf_max_cycles	2500
solvent_method  pcm
geom_opt_tol_energy 25
geom_opt_tol_gradient 75
$end

$pcm
theory  iefpcm
$end

$solvent
dielectric      8.93
$end

$molecule
read utLEincoords.mol
$end
--------------------------------------------------------------

   21   -3006.2869521328      8.37E-09 Convergence criterion met
 Total energy in the final basis set = -3006.28695213
   18   -3006.2935430484      9.30E-09 Convergence criterion met
 Total energy in the final basis set = -3006.29354305
   18   -3006.2941111374      9.13E-09 Convergence criterion met
 Total energy in the final basis set = -3006.29411114
   18   -3006.2940700337      9.56E-09 Convergence criterion met
 Total energy in the final basis set = -3006.29407003
   17   -3006.2942663072      9.64E-09 Convergence criterion met
 Total energy in the final basis set = -3006.29426631
   18   -3006.2943958264      7.70E-09 Convergence criterion met
 Total energy in the final basis set = -3006.29439583
   18   -3006.2944540066      7.59E-09 Convergence criterion met
 Total energy in the final basis set = -3006.29445401
   18   -3006.2943978812      7.74E-09 Convergence criterion met
 Total energy in the final basis set = -3006.29439788
   18   -3006.2944460496      8.52E-09 Convergence criterion met
 Total energy in the final basis set = -3006.29444605
   18   -3006.2944638461      8.54E-09 Convergence criterion met
 Total energy in the final basis set = -3006.29446385
   18   -3006.2944674475      8.60E-09 Convergence criterion met
 Total energy in the final basis set = -3006.29446745
   18   -3006.2944609886      8.59E-09 Convergence criterion met
 Total energy in the final basis set = -3006.29446099
   18   -3006.2944593011      8.70E-09 Convergence criterion met
 Total energy in the final basis set = -3006.29445930

             Standard Nuclear Orientation (Angstroms)
    I     Atom           X                Y                Z
 ----------------------------------------------------------------
    1      N      -0.1367923610    -0.0768438422     0.2120973255
    2      C      -0.2040479378    -0.2025764218     1.6150880045
    3      C       0.9628730431    -0.0996539858     2.3710105818
    4      H       1.9172788488     0.0529995776     1.8842667804
    5      C       0.8890528206    -0.2251468808     3.7462122661
    6      H       1.7929889946    -0.1617964541     4.3364141797
    7      C      -0.3363669426    -0.4415320865     4.3662958901
    8      H      -0.3874494920    -0.5369580047     5.4425572822
    9      C      -1.4964724471    -0.5295122382     3.6072606506
   10      H      -2.4529975171    -0.6805095028     4.0888012364
   11      C      -1.4385832446    -0.4088108838     2.2304926450
   12      H      -2.3438676322    -0.4491974606     1.6383232870
   13      C       0.6605579357     0.9552319617    -0.3287950576
   14      C       1.5389676015     0.6689813443    -1.3724813813
   15      H       1.6274521246    -0.3418110014    -1.7495526931
   16      C       2.3150675088     1.6852807839    -1.9006633903
   17      H       3.0045358948     1.4666923771    -2.7047014343
   18      C       2.2176172852     2.9748174782    -1.3934627384
   19      H       2.8248084566     3.7663454532    -1.8116925664
   20      C       1.3437776165     3.2499607360    -0.3479872760
   21      H       1.2617699027     4.2553609617     0.0417721175
   22      C       0.5649889285     2.2430852864     0.1934858589
   23      H      -0.1295212282     2.4565301852     0.9957536527
   24      C      -0.8339680201    -0.9225478905    -0.6093832986
   25      C      -1.1271967527    -2.2364912838    -0.1961023481
   26      H      -0.7447384883    -2.6008929792     0.7494563245
   27      C      -1.8433996311    -3.0820664493    -1.0140212621
   28      C      -1.2591660472    -0.4853423448    -1.8810044963
   29      H      -1.0618265069     0.5313690597    -2.1958201476
   30      C      -1.9808315396    -1.3231548804    -2.6979656756
   31      C      -2.3101268215    -2.6353372437    -2.2727131168
   32      C      -2.4486703245    -0.8365361657    -4.0369129687
   33      H      -2.0847535992     0.1680845658    -4.2476323886
   34      H      -3.5381311348    -0.8221169092    -4.0928916476
   35      H      -2.1019489304    -1.4977372402    -4.8329619980
   36      C      -2.1407832708    -4.4775834341    -0.5361029919
   37      H      -2.1979860376    -5.1563035573    -1.3891007012
   38      H      -1.3160664930    -4.8308746803     0.0872736907
   39      C      -3.4427317576    -4.5463562793     0.2595395840
   40      H      -4.2922770092    -4.2345349282    -0.3473249471
   41      H      -3.6310592862    -5.5651939083     0.5984196163
   42      H      -3.4011272586    -3.9017625926     1.1387219029
   43      B      -3.2201100917    -3.5522647112    -3.1911820528
   44      C      -4.7416002715    -3.3989710830    -3.1124931134
   45      C      -5.3303713299    -2.4522374716    -2.2442463240
   46      H      -4.6978563656    -1.8240698283    -1.6245373658
   47      C      -6.6937531256    -2.3185196124    -2.1715692314
   48      C      -7.5531567860    -1.4405735039    -1.3768324990
   49      C      -7.3519756828    -0.4531783351    -0.4439619690
   50      H      -6.3585253487    -0.1537645851    -0.1331002089
   51      C      -8.4815615561     0.1852441628     0.1211014546
   52      H      -8.3194437778     0.9633735658     0.8562886712
   53      C      -9.7730764424    -0.1435399885    -0.2260000111
   54      H     -10.6061741610     0.3734436674     0.2348047736
   55      C      -8.8801709363    -1.7683284872    -1.7249229510
   56      C     -10.0110384518    -1.1582458820    -1.1853964825
   57      C      -8.9225097633    -2.7973892358    -2.6889248415
   58      C     -10.1490592109    -3.2330767492    -3.1298640895
   59      H     -10.2448836740    -4.0205366413    -3.8676417831
   60      C     -11.3130101069    -2.6296386945    -2.5984547531
   61      H     -12.2782521202    -2.9747769241    -2.9476073615
   62      C     -11.2637502135    -1.6250352750    -1.6579002661
   63      H     -12.1822198639    -1.1930561432    -1.2790303304
   64      C      -7.5350671312    -3.1472176493    -2.9753078777
   65      C      -6.9839609270    -4.0727394779    -3.8279684710
   66      H      -7.6291592548    -4.6971717097    -4.4381373397
   67      C      -5.5853659711    -4.2209103586    -3.9255882589
   68      C      -2.5982264034    -4.5607836846    -4.1593258509
   69      C      -1.1948012720    -4.7001221628    -4.2616231099
   70      H      -0.5493738139    -4.0802749452    -3.6463433920
   71      C      -0.6398324128    -5.6106329090    -5.1273211285
   72      C       0.7476242462    -5.9651336388    -5.4348416721
   73      C       1.9846057274    -5.5513877021    -5.0062363235
   74      H       2.1013511037    -4.7763932418    -4.2587145041
   75      C       3.1332536190    -6.1625903945    -5.5634905637
   76      H       4.1070624898    -5.8339236630    -5.2229614538
   77      C       3.0617817778    -7.1540422435    -6.5168143043
   78      H       3.9706938977    -7.5907635087    -6.9126590622
   79      C       0.6878475626    -6.9812662804    -6.4120531564
   80      C       1.7991137134    -7.6010871764    -6.9783069968
   81      C      -0.6456813981    -7.2960229674    -6.7468552172
   82      C      -0.8772020174    -8.2706415489    -7.6868536744
   83      H      -1.8804726956    -8.5536797855    -7.9821360405
   84      C       0.2343231957    -8.9152465404    -8.2776459388
   85      H       0.0519260855    -9.6834049937    -9.0187387784
   86      C       1.5340168230    -8.6030295700    -7.9460287815
   87      H       2.3538715428    -9.1241986427    -8.4253304938
   88      C      -1.4890137465    -6.4281793124    -5.9341318493
   89      C      -2.8551294828    -6.3060879405    -5.8534687828
   90      H      -3.4915694534    -6.9297896268    -6.4737604099
   91      C      -3.4463722258    -5.3777232277    -4.9741805460
   92      B      -4.9778287637    -5.2465644779    -4.8966367557
   93      C      -5.9095764189    -6.1624521083    -5.7951750305
   94      C      -6.4512851368    -5.7030836103    -7.0037642346
   95      C      -7.2427818378    -6.5370364004    -7.7883166625
   96      H      -7.6407397356    -6.1706066773    -8.7288914843
   97      C      -7.5270741739    -7.8324749487    -7.3854251137
   98      C      -7.0140486888    -8.2916511012    -6.1776880534
   99      H      -7.2455066098    -9.2983912411    -5.8472237151
  100      C      -6.2096458870    -7.4758403029    -5.3928682155
  101      N      -8.3314974620    -8.6742187570    -8.1882713432
  102      C      -9.5534199661    -8.1949138491    -8.6812599548
  103      C      -9.9590922829    -8.4817730262    -9.9859388568
  104      H      -9.3217066090    -9.0712644603   -10.6328230067
  105      C     -11.1759552938    -8.0174302239   -10.4592330214
  106      H     -11.4737679058    -8.2524409763   -11.4733507272
  107      C     -11.9997063010    -7.2420863657    -9.6541702672
  108      H     -12.9461997731    -6.8760057592   -10.0296258511
  109      C     -11.5909579806    -6.9414451517    -8.3617546413
  110      H     -12.2225220342    -6.3415813643    -7.7187836780
  111      C     -10.3846272243    -7.4180494029    -7.8731909283
  112      H     -10.0867245980    -7.1897220364    -6.8578164248
  113      C      -7.8902597707    -9.9660518013    -8.5046797885
  114      C      -8.7911240968   -11.0319633757    -8.5685113004
  115      H      -9.8414237000   -10.8645001638    -8.3661742840
  116      C      -8.3494931144   -12.3057160765    -8.8883643871
  117      H      -9.0648623201   -13.1173074157    -8.9327386455
  118      C      -7.0039032999   -12.5497787618    -9.1299313526
  119      H      -6.6616616268   -13.5473322611    -9.3717666360
  120      C      -6.1044486673   -11.4949924200    -9.0540734354
  121      H      -5.0521291771   -11.6648999493    -9.2435944569
  122      C      -6.5393472980   -10.2134191372    -8.7538254060
  123      H      -5.8267754043    -9.3995814835    -8.7142574342
  124      C      -5.6698766489    -8.0147725793    -4.0968945308
  125      H      -6.0621577919    -9.0092632454    -3.8841426606
  126      H      -4.5807102683    -8.0861660421    -4.1199628155
  127      H      -5.9251404033    -7.3673379893    -3.2558444039
  128      C      -6.1343938082    -4.3291414258    -7.5342163022
  129      H      -7.0017587415    -3.9348792818    -8.0706276041
  130      H      -5.9435768639    -3.6396315533    -6.7090839626
  131      C      -4.9287230415    -4.3437725061    -8.4714542644
  132      H      -4.0392272383    -4.7068684561    -7.9559029294
  133      H      -5.1047089773    -4.9946752324    -9.3294806908
  134      H      -4.7119501931    -3.3435704693    -8.8492823820
 ----------------------------------------------------------------

   18   -3006.2944590801      8.71E-09 Convergence criterion met
 Total energy in the final basis set = -3006.29445908
 Final energy is   -3006.29445908012
 **  OPTIMIZATION CONVERGED  **

                    Orbital Energies (a.u.)
 --------------------------------------------------------------

 Alpha MOs
 -- Occupied --
-14.766 -14.667 -10.535 -10.526 -10.525 -10.490 -10.490 -10.481
-10.480 -10.480 -10.480 -10.477 -10.477 -10.476 -10.475 -10.474
-10.474 -10.473 -10.471 -10.471 -10.471 -10.470 -10.461 -10.457
-10.457 -10.454 -10.454 -10.453 -10.453 -10.452 -10.451 -10.451
-10.451 -10.451 -10.451 -10.451 -10.451 -10.450 -10.450 -10.450
-10.449 -10.446 -10.446 -10.446 -10.446 -10.445 -10.445 -10.444
-10.443 -10.443 -10.443 -10.443 -10.442 -10.442 -10.441 -10.440
-10.440 -10.440 -10.440 -10.440 -10.440 -10.439 -10.436 -10.436
-10.432 -10.430 -10.429 -10.425 -10.423 -10.417 -10.415 -10.415
-10.414 -10.412 -10.411 -10.411  -6.908  -6.903  -1.154  -1.076
 -1.004  -1.004  -0.995  -0.994  -0.972  -0.958  -0.955  -0.946
 -0.944  -0.935  -0.923  -0.923  -0.905  -0.897  -0.890  -0.884
 -0.884  -0.875  -0.869  -0.868  -0.855  -0.849  -0.842  -0.841
 -0.839  -0.837  -0.837  -0.836  -0.835  -0.822  -0.808  -0.807
 -0.801  -0.799  -0.788  -0.787  -0.787  -0.757  -0.748  -0.741
 -0.721  -0.720  -0.718  -0.716  -0.713  -0.707  -0.706  -0.705
 -0.703  -0.696  -0.678  -0.677  -0.674  -0.669  -0.667  -0.661
 -0.658  -0.651  -0.637  -0.635  -0.632  -0.632  -0.628  -0.620
 -0.603  -0.595  -0.586  -0.583  -0.583  -0.581  -0.581  -0.578
 -0.577  -0.571  -0.563  -0.563  -0.557  -0.553  -0.552  -0.547
 -0.541  -0.539  -0.530  -0.530  -0.524  -0.522  -0.518  -0.515
 -0.515  -0.514  -0.510  -0.509  -0.508  -0.505  -0.496  -0.495
 -0.494  -0.494  -0.490  -0.489  -0.488  -0.485  -0.481  -0.480
 -0.479  -0.478  -0.478  -0.476  -0.476  -0.475  -0.472  -0.472
 -0.469  -0.467  -0.462  -0.461  -0.457  -0.454  -0.453  -0.451
 -0.448  -0.445  -0.443  -0.441  -0.437  -0.437  -0.436  -0.431
 -0.428  -0.428  -0.426  -0.425  -0.424  -0.422  -0.419  -0.418
 -0.415  -0.414  -0.412  -0.409  -0.403  -0.400  -0.396  -0.394
 -0.393  -0.392  -0.389  -0.389  -0.388  -0.387  -0.384  -0.383
 -0.380  -0.376  -0.368  -0.361  -0.359  -0.354  -0.351  -0.338
 -0.336  -0.335  -0.330  -0.325  -0.322  -0.313  -0.312  -0.308
 -0.306  -0.303  -0.299  -0.293  -0.291  -0.289  -0.278  -0.275
 -0.269  -0.268  -0.257  -0.247  -0.244  -0.219  -0.154

 Beta MOs
 -- Occupied --
-14.756 -14.667 -10.536 -10.527 -10.526 -10.490 -10.490 -10.479
-10.479 -10.479 -10.478 -10.478 -10.477 -10.476 -10.473 -10.472
-10.472 -10.472 -10.472 -10.472 -10.471 -10.471 -10.458 -10.458
-10.456 -10.454 -10.454 -10.453 -10.452 -10.452 -10.452 -10.452
-10.451 -10.451 -10.450 -10.450 -10.450 -10.450 -10.450 -10.449
-10.449 -10.446 -10.446 -10.446 -10.446 -10.444 -10.444 -10.444
-10.443 -10.443 -10.443 -10.442 -10.441 -10.441 -10.441 -10.440
-10.440 -10.440 -10.440 -10.440 -10.440 -10.439 -10.437 -10.436
-10.432 -10.430 -10.429 -10.425 -10.423 -10.417 -10.414 -10.414
-10.414 -10.412 -10.410 -10.410  -6.905  -6.901  -1.138  -1.076
 -1.004  -1.003  -0.992  -0.990  -0.968  -0.958  -0.955  -0.945
 -0.943  -0.935  -0.923  -0.922  -0.904  -0.894  -0.888  -0.884
 -0.882  -0.875  -0.867  -0.866  -0.855  -0.849  -0.841  -0.840
 -0.836  -0.836  -0.836  -0.835  -0.835  -0.815  -0.808  -0.804
 -0.800  -0.798  -0.786  -0.786  -0.783  -0.757  -0.742  -0.739
 -0.720  -0.718  -0.716  -0.714  -0.711  -0.707  -0.706  -0.704
 -0.703  -0.695  -0.678  -0.677  -0.672  -0.667  -0.666  -0.658
 -0.656  -0.649  -0.636  -0.633  -0.632  -0.631  -0.628  -0.618
 -0.603  -0.592  -0.583  -0.582  -0.580  -0.580  -0.579  -0.576
 -0.571  -0.567  -0.562  -0.561  -0.557  -0.551  -0.550  -0.546
 -0.540  -0.539  -0.529  -0.529  -0.523  -0.520  -0.518  -0.515
 -0.514  -0.512  -0.509  -0.508  -0.507  -0.503  -0.495  -0.494
 -0.493  -0.491  -0.488  -0.488  -0.487  -0.483  -0.480  -0.479
 -0.478  -0.478  -0.475  -0.475  -0.474  -0.473  -0.471  -0.468
 -0.467  -0.464  -0.460  -0.459  -0.455  -0.453  -0.451  -0.449
 -0.445  -0.443  -0.440  -0.437  -0.437  -0.435  -0.435  -0.430
 -0.428  -0.426  -0.425  -0.424  -0.423  -0.420  -0.418  -0.415
 -0.413  -0.411  -0.410  -0.409  -0.402  -0.399  -0.395  -0.394
 -0.392  -0.387  -0.387  -0.386  -0.386  -0.384  -0.382  -0.379
 -0.377  -0.369  -0.367  -0.358  -0.352  -0.351  -0.349  -0.337
 -0.330  -0.327  -0.324  -0.322  -0.319  -0.306  -0.303  -0.302
 -0.301  -0.299  -0.295  -0.293  -0.287  -0.287  -0.277  -0.269
 -0.264  -0.250  -0.244  -0.237  -0.219

          Ground-State Mulliken Net Atomic Charges

     Atom                 Charge (a.u.)    Spin (a.u.)
  --------------------------------------------------------
      1 N                    -0.573196       0.382116
      2 C                     0.258536      -0.074342
      3 C                    -0.260599       0.101695
      4 H                     0.288949      -0.005275
      5 C                    -0.239015      -0.069330
      6 H                     0.272620       0.003541
      7 C                    -0.230390       0.121529
      8 H                     0.271812      -0.006628
      9 C                    -0.239397      -0.074552
     10 H                     0.273634       0.004000
     11 C                    -0.259268       0.107508
     12 H                     0.293945      -0.005458
     13 C                     0.246960      -0.070779
     14 C                    -0.255501       0.099523
     15 H                     0.293013      -0.005040
     16 C                    -0.239696      -0.068693
     17 H                     0.273087       0.003741
     18 C                    -0.230046       0.111563
     19 H                     0.271388      -0.006090
     20 C                    -0.240110      -0.064074
     21 H                     0.272262       0.003343
     22 C                    -0.256609       0.094613
     23 H                     0.287656      -0.004928
     24 C                     0.335032      -0.005386
     25 C                    -0.346555       0.177395
     26 H                     0.289887      -0.008986
     27 C                     0.061917      -0.131425
     28 C                    -0.355979       0.162624
     29 H                     0.291598      -0.008137
     30 C                     0.045208      -0.122545
     31 C                    -0.148876       0.325957
     32 C                    -0.759521       0.009564
     33 H                     0.252564       0.001179
     34 H                     0.263738      -0.004592
     35 H                     0.262710      -0.003651
     36 C                    -0.544294       0.011194
     37 H                     0.269915      -0.003668
     38 H                     0.245839      -0.000625
     39 C                    -0.663382      -0.002323
     40 H                     0.251632      -0.000328
     41 H                     0.235163      -0.000429
     42 H                     0.217688      -0.000089
     43 B                     0.533789       0.326761
     44 C                    -0.134499       0.026248
     45 C                    -0.411191      -0.017427
     46 H                     0.218922      -0.001194
     47 C                     0.064898       0.044200
     48 C                     0.180122      -0.045559
     49 C                    -0.411592       0.071033
     50 H                     0.235674      -0.004160
     51 C                    -0.231333      -0.046748
     52 H                     0.246697       0.002284
     53 C                    -0.362759       0.065805
     54 H                     0.244970      -0.003813
     55 C                    -0.080384       0.023674
     56 C                     0.218912      -0.038261
     57 C                     0.173383      -0.056694
     58 C                    -0.406011       0.084816
     59 H                     0.242045      -0.004944
     60 C                    -0.231933      -0.052858
     61 H                     0.248740       0.002541
     62 C                    -0.361752       0.077497
     63 H                     0.244466      -0.004533
     64 C                     0.065114       0.087425
     65 C                    -0.408462      -0.053155
     66 H                     0.227066       0.002080
     67 C                    -0.147121       0.057950
     68 C                    -0.142106       0.024559
     69 C                    -0.413929      -0.016287
     70 H                     0.215607      -0.000785
     71 C                     0.070973       0.043259
     72 C                     0.177202      -0.045121
     73 C                    -0.411767       0.070406
     74 H                     0.236944      -0.004120
     75 C                    -0.231090      -0.046404
     76 H                     0.246987       0.002267
     77 C                    -0.363453       0.065180
     78 H                     0.244968      -0.003775
     79 C                    -0.079218       0.023541
     80 C                     0.220033      -0.038036
     81 C                     0.173551      -0.056767
     82 C                    -0.405405       0.084660
     83 H                     0.241871      -0.004934
     84 C                    -0.232270      -0.052757
     85 H                     0.248588       0.002535
     86 C                    -0.361816       0.077528
     87 H                     0.244314      -0.004538
     88 C                     0.059850       0.087986
     89 C                    -0.409763      -0.053552
     90 H                     0.230691       0.002005
     91 C                    -0.139826       0.057528
     92 B                     0.537145       0.285462
     93 C                    -0.187724      -0.026734
     94 C                     0.044582       0.004384
     95 C                    -0.355794      -0.001645
     96 H                     0.237116       0.000372
     97 C                     0.285771       0.001894
     98 C                    -0.365036      -0.001515
     99 H                     0.240068       0.000393
    100 C                     0.028483       0.004641
    101 N                    -0.674090      -0.000034
    102 C                     0.299461      -0.000067
    103 C                    -0.300005       0.000118
    104 H                     0.260332      -0.000006
    105 C                    -0.241398      -0.000084
    106 H                     0.246904       0.000004
    107 C                    -0.268500       0.000132
    108 H                     0.243653      -0.000008
    109 C                    -0.241350      -0.000084
    110 H                     0.246830       0.000005
    111 C                    -0.298687       0.000117
    112 H                     0.258995      -0.000007
    113 C                     0.305335      -0.000076
    114 C                    -0.301972       0.000132
    115 H                     0.260471      -0.000007
    116 C                    -0.240947      -0.000087
    117 H                     0.246616       0.000004
    118 C                    -0.270048       0.000140
    119 H                     0.243188      -0.000008
    120 C                    -0.240397      -0.000080
    121 H                     0.246415       0.000004
    122 C                    -0.303128       0.000109
    123 H                     0.259125      -0.000009
    124 C                    -0.760436       0.000388
    125 H                     0.241826       0.001458
    126 H                     0.244961      -0.000405
    127 H                     0.245115      -0.000884
    128 C                    -0.540539       0.003050
    129 H                     0.232656       0.000350
    130 H                     0.253044      -0.001982
    131 C                    -0.658820      -0.000150
    132 H                     0.238517      -0.000270
    133 H                     0.217273      -0.000077
    134 H                     0.221975       0.000006
  --------------------------------------------------------
  Sum of atomic charges =    -0.000000

                    Cartesian Multipole Moments
 -----------------------------------------------------------------
    Charge (ESU x 10^10)
                -0.0000
    Dipole Moment (Debye)
         X      16.2622      Y      17.6883      Z      17.4775
       Tot      29.7119
    Quadrupole Moments (Debye-Ang)
        XX    -501.5635     XY     -67.9340     YY    -514.6228
        XZ     -71.6226     YZ     -71.6345     ZZ    -494.9278

 Total job time:  52756.02s(wall), 168969.33s(cpu)
        *  Thank you very much for using Q-Chem.  Have a nice day.  *
