 Q-Chem 5.0, Q-Chem, Inc., Pleasanton, CA (2017)
 Q-Chem 5.0.1 for Intel X86 EM64T Linux

User input:
--------------------------------------------------------------
$rem
threads 8
jobtype opt
method PBEh-3c
basis def2-mSVP
mem_static      1024
mem_total       8000
sym_ignore      true
unrestricted true
scf_algorithm	diis
scf_max_cycles	250
solvent_method  pcm
geom_opt_tol_energy 25
geom_opt_tol_gradient 75
$end

$pcm
theory  iefpcm
$end

$solvent
dielectric      2.38
$end

$molecule
read utLEincoords.mol
$end
--------------------------------------------------------------

   22   -3006.2606213158      8.23E-09 Convergence criterion met
 Total energy in the final basis set = -3006.26062132
   20   -3006.2679283231      8.23E-09 Convergence criterion met
 Total energy in the final basis set = -3006.26792832
   17   -3006.2688537316      8.80E-09 Convergence criterion met
 Total energy in the final basis set = -3006.26885373
   20   -3006.2689181398      7.41E-09 Convergence criterion met
 Total energy in the final basis set = -3006.26891814
   16   -3006.2690821896      9.81E-09 Convergence criterion met
 Total energy in the final basis set = -3006.26908219
   16   -3006.2690379324      9.90E-09 Convergence criterion met
 Total energy in the final basis set = -3006.26903793
   17   -3006.2693356230      7.43E-09 Convergence criterion met
 Total energy in the final basis set = -3006.26933562
   16   -3006.2692878281      9.03E-09 Convergence criterion met
   16   -3006.2693145789      9.21E-09 Convergence criterion met
 Total energy in the final basis set = -3006.26931458
   16   -3006.2693172711      9.36E-09 Convergence criterion met
 Total energy in the final basis set = -3006.26931727
   16   -3006.2693216766      9.37E-09 Convergence criterion met
 Total energy in the final basis set = -3006.26932168
   16   -3006.2693221342      9.47E-09 Convergence criterion met
 Total energy in the final basis set = -3006.26932213
   16   -3006.2693226149      9.45E-09 Convergence criterion met
 Total energy in the final basis set = -3006.26932261
   16   -3006.2693229548      9.45E-09 Convergence criterion met
 Total energy in the final basis set = -3006.26932295

             Standard Nuclear Orientation (Angstroms)
    I     Atom           X                Y                Z
 ----------------------------------------------------------------
    1      N      -0.1616368300    -0.0709818229     0.2052730054
    2      C      -0.2154310674    -0.2094796027     1.6112588967
    3      C       0.9555946489    -0.1061427018     2.3577592597
    4      H       1.9040988395     0.0592337057     1.8636433765
    5      C       0.8944591704    -0.2393692555     3.7332845800
    6      H       1.8029952407    -0.1734222732     4.3160646373
    7      C      -0.3233542817    -0.4656793359     4.3627352407
    8      H      -0.3647399005    -0.5684069083     5.4386351864
    9      C      -1.4883314465    -0.5544467058     3.6129718654
   10      H      -2.4399600141    -0.7153724624     4.1009009306
   11      C      -1.4421310724    -0.4234567798     2.2362585861
   12      H      -2.3515098300    -0.4694300020     1.6506960013
   13      C       0.6029418218     0.9945488133    -0.3269106143
   14      C       1.5086373938     0.7431109939    -1.3541321011
   15      H       1.6401134244    -0.2636618661    -1.7293590894
   16      C       2.2496810889     1.7891926330    -1.8754778581
   17      H       2.9576556414     1.5970568624    -2.6700919672
   18      C       2.0919650753     3.0743245839    -1.3745844492
   19      H       2.6714675044     3.8892822519    -1.7867480176
   20      C       1.1930181840     3.3146980452    -0.3430089417
   21      H       1.0648358792     4.3164459906     0.0436459508
   22      C       0.4477058680     2.2774524833     0.1891225623
   23      H      -0.2632702383     2.4621257232     0.9840535539
   24      C      -0.8380224483    -0.9241300730    -0.6183500979
   25      C      -1.1274751173    -2.2416020340    -0.2019306263
   26      H      -0.7529450053    -2.5968468892     0.7501601205
   27      C      -1.8283148610    -3.0951208333    -1.0198993542
   28      C      -1.2510793929    -0.4978107495    -1.9009204362
   29      H      -1.0538586085     0.5174911123    -2.2198568541
   30      C      -1.9598441952    -1.3412141582    -2.7189852734
   31      C      -2.2929568126    -2.6543335750    -2.2862225797
   32      C      -2.4202119464    -0.8710972812    -4.0645455538
   33      H      -2.0489526906     0.1276788960    -4.2903681547
   34      H      -3.5094717928    -0.8532498292    -4.1224095324
   35      H      -2.0790776185    -1.5500265243    -4.8478137054
   36      C      -2.1204375847    -4.4918620772    -0.5456476633
   37      H      -2.1604742535    -5.1700487063    -1.3996004154
   38      H      -1.3016087606    -4.8377516622     0.0899501022
   39      C      -3.4349883276    -4.5692817489     0.2291068714
   40      H      -4.2778784019    -4.2707212344    -0.3928546907
   41      H      -3.6176068059    -5.5889228429     0.5677565168
   42      H      -3.4145576989    -3.9216910074     1.1070041624
   43      B      -3.2068053697    -3.5702928931    -3.1983004953
   44      C      -4.7237455956    -3.3999325847    -3.1145542690
   45      C      -5.3050523650    -2.4471037728    -2.2476491423
   46      H      -4.6676153229    -1.8201879335    -1.6310848079
   47      C      -6.6664795602    -2.3067819518    -2.1705261145
   48      C      -7.5192498145    -1.4234938580    -1.3744212439
   49      C      -7.3114267832    -0.4342187194    -0.4460565556
   50      H      -6.3153357911    -0.1363347765    -0.1421526091
   51      C      -8.4352744414     0.2090455631     0.1231314426
   52      H      -8.2679006048     0.9893232251     0.8549672756
   53      C      -9.7286655177    -0.1173383765    -0.2163138139
   54      H     -10.5577313969     0.4034653055     0.2474438894
   55      C      -8.8486289393    -1.7476889938    -1.7147198030
   56      C      -9.9745536827    -1.1333029035    -1.1713329345
   57      C      -8.8978286338    -2.7786835278    -2.6758528333
   58      C     -10.1273788356    -3.2110800273    -3.1094346517
   59      H     -10.2282714571    -3.9997755769    -3.8449376539
   60      C     -11.2866174509    -2.6034996740    -2.5741199746
   61      H     -12.2544828907    -2.9466604622    -2.9178938855
   62      C     -11.2303915982    -1.5976087107    -1.6365118565
   63      H     -12.1460487754    -1.1625189181    -1.2545273129
   64      C      -7.5137844553    -3.1340238064    -2.9677627365
   65      C      -6.9699369513    -4.0640830088    -3.8199751686
   66      H      -7.6179543599    -4.6889035908    -4.4264972773
   67      C      -5.5736673538    -4.2186215889    -3.9222036979
   68      C      -2.5885174318    -4.5840556020    -4.1591962531
   69      C      -1.1862938059    -4.7347847766    -4.2626279230
   70      H      -0.5346938206    -4.1192378066    -3.6489905053
   71      C      -0.6400140632    -5.6498411083    -5.1273689028
   72      C       0.7443083436    -6.0150820440    -5.4371524126
   73      C       1.9847921094    -5.6119625031    -5.0110622005
   74      H       2.1085010396    -4.8388276635    -4.2627434088
   75      C       3.1275793144    -6.2306940301    -5.5703796587
   76      H       4.1047846650    -5.9103224226    -5.2315063220
   77      C       3.0465084393    -7.2198892070    -6.5241913477
   78      H       3.9514995381    -7.6628568149    -6.9220591689
   79      C       0.6754531980    -7.0296524598    -6.4146116013
   80      C       1.7803430229    -7.6569704833    -6.9835439912
   81      C      -0.6609735737    -7.3335070744    -6.7463392607
   82      C      -0.9012398694    -8.3050673650    -7.6861823099
   83      H      -1.9073963034    -8.5796658629    -7.9789951835
   84      C       0.2034793525    -8.9572835585    -8.2799594419
   85      H       0.0136878983    -9.7232578625    -9.0214409097
   86      C       1.5055092638    -8.6555160394    -7.9513248720
   87      H       2.3199550922    -9.1826235372    -8.4332626875
   88      C      -1.4961136801    -6.4601496014    -5.9321982972
   89      C      -2.8609473521    -6.3272075473    -5.8496969397
   90      H      -3.5048498212    -6.9444213161    -6.4685454303
   91      C      -3.4432255401    -5.3943420745    -4.9710676024
   92      B      -4.9740487168    -5.2495722895    -4.8927323227
   93      C      -5.9105774338    -6.1589832758    -5.7913050327
   94      C      -6.4506100932    -5.6957665337    -6.9989137668
   95      C      -7.2391178778    -6.5284372699    -7.7868264680
   96      H      -7.6376454798    -6.1610433676    -8.7266346853
   97      C      -7.5229163548    -7.8247441618    -7.3873642285
   98      C      -7.0137777345    -8.2862385926    -6.1795337181
   99      H      -7.2457961851    -9.2941606079    -5.8535690662
  100      C      -6.2118116687    -7.4721903376    -5.3912583189
  101      N      -8.3241071214    -8.6658530982    -8.1949595946
  102      C      -9.5468786126    -8.1894072499    -8.6859439902
  103      C      -9.9572036319    -8.4827488184    -9.9875710252
  104      H      -9.3208709985    -9.0754808925   -10.6322793138
  105      C     -11.1752823707    -8.0213689067   -10.4586832744
  106      H     -11.4763077324    -8.2614435844   -11.4706279209
  107      C     -11.9963491814    -7.2425394957    -9.6553858656
  108      H     -12.9440775505    -6.8785373034   -10.0294998202
  109      C     -11.5828851917    -6.9349676198    -8.3667404326
  110      H     -12.2120386547    -6.3311903568    -7.7251710693
  111      C     -10.3753071938    -7.4079835556    -7.8798003654
  112      H     -10.0711319774    -7.1734889066    -6.8679089952
  113      C      -7.8793035019    -9.9554339772    -8.5128818692
  114      C      -8.7770124492   -11.0231594552    -8.5847232612
  115      H      -9.8283303658   -10.8571291500    -8.3873179348
  116      C      -8.3308098393   -12.2942910379    -8.9059815028
  117      H      -9.0439815179   -13.1074058660    -8.9564113438
  118      C      -6.9840712173   -12.5346321397    -9.1408983696
  119      H      -6.6381951450   -13.5306179089    -9.3836587629
  120      C      -6.0879273950   -11.4784578442    -9.0563272389
  121      H      -5.0341588273   -11.6458897382    -9.2395083290
  122      C      -6.5267511077   -10.1993790111    -8.7545602662
  123      H      -5.8178377953    -9.3830971861    -8.7057122731
  124      C      -5.6761853789    -8.0103938780    -4.0935066779
  125      H      -6.0683459327    -9.0053055685    -3.8821823720
  126      H      -4.5869101376    -8.0801729910    -4.1117325022
  127      H      -5.9363710504    -7.3625380219    -3.2543911090
  128      C      -6.1355862336    -4.3183531221    -7.5210877780
  129      H      -6.9930495215    -3.9359017251    -8.0815485851
  130      H      -5.9795005354    -3.6261137927    -6.6907980471
  131      C      -4.9027506782    -4.3160483823    -8.4219353918
  132      H      -4.0224682692    -4.6592981698    -7.8784819543
  133      H      -5.0408942819    -4.9745581274    -9.2810616081
  134      H      -4.6928914897    -3.3139197953    -8.7987581192
 ----------------------------------------------------------------

   16   -3006.2693237414      9.48E-09 Convergence criterion met
 Total energy in the final basis set = -3006.26932374
 Final energy is   -3006.26932374144
 **  OPTIMIZATION CONVERGED  **

                    Orbital Energies (a.u.)
 --------------------------------------------------------------

 Alpha MOs
 -- Occupied --
-14.771 -14.657 -10.547 -10.536 -10.535 -10.491 -10.491 -10.491
-10.490 -10.485 -10.484 -10.484 -10.484 -10.483 -10.483 -10.482
-10.482 -10.482 -10.482 -10.481 -10.481 -10.469 -10.466 -10.449
-10.449 -10.448 -10.447 -10.446 -10.446 -10.446 -10.445 -10.445
-10.445 -10.444 -10.443 -10.443 -10.443 -10.443 -10.442 -10.442
-10.442 -10.442 -10.439 -10.439 -10.439 -10.438 -10.436 -10.436
-10.435 -10.435 -10.434 -10.434 -10.434 -10.433 -10.433 -10.433
-10.433 -10.432 -10.432 -10.432 -10.431 -10.431 -10.431 -10.426
-10.426 -10.423 -10.419 -10.419 -10.415 -10.407 -10.407 -10.407
-10.404 -10.401 -10.401 -10.401  -6.901  -6.895  -1.161  -1.067
 -1.004  -1.004  -0.996  -0.995  -0.982  -0.950  -0.946  -0.938
 -0.936  -0.926  -0.916  -0.916  -0.912  -0.904  -0.893  -0.884
 -0.879  -0.879  -0.876  -0.865  -0.847  -0.846  -0.841  -0.834
 -0.833  -0.830  -0.830  -0.828  -0.827  -0.827  -0.800  -0.799
 -0.795  -0.792  -0.791  -0.780  -0.778  -0.755  -0.750  -0.747
 -0.727  -0.723  -0.715  -0.714  -0.711  -0.709  -0.700  -0.697
 -0.695  -0.687  -0.679  -0.670  -0.670  -0.665  -0.664  -0.660
 -0.654  -0.644  -0.644  -0.630  -0.628  -0.624  -0.624  -0.619
 -0.603  -0.596  -0.592  -0.588  -0.586  -0.577  -0.576  -0.574
 -0.570  -0.565  -0.562  -0.558  -0.556  -0.554  -0.550  -0.549
 -0.538  -0.536  -0.532  -0.531  -0.525  -0.524  -0.522  -0.521
 -0.513  -0.510  -0.508  -0.508  -0.503  -0.502  -0.499  -0.495
 -0.489  -0.488  -0.487  -0.486  -0.482  -0.482  -0.479  -0.474
 -0.473  -0.472  -0.471  -0.470  -0.469  -0.469  -0.467  -0.466
 -0.464  -0.461  -0.460  -0.459  -0.457  -0.456  -0.452  -0.451
 -0.449  -0.446  -0.443  -0.442  -0.438  -0.437  -0.435  -0.429
 -0.428  -0.426  -0.424  -0.420  -0.418  -0.415  -0.412  -0.411
 -0.408  -0.405  -0.403  -0.402  -0.400  -0.397  -0.394  -0.392
 -0.390  -0.386  -0.384  -0.381  -0.381  -0.380  -0.377  -0.375
 -0.372  -0.370  -0.359  -0.354  -0.351  -0.349  -0.346  -0.342
 -0.339  -0.337  -0.329  -0.329  -0.317  -0.315  -0.314  -0.303
 -0.297  -0.294  -0.290  -0.284  -0.283  -0.281  -0.276  -0.268
 -0.266  -0.258  -0.249  -0.239  -0.234  -0.209  -0.146

 Beta MOs
 -- Occupied --
-14.762 -14.657 -10.547 -10.537 -10.536 -10.490 -10.489 -10.489
-10.489 -10.486 -10.484 -10.483 -10.483 -10.483 -10.483 -10.482
-10.482 -10.481 -10.481 -10.481 -10.480 -10.466 -10.464 -10.450
-10.449 -10.447 -10.447 -10.447 -10.446 -10.446 -10.446 -10.444
-10.444 -10.444 -10.444 -10.443 -10.443 -10.442 -10.442 -10.442
-10.442 -10.441 -10.439 -10.439 -10.439 -10.438 -10.436 -10.436
-10.435 -10.435 -10.434 -10.434 -10.434 -10.433 -10.433 -10.433
-10.432 -10.432 -10.431 -10.431 -10.431 -10.430 -10.430 -10.427
-10.427 -10.423 -10.419 -10.419 -10.415 -10.407 -10.407 -10.407
-10.404 -10.401 -10.400 -10.400  -6.898  -6.892  -1.146  -1.067
 -1.003  -0.999  -0.995  -0.995  -0.977  -0.950  -0.945  -0.937
 -0.935  -0.926  -0.916  -0.915  -0.910  -0.899  -0.892  -0.883
 -0.878  -0.877  -0.876  -0.865  -0.846  -0.842  -0.841  -0.833
 -0.832  -0.829  -0.829  -0.828  -0.827  -0.820  -0.799  -0.796
 -0.793  -0.791  -0.788  -0.778  -0.777  -0.750  -0.748  -0.747
 -0.724  -0.721  -0.714  -0.712  -0.709  -0.708  -0.699  -0.697
 -0.694  -0.686  -0.677  -0.670  -0.670  -0.664  -0.663  -0.659
 -0.651  -0.642  -0.641  -0.629  -0.626  -0.624  -0.624  -0.618
 -0.600  -0.595  -0.589  -0.582  -0.577  -0.576  -0.575  -0.573
 -0.568  -0.564  -0.560  -0.557  -0.555  -0.553  -0.549  -0.546
 -0.538  -0.535  -0.531  -0.530  -0.524  -0.522  -0.521  -0.521
 -0.512  -0.510  -0.508  -0.508  -0.501  -0.499  -0.496  -0.490
 -0.487  -0.487  -0.486  -0.485  -0.481  -0.479  -0.473  -0.473
 -0.472  -0.472  -0.471  -0.470  -0.469  -0.466  -0.465  -0.465
 -0.463  -0.461  -0.460  -0.456  -0.456  -0.453  -0.451  -0.449
 -0.447  -0.446  -0.442  -0.440  -0.436  -0.435  -0.433  -0.428
 -0.426  -0.425  -0.423  -0.419  -0.418  -0.414  -0.411  -0.409
 -0.405  -0.403  -0.402  -0.401  -0.396  -0.394  -0.391  -0.389
 -0.385  -0.384  -0.381  -0.378  -0.378  -0.377  -0.376  -0.374
 -0.371  -0.368  -0.358  -0.351  -0.345  -0.344  -0.342  -0.341
 -0.334  -0.330  -0.328  -0.320  -0.315  -0.309  -0.301  -0.297
 -0.294  -0.293  -0.290  -0.284  -0.279  -0.279  -0.267  -0.258
 -0.255  -0.241  -0.236  -0.227  -0.209

          Ground-State Mulliken Net Atomic Charges

     Atom                 Charge (a.u.)    Spin (a.u.)
  --------------------------------------------------------
      1 N                    -0.585509       0.342469
      2 C                     0.255859      -0.068696
      3 C                    -0.256931       0.085874
      4 H                     0.275159      -0.004537
      5 C                    -0.229207      -0.057668
      6 H                     0.260675       0.002969
      7 C                    -0.223699       0.099667
      8 H                     0.260446      -0.005486
      9 C                    -0.229902      -0.062915
     10 H                     0.263681       0.003483
     11 C                    -0.257647       0.091222
     12 H                     0.282745      -0.004715
     13 C                     0.245100      -0.064930
     14 C                    -0.253646       0.083854
     15 H                     0.281375      -0.004320
     16 C                    -0.230239      -0.057572
     17 H                     0.262761       0.003237
     18 C                    -0.223192       0.090842
     19 H                     0.260206      -0.005005
     20 C                    -0.230326      -0.052846
     21 H                     0.260676       0.002787
     22 C                    -0.252580       0.079380
     23 H                     0.273912      -0.004215
     24 C                     0.340124       0.039989
     25 C                    -0.350495       0.158941
     26 H                     0.279570      -0.008356
     27 C                     0.072655      -0.117004
     28 C                    -0.358590       0.143909
     29 H                     0.281342      -0.007489
     30 C                     0.052951      -0.106871
     31 C                    -0.141272       0.367002
     32 C                    -0.755064       0.008502
     33 H                     0.240317       0.001321
     34 H                     0.273887      -0.003779
     35 H                     0.271706      -0.002948
     36 C                    -0.545757       0.009958
     37 H                     0.283162      -0.003462
     38 H                     0.236050      -0.000327
     39 C                    -0.658462      -0.001270
     40 H                     0.266663      -0.000436
     41 H                     0.235329      -0.000211
     42 H                     0.205878      -0.000131
     43 B                     0.536895       0.344209
     44 C                    -0.128902       0.014848
     45 C                    -0.407721      -0.005025
     46 H                     0.196268      -0.002102
     47 C                     0.077974       0.029548
     48 C                     0.192360      -0.041290
     49 C                    -0.405025       0.065895
     50 H                     0.210692      -0.003927
     51 C                    -0.216572      -0.044358
     52 H                     0.227112       0.002214
     53 C                    -0.355747       0.061728
     54 H                     0.226878      -0.003613
     55 C                    -0.078129       0.023476
     56 C                     0.236855      -0.037869
     57 C                     0.185244      -0.059447
     58 C                    -0.397954       0.088081
     59 H                     0.227726      -0.005180
     60 C                    -0.217042      -0.054172
     61 H                     0.232620       0.002627
     62 C                    -0.354968       0.080301
     63 H                     0.226264      -0.004773
     64 C                     0.076320       0.100404
     65 C                    -0.399872      -0.062148
     66 H                     0.222930       0.002609
     67 C                    -0.147292       0.069235
     68 C                    -0.135716       0.012087
     69 C                    -0.409266      -0.003067
     70 H                     0.194096      -0.001618
     71 C                     0.083900       0.028213
     72 C                     0.189500      -0.040344
     73 C                    -0.405280       0.064181
     74 H                     0.213996      -0.003816
     75 C                    -0.216432      -0.043274
     76 H                     0.228035       0.002159
     77 C                    -0.356300       0.059984
     78 H                     0.226947      -0.003508
     79 C                    -0.076700       0.022935
     80 C                     0.237861      -0.036954
     81 C                     0.185111      -0.058567
     82 C                    -0.397033       0.086276
     83 H                     0.227009      -0.005075
     84 C                    -0.217445      -0.053115
     85 H                     0.232373       0.002576
     86 C                    -0.354712       0.078764
     87 H                     0.226225      -0.004682
     88 C                     0.071987       0.098973
     89 C                    -0.405476      -0.061231
     90 H                     0.227673       0.002464
     91 C                    -0.139752       0.067782
     92 B                     0.564806       0.272992
     93 C                    -0.191868      -0.025762
     94 C                     0.054004       0.004336
     95 C                    -0.349154      -0.001616
     96 H                     0.229242       0.000360
     97 C                     0.282623       0.001898
     98 C                    -0.355820      -0.001492
     99 H                     0.231475       0.000385
    100 C                     0.036476       0.004588
    101 N                    -0.674774      -0.000000
    102 C                     0.301597      -0.000075
    103 C                    -0.292774       0.000128
    104 H                     0.253387      -0.000007
    105 C                    -0.228833      -0.000092
    106 H                     0.231381       0.000004
    107 C                    -0.255873       0.000145
    108 H                     0.228094      -0.000009
    109 C                    -0.228241      -0.000093
    110 H                     0.231246       0.000005
    111 C                    -0.289120       0.000129
    112 H                     0.253076      -0.000007
    113 C                     0.306896      -0.000086
    114 C                    -0.294288       0.000144
    115 H                     0.253484      -0.000008
    116 C                    -0.228424      -0.000097
    117 H                     0.231101       0.000005
    118 C                    -0.257076       0.000154
    119 H                     0.227741      -0.000009
    120 C                    -0.227077      -0.000090
    121 H                     0.230765       0.000005
    122 C                    -0.292905       0.000122
    123 H                     0.252906      -0.000010
    124 C                    -0.756840       0.000381
    125 H                     0.232847       0.001426
    126 H                     0.246453      -0.000395
    127 H                     0.245698      -0.000842
    128 C                    -0.541573       0.002786
    129 H                     0.226443       0.000334
    130 H                     0.255990      -0.001811
    131 C                    -0.653334      -0.000083
    132 H                     0.246105      -0.000298
    133 H                     0.212631      -0.000076
    134 H                     0.214280       0.000002
  --------------------------------------------------------
  Sum of atomic charges =    -0.000000

                    Cartesian Multipole Moments
 -----------------------------------------------------------------
    Charge (ESU x 10^10)
                -0.0000
    Dipole Moment (Debye)
         X      14.4220      Y      15.7653      Z      15.5459
       Tot      26.4237
    Quadrupole Moments (Debye-Ang)
        XX    -504.6428     XY     -59.7868     YY    -512.0299
        XZ     -64.6438     YZ     -68.3072     ZZ    -494.9876

 Total job time:  84745.48s(wall), 243861.46s(cpu)
        *  Thank you very much for using Q-Chem.  Have a nice day.  *
