 Q-Chem 5.1, Q-Chem, Inc., Pleasanton, CA (2018)
 Q-Chem 5.1.1 for Intel X86 EM64T Linux

User input:
--------------------------------------------------------------
$rem
threads 4
jobtype opt
method PBEh-3c
basis def2-mSVP
mem_static      1024
mem_total       4000
sym_ignore      true
unrestricted true
scf_algorithm	diis
scf_max_cycles	250
solvent_method  pcm
geom_opt_tol_energy 25
geom_opt_tol_gradient 75
$end

$pcm
theory  iefpcm
$end

$solvent
dielectric      2.38
$end

$molecule
read BFCz_kat.mol
$end
--------------------------------------------------------------

   22   -1129.4218023909      9.00e-09  Convergence criterion met
 Total energy in the final basis set =    -1129.4218023909
   18   -1129.4812559842      9.34e-09  Convergence criterion met
 Total energy in the final basis set =    -1129.4812559842
   18   -1129.5233712794      8.12e-09  Convergence criterion met
 Total energy in the final basis set =    -1129.5233712794
   18   -1129.5456907262      8.77e-09  Convergence criterion met
 Total energy in the final basis set =    -1129.5456907262
   18   -1129.5483378356      7.81e-09  Convergence criterion met
 Total energy in the final basis set =    -1129.5483378356
   17   -1129.5478315484      9.91e-09  Convergence criterion met
 Total energy in the final basis set =    -1129.5478315484
   16   -1129.5479477791      6.04e-09  Convergence criterion met
 Total energy in the final basis set =    -1129.5479477791
   15   -1129.5479742332      9.90e-09  Convergence criterion met
   14   -1129.5479341260      6.52e-09  Convergence criterion met
 Total energy in the final basis set =    -1129.5479341260
   14   -1129.5479370686      6.61e-09  Convergence criterion met
 Total energy in the final basis set =    -1129.5479370686
   14   -1129.5479379406      7.08e-09  Convergence criterion met
 Total energy in the final basis set =    -1129.5479379406
   14   -1129.5479342955      7.67e-09  Convergence criterion met
 Total energy in the final basis set =    -1129.5479342955
   14   -1129.5479332467      7.05e-09  Convergence criterion met
 Total energy in the final basis set =    -1129.5479332467
   14   -1129.5479302164      7.44e-09  Convergence criterion met
 Total energy in the final basis set =    -1129.5479302164

             Standard Nuclear Orientation (Angstroms)
    I     Atom           X                Y                Z
 ----------------------------------------------------------------
    1      C       0.3951766646    -1.8410298519     1.2787974298
    2      C      -0.8069579370    -1.7689211165     0.5852100888
    3      C      -1.9931894837    -1.9224006758     1.2959528060
    4      C      -2.0172291339    -2.1505469252     2.6685636857
    5      C      -0.8082562956    -2.2203696247     3.3498446781
    6      C       0.3778993872    -2.0701924734     2.6466512981
    7      N       1.6070767814    -2.2002623080     3.3420303097
    8      C      -0.8349120750    -1.5475676234    -0.8977435083
    9      C      -3.3195235497    -2.3580419435     3.3823013022
   10      C       2.5142053126    -3.1699354686     3.1186922216
   11      C       3.5758243239    -3.0216714878     4.0509760612
   12      C       3.2523300432    -1.8803084509     4.8754527323
   13      C       2.0220055356    -1.3989146898     4.4036570756
   14      C       3.8657775024    -1.2561337720     5.9424699707
   15      C       3.2289728283    -0.1555186960     6.5127423720
   16      C       2.0148886811     0.3147992488     6.0221084339
   17      C       1.3847942780    -0.3000932070     4.9476996734
   18      C       2.4126606977    -4.2310352879     2.1847881235
   19      C       3.4017462677    -5.1745616850     2.1655192506
   20      C       4.4666918376    -5.0647903618     3.0774689003
   21      C       4.5383233288    -3.9886669146     4.0058612341
   22      H      -2.9345127311    -1.8655214588     0.7594404287
   23      H       1.3367022357    -1.7082496918     0.7593352300
   24      H      -0.7910892835    -2.4221919196     4.4140045067
   25      H      -1.1681383493    -2.4482090217    -1.4160679328
   26      H       0.1470299474    -1.2859492930    -1.2881138026
   27      H      -1.5258201447    -0.7484745605    -1.1658438792
   28      H      -3.7299667283    -3.3432692361     3.1549641549
   29      H      -4.0615247957    -1.6212864794     3.0756502588
   30      H      -3.2047163058    -2.2907593906     4.4626764103
   31      H       4.8116541980    -1.6095777215     6.3289104737
   32      H       3.6898334373     0.3461195510     7.3522786760
   33      H       1.5509876723     1.1757667841     6.4829110996
   34      H       0.4435505509     0.0656697295     4.5598844101
   35      H       1.5602074774    -4.3056751120     1.5241587392
   36      H       3.3520279762    -6.0083910746     1.4791532571
   37      C       5.5807517630    -5.8841404170     3.3755592778
   38      O       5.6036245852    -4.1081375970     4.8108695399
   39      C       6.2389722949    -5.2596567698     4.4454506467
   40      C       7.3608788262    -5.7826025987     5.0408348921
   41      C       7.8250388424    -6.9856061208     4.5188000716
   42      C       7.1900832396    -7.6335031625     3.4496412797
   43      C       6.0644772722    -7.0949888077     2.8669156439
   44      H       7.8542352564    -5.2954488758     5.8700375027
   45      H       8.7050697474    -7.4369544678     4.9566545833
   46      H       7.5927212569    -8.5681954267     3.0853179937
   47      H       5.5653967635    -7.5919435464     2.0455023987
 ----------------------------------------------------------------

   14   -1129.5479284754      7.30e-09  Convergence criterion met
 Total energy in the final basis set =    -1129.5479284754
 Final energy is   -1129.54792847545
 **  OPTIMIZATION CONVERGED  **

                    Orbital Energies (a.u.)
 --------------------------------------------------------------

 Alpha MOs
 -- Occupied --
-19.642 -14.810 -10.605 -10.586 -10.586 -10.561 -10.559 -10.554
-10.546 -10.541 -10.533 -10.532 -10.530 -10.523 -10.523 -10.522
-10.519 -10.515 -10.514 -10.514 -10.512 -10.511 -10.508 -10.508
-10.507 -10.497 -10.473 -10.473  -1.317  -1.215  -1.056  -1.043
 -1.032  -1.018  -0.977  -0.954  -0.933  -0.930  -0.917  -0.907
 -0.893  -0.876  -0.827  -0.826  -0.809  -0.806  -0.773  -0.770
 -0.754  -0.721  -0.716  -0.708  -0.684  -0.670  -0.657  -0.645
 -0.634  -0.629  -0.616  -0.614  -0.612  -0.590  -0.583  -0.575
 -0.571  -0.565  -0.562  -0.560  -0.548  -0.531  -0.528  -0.525
 -0.523  -0.512  -0.502  -0.497  -0.494  -0.490  -0.487  -0.485
 -0.480  -0.470  -0.469  -0.464  -0.456  -0.454  -0.447  -0.418
 -0.399  -0.361  -0.356  -0.347  -0.340  -0.327  -0.315

 Beta MOs
 -- Occupied --
-19.642 -14.803 -10.605 -10.586 -10.584 -10.563 -10.559 -10.550
-10.545 -10.538 -10.535 -10.531 -10.531 -10.521 -10.521 -10.520
-10.519 -10.516 -10.515 -10.514 -10.512 -10.510 -10.508 -10.508
-10.507 -10.496 -10.473 -10.473  -1.317  -1.204  -1.051  -1.040
 -1.029  -1.016  -0.973  -0.950  -0.933  -0.929  -0.914  -0.905
 -0.893  -0.869  -0.826  -0.825  -0.807  -0.803  -0.772  -0.767
 -0.751  -0.719  -0.714  -0.706  -0.682  -0.669  -0.656  -0.643
 -0.633  -0.619  -0.613  -0.612  -0.607  -0.589  -0.581  -0.570
 -0.569  -0.561  -0.560  -0.558  -0.547  -0.530  -0.527  -0.524
 -0.521  -0.512  -0.500  -0.497  -0.486  -0.485  -0.480  -0.479
 -0.478  -0.469  -0.464  -0.463  -0.455  -0.450  -0.438  -0.406
 -0.380  -0.354  -0.350  -0.339  -0.331  -0.327

          Ground-State Mulliken Net Atomic Charges

     Atom                 Charge (a.u.)    Spin (a.u.)
  --------------------------------------------------------
      1 C                    -0.341989       0.034170
      2 C                     0.132254      -0.021294
      3 C                    -0.311510       0.037946
      4 C                     0.132418      -0.018680
      5 C                    -0.331206       0.032557
      6 C                     0.298329      -0.028022
      7 N                    -0.671474       0.275809
      8 C                    -0.715494       0.002074
      9 C                    -0.714095       0.002058
     10 C                     0.336141      -0.013288
     11 C                     0.016842       0.080439
     12 C                     0.145539       0.033445
     13 C                     0.331645      -0.079636
     14 C                    -0.372407      -0.000898
     15 C                    -0.218734       0.103140
     16 C                    -0.243607      -0.061671
     17 C                    -0.260475       0.127913
     18 C                    -0.239555       0.205404
     19 C                    -0.350827      -0.139964
     20 C                     0.074785       0.280304
     21 C                     0.343264       0.007032
     22 H                     0.245366      -0.002138
     23 H                     0.267529      -0.001742
     24 H                     0.267588      -0.001788
     25 H                     0.253263      -0.000663
     26 H                     0.244290      -0.000109
     27 H                     0.254856      -0.000590
     28 H                     0.256067      -0.000858
     29 H                     0.252237      -0.000245
     30 H                     0.244133      -0.000151
     31 H                     0.262107       0.000045
     32 H                     0.270301      -0.005817
     33 H                     0.270751       0.002587
     34 H                     0.286549      -0.006696
     35 H                     0.301197      -0.011314
     36 H                     0.270014       0.006083
     37 C                     0.113240      -0.076681
     38 O                    -0.458372      -0.016360
     39 C                     0.374270       0.132367
     40 C                    -0.321400      -0.104082
     41 C                    -0.227679       0.199068
     42 C                    -0.224865      -0.097936
     43 C                    -0.326719       0.137976
     44 H                     0.279535       0.004898
     45 H                     0.277959      -0.010901
     46 H                     0.270175       0.004389
     47 H                     0.257764      -0.008178
  --------------------------------------------------------
  Sum of atomic charges =     1.000000

                    Cartesian Multipole Moments
 -----------------------------------------------------------------
    Charge (ESU x 10^10)
                 4.8032
    Dipole Moment (Debye)
         X      12.8880      Y     -17.0821      Z      16.0558
       Tot      26.7523
    Quadrupole Moments (Debye-Ang)
        XX     -54.9118     XY     -82.0349     YY     -57.8157
        XZ      63.5417     YZ     -45.8029     ZZ     -74.4853

 Total job time:  21305.23s(wall), 79899.13s(cpu)
        *  Thank you very much for using Q-Chem.  Have a nice day.  *
