 Q-Chem 5.1, Q-Chem, Inc., Pleasanton, CA (2018)
 Q-Chem 5.1.1 for Intel X86 EM64T Linux

User input:
--------------------------------------------------------------
$rem
threads 4
jobtype opt
method PBEh-3c
basis def2-mSVP
mem_static      1024
mem_total       4000
sym_ignore      true
unrestricted true
scf_algorithm	diis
scf_max_cycles	250
solvent_method  pcm
geom_opt_tol_energy 25
geom_opt_tol_gradient 75
$end

$pcm
theory  iefpcm
$end

$solvent
dielectric      1.0001
$end

$molecule
read BFCz_kat.mol
$end
--------------------------------------------------------------

   23   -1129.3850399811      6.27e-09  Convergence criterion met
 Total energy in the final basis set =    -1129.3850399811
   18   -1129.4449743500      9.38e-09  Convergence criterion met
 Total energy in the final basis set =    -1129.4449743500
   18   -1129.4875261169      8.70e-09  Convergence criterion met
 Total energy in the final basis set =    -1129.4875261169
   18   -1129.5100695486      9.44e-09  Convergence criterion met
 Total energy in the final basis set =    -1129.5100695486
   18   -1129.5127480467      8.03e-09  Convergence criterion met
 Total energy in the final basis set =    -1129.5127480467
   17   -1129.5122969833      7.79e-09  Convergence criterion met
 Total energy in the final basis set =    -1129.5122969833
   14   -1129.5123076448      9.38e-09  Convergence criterion met
 Total energy in the final basis set =    -1129.5123076448
   13   -1129.5123572309      8.98e-09  Convergence criterion met
    7   -1129.5123316926      9.77e-09  Convergence criterion met
 Total energy in the final basis set =    -1129.5123316926
    8   -1129.5123308958      8.61e-09  Convergence criterion met
 Total energy in the final basis set =    -1129.5123308958
    9   -1129.5123321655      7.44e-09  Convergence criterion met
 Total energy in the final basis set =    -1129.5123321655
    8   -1129.5123316098      8.99e-09  Convergence criterion met
 Total energy in the final basis set =    -1129.5123316098
    7   -1129.5123320242      7.96e-09  Convergence criterion met
 Total energy in the final basis set =    -1129.5123320242
    9   -1129.5123280939      8.90e-09  Convergence criterion met
 Total energy in the final basis set =    -1129.5123280939

             Standard Nuclear Orientation (Angstroms)
    I     Atom           X                Y                Z
 ----------------------------------------------------------------
    1      C       0.3907737909    -1.8454369244     1.2766165803
    2      C      -0.8124662376    -1.7750520441     0.5847412903
    3      C      -1.9958703435    -1.9379887027     1.2973152682
    4      C      -2.0183282660    -2.1675017897     2.6697700692
    5      C      -0.8079603737    -2.2336333956     3.3484034097
    6      C       0.3769227879    -2.0774646881     2.6438565156
    7      N       1.6074958304    -2.2049030660     3.3374298827
    8      C      -0.8464875822    -1.5300823376    -0.8941853195
    9      C      -3.3218916875    -2.3659390757     3.3836860899
   10      C       2.5162681033    -3.1747245296     3.1159784122
   11      C       3.5774041143    -3.0234697874     4.0476660515
   12      C       3.2527343045    -1.8804585659     4.8696990204
   13      C       2.0219925048    -1.4012740097     4.3966124332
   14      C       3.8649553076    -1.2520187106     5.9344883628
   15      C       3.2273485681    -0.1502135505     6.5011723607
   16      C       2.0132493569     0.3179620767     6.0091105724
   17      C       1.3841748797    -0.3006956676     4.9369386082
   18      C       2.4157497557    -4.2378112937     2.1851245672
   19      C       3.4056922940    -5.1806917570     2.1683210185
   20      C       4.4711475275    -5.0690237686     3.0798083444
   21      C       4.5412411369    -3.9898335403     4.0046800694
   22      H      -2.9378374844    -1.8878415310     0.7612566792
   23      H       1.3303429992    -1.7052610233     0.7557365039
   24      H      -0.7877755402    -2.4406991529     4.4114032031
   25      H      -1.3453863207    -2.3484467648    -1.4146157357
   26      H       0.1525322494    -1.4304386113    -1.3147953558
   27      H      -1.3953802562    -0.6177105756    -1.1286517702
   28      H      -3.8325653442    -3.2581846118     3.0196575042
   29      H      -3.9921913664    -1.5218271267     3.2206864153
   30      H      -3.1856102186    -2.4795908296     4.4575033036
   31      H       4.8113769037    -1.6024187176     6.3218013822
   32      H       3.6877366082     0.3547711552     7.3387572961
   33      H       1.5497103678     1.1805058518     6.4669361520
   34      H       0.4435174039     0.0627507688     4.5456952723
   35      H       1.5623184355    -4.3125850510     1.5255448041
   36      H       3.3557052926    -6.0157780029     1.4835560372
   37      C       5.5859734833    -5.8860378157     3.3810027687
   38      O       5.6059570713    -4.1049719886     4.8101061715
   39      C       6.2432250512    -5.2565750986     4.4490348630
   40      C       7.3655837495    -5.7754801324     5.0464389051
   41      C       7.8320344199    -6.9793538837     4.5295120926
   42      C       7.1986244870    -7.6324411904     3.4626751543
   43      C       6.0729095859    -7.0982042785     2.8780514220
   44      H       7.8578785697    -5.2842894730     5.8736111220
   45      H       8.7124955093    -7.4277143212     4.9692191256
   46      H       7.6028021332    -8.5677113494     3.1021674800
   47      H       5.5776564384    -7.6015511173     2.0584455963
 ----------------------------------------------------------------

    9   -1129.5123264733      8.74e-09  Convergence criterion met
 Total energy in the final basis set =    -1129.5123264733
 Final energy is   -1129.51232647331
 **  OPTIMIZATION CONVERGED  **

                    Orbital Energies (a.u.)
 --------------------------------------------------------------

 Alpha MOs
 -- Occupied --
-19.701 -14.871 -10.665 -10.646 -10.645 -10.621 -10.618 -10.614
-10.606 -10.603 -10.595 -10.591 -10.590 -10.583 -10.583 -10.582
-10.579 -10.574 -10.572 -10.572 -10.571 -10.570 -10.568 -10.567
-10.566 -10.555 -10.530 -10.529  -1.377  -1.275  -1.116  -1.103
 -1.092  -1.077  -1.036  -1.015  -0.991  -0.989  -0.976  -0.967
 -0.953  -0.936  -0.885  -0.883  -0.869  -0.866  -0.832  -0.830
 -0.814  -0.781  -0.776  -0.766  -0.744  -0.730  -0.717  -0.706
 -0.694  -0.688  -0.676  -0.674  -0.672  -0.650  -0.643  -0.635
 -0.632  -0.625  -0.622  -0.621  -0.608  -0.588  -0.586  -0.584
 -0.582  -0.568  -0.562  -0.555  -0.553  -0.549  -0.547  -0.543
 -0.540  -0.530  -0.526  -0.524  -0.514  -0.512  -0.505  -0.477
 -0.459  -0.420  -0.415  -0.405  -0.398  -0.386  -0.375

 Beta MOs
 -- Occupied --
-19.701 -14.863 -10.665 -10.646 -10.643 -10.622 -10.618 -10.610
-10.605 -10.600 -10.597 -10.591 -10.591 -10.581 -10.581 -10.579
-10.579 -10.575 -10.572 -10.572 -10.571 -10.570 -10.567 -10.567
-10.566 -10.554 -10.530 -10.529  -1.376  -1.264  -1.111  -1.100
 -1.089  -1.075  -1.033  -1.010  -0.991  -0.988  -0.974  -0.965
 -0.953  -0.929  -0.884  -0.882  -0.866  -0.863  -0.832  -0.827
 -0.811  -0.779  -0.774  -0.764  -0.742  -0.728  -0.716  -0.704
 -0.692  -0.678  -0.673  -0.672  -0.667  -0.649  -0.641  -0.631
 -0.629  -0.622  -0.620  -0.618  -0.607  -0.587  -0.586  -0.584
 -0.581  -0.568  -0.561  -0.554  -0.546  -0.545  -0.540  -0.538
 -0.537  -0.529  -0.523  -0.522  -0.513  -0.508  -0.497  -0.465
 -0.440  -0.413  -0.408  -0.398  -0.390  -0.386

          Ground-State Mulliken Net Atomic Charges

     Atom                 Charge (a.u.)    Spin (a.u.)
  --------------------------------------------------------
      1 C                    -0.342102       0.034114
      2 C                     0.141538      -0.021358
      3 C                    -0.304543       0.039080
      4 C                     0.142069      -0.018764
      5 C                    -0.331196       0.032481
      6 C                     0.299615      -0.027326
      7 N                    -0.671446       0.276834
      8 C                    -0.711271       0.002133
      9 C                    -0.710698       0.002077
     10 C                     0.328642      -0.016226
     11 C                     0.017633       0.078405
     12 C                     0.151223       0.034905
     13 C                     0.328881      -0.080847
     14 C                    -0.366301      -0.001498
     15 C                    -0.206969       0.107656
     16 C                    -0.232435      -0.065324
     17 C                    -0.254480       0.131992
     18 C                    -0.236742       0.201583
     19 C                    -0.345596      -0.136318
     20 C                     0.077001       0.272943
     21 C                     0.341395       0.007992
     22 H                     0.239887      -0.002208
     23 H                     0.254869      -0.001767
     24 H                     0.255888      -0.001799
     25 H                     0.252957      -0.000534
     26 H                     0.239780      -0.000109
     27 H                     0.258822      -0.000765
     28 H                     0.256222      -0.000791
     29 H                     0.255297      -0.000355
     30 H                     0.240875      -0.000117
     31 H                     0.252461       0.000081
     32 H                     0.264546      -0.006071
     33 H                     0.264521       0.002770
     34 H                     0.277622      -0.006951
     35 H                     0.291625      -0.011196
     36 H                     0.255317       0.005965
     37 C                     0.119122      -0.072111
     38 O                    -0.456255      -0.016463
     39 C                     0.376053       0.132028
     40 C                    -0.312753      -0.104036
     41 C                    -0.218466       0.200929
     42 C                    -0.212356      -0.096933
     43 C                    -0.321225       0.135815
     44 H                     0.270505       0.004921
     45 H                     0.271768      -0.011027
     46 H                     0.264919       0.004342
     47 H                     0.243779      -0.008153
  --------------------------------------------------------
  Sum of atomic charges =     1.000000

                    Cartesian Multipole Moments
 -----------------------------------------------------------------
    Charge (ESU x 10^10)
                 4.8032
    Dipole Moment (Debye)
         X      12.8672      Y     -16.8608      Z      16.2292
       Tot      26.7065
    Quadrupole Moments (Debye-Ang)
        XX     -52.1693     XY     -82.5767     YY     -58.3757
        XZ      64.9539     YZ     -46.2949     ZZ     -73.1131

 Total job time:  8382.92s(wall), 30793.63s(cpu)
        *  Thank you very much for using Q-Chem.  Have a nice day.  *
