 Q-Chem 5.1, Q-Chem, Inc., Pleasanton, CA (2018)
 Q-Chem 5.1.1 for Intel X86 EM64T Linux

User input:
--------------------------------------------------------------
$rem
threads 4
jobtype	opt
method PBEh-3c
basis def2-mSVP
mem_static	1024
mem_total	3000
sym_ignore	true
scf_convergence	9
solvent_method	pcm
$end

$molecule
read BFCz.mol
$end

$solvent
dielectric	2.38
$end

$pcm
theory iefpcm
$end

--------------------------------------------------------------

   17   -1129.6572763267      6.60e-10  Convergence criterion met
 Total energy in the final basis set =    -1129.6572763267
   15   -1129.7140981722      7.47e-10  Convergence criterion met
 Total energy in the final basis set =    -1129.7140981722
   15   -1129.7532924521      7.24e-10  Convergence criterion met
 Total energy in the final basis set =    -1129.7532924521
   15   -1129.7727932321      6.15e-10  Convergence criterion met
 Total energy in the final basis set =    -1129.7727932321
   15   -1129.7745754798      4.94e-10  Convergence criterion met
 Total energy in the final basis set =    -1129.7745754798
   14   -1129.7742129512      9.26e-10  Convergence criterion met
 Total energy in the final basis set =    -1129.7742129512
   14   -1129.7741320190      5.63e-10  Convergence criterion met
 Total energy in the final basis set =    -1129.7741320190
   14   -1129.7741047628      5.81e-10  Convergence criterion met
 Total energy in the final basis set =    -1129.7741047628
   14   -1129.7740695906      5.60e-10  Convergence criterion met
 Total energy in the final basis set =    -1129.7740695906
   14   -1129.7740712380      5.49e-10  Convergence criterion met
 Total energy in the final basis set =    -1129.7740712380
   14   -1129.7740752186      5.43e-10  Convergence criterion met
 Total energy in the final basis set =    -1129.7740752186

             Standard Nuclear Orientation (Angstroms)
    I     Atom           X                Y                Z
 ----------------------------------------------------------------
    1      C       0.3464646253    -1.7568497288     1.2482196473
    2      C      -0.8715712628    -1.7248938227     0.5780617239
    3      C      -2.0363474195    -1.9465715266     1.3043344976
    4      C      -2.0153194623    -2.2086392238     2.6703253920
    5      C      -0.7867627695    -2.2546511604     3.3185123523
    6      C       0.3839763187    -2.0276295312     2.6079151323
    7      N       1.6298264401    -2.1242620407     3.2660074885
    8      C      -0.9385274441    -1.4636753787    -0.8986779533
    9      C      -3.2946608971    -2.4656518376     3.4125540248
   10      C       2.5315107977    -3.1453307426     3.0683481156
   11      C       3.5655047934    -3.0215053744     4.0139769083
   12      C       3.2583560984    -1.8790384870     4.8273267972
   13      C       2.0470962476    -1.3594478673     4.3334895252
   14      C       3.8711661294    -1.2729921763     5.9189059751
   15      C       3.2675468527    -0.1681430554     6.4906992161
   16      C       2.0669715176     0.3382652024     5.9815542367
   17      C       1.4390997061    -0.2456406083     4.8967367256
   18      C       2.4442365285    -4.1932045862     2.1439038868
   19      C       3.4249591079    -5.1605150415     2.1555177876
   20      C       4.4699700328    -5.0738492479     3.0807826455
   21      C       4.5300405842    -4.0180986751     3.9856376410
   22      H      -2.9909033463    -1.9205891809     0.7879561846
   23      H       1.2706999049    -1.5793788254     0.7115122066
   24      H      -0.7351842424    -2.4871873051     4.3753907970
   25      H      -1.3536865274    -2.3217845170    -1.4298503843
   26      H       0.0458678929    -1.2611523541    -1.3179529748
   27      H      -1.5773478358    -0.6081973868    -1.1217535044
   28      H      -3.8079496914    -3.3433644359     3.0169160701
   29      H      -3.9810568869    -1.6228949606     3.3212456281
   30      H      -3.1178005187    -2.6370205264     4.4732555261
   31      H       4.7991211706    -1.6644609637     6.3138754329
   32      H       3.7276117196     0.3135464540     7.3429665509
   33      H       1.6172684006     1.2062632370     6.4457715942
   34      H       0.5099356966     0.1480557890     4.5055202840
   35      H       1.6163074144    -4.2563849465     1.4507131723
   36      H       3.3741330137    -5.9907773578     1.4628265733
   37      C       5.5917406049    -5.9139976429     3.4068375402
   38      O       5.5859578265    -4.1342813121     4.8240096554
   39      C       6.2258793965    -5.2863769828     4.4800987355
   40      C       7.3415026578    -5.8073182945     5.1024244512
   41      C       7.8255093809    -7.0109338575     4.6076944843
   42      C       7.2098838705    -7.6588493581     3.5352414707
   43      C       6.0892582406    -7.1194706598     2.9258221356
   44      H       7.8128874528    -5.3073706995     5.9377101477
   45      H       8.6977882605    -7.4560677928     5.0676003636
   46      H       7.6145961127    -8.5970532595     3.1793968953
   47      H       5.6102235067    -7.6279679505     2.0986091977
 ----------------------------------------------------------------

   14   -1129.7740756037      5.40e-10  Convergence criterion met
 Total energy in the final basis set =    -1129.7740756037
 Final energy is   -1129.77407560366
 **  OPTIMIZATION CONVERGED  **

                    Orbital Energies (a.u.)
 --------------------------------------------------------------

 Alpha MOs
 -- Occupied --
-19.567 -14.694 -10.515 -10.508 -10.497 -10.495 -10.489 -10.466
-10.466 -10.458 -10.457 -10.457 -10.455 -10.453 -10.453 -10.452
-10.452 -10.452 -10.451 -10.449 -10.449 -10.448 -10.447 -10.447
-10.447 -10.441 -10.436 -10.436  -1.237  -1.116  -0.983  -0.968
 -0.958  -0.951  -0.901  -0.885  -0.874  -0.862  -0.845  -0.836
 -0.815  -0.807  -0.781  -0.777  -0.736  -0.729  -0.700  -0.697
 -0.678  -0.659  -0.649  -0.646  -0.612  -0.603  -0.585  -0.570
 -0.569  -0.561  -0.548  -0.542  -0.540  -0.519  -0.513  -0.504
 -0.502  -0.493  -0.490  -0.488  -0.486  -0.481  -0.474  -0.473
 -0.472  -0.457  -0.449  -0.436  -0.432  -0.422  -0.417  -0.416
 -0.412  -0.410  -0.409  -0.403  -0.399  -0.390  -0.380  -0.340
 -0.321  -0.299  -0.291  -0.289  -0.278  -0.251  -0.234

          Ground-State Mulliken Net Atomic Charges

     Atom                 Charge (a.u.)
  ----------------------------------------
      1 C                    -0.349357
      2 C                     0.135851
      3 C                    -0.329880
      4 C                     0.136686
      5 C                    -0.335118
      6 C                     0.313590
      7 N                    -0.729962
      8 C                    -0.717890
      9 C                    -0.717573
     10 C                     0.310538
     11 C                    -0.002624
     12 C                     0.095314
     13 C                     0.340068
     14 C                    -0.379161
     15 C                    -0.245634
     16 C                    -0.252337
     17 C                    -0.294089
     18 C                    -0.289542
     19 C                    -0.373714
     20 C                     0.053299
     21 C                     0.289849
     22 H                     0.223476
     23 H                     0.249864
     24 H                     0.250162
     25 H                     0.241893
     26 H                     0.239939
     27 H                     0.242114
     28 H                     0.242706
     29 H                     0.241255
     30 H                     0.240271
     31 H                     0.234411
     32 H                     0.231633
     33 H                     0.234377
     34 H                     0.250593
     35 H                     0.254323
     36 H                     0.229594
     37 C                     0.100226
     38 O                    -0.478056
     39 C                     0.348484
     40 C                    -0.334981
     41 C                    -0.254631
     42 C                    -0.236179
     43 C                    -0.360568
     44 H                     0.248628
     45 H                     0.238881
     46 H                     0.235448
     47 H                     0.227821
  ----------------------------------------
  Sum of atomic charges =     0.000000

                    Cartesian Multipole Moments
 -----------------------------------------------------------------
    Charge (ESU x 10^10)
                 0.0000
    Dipole Moment (Debye)
         X      -3.4630      Y      -0.1528      Z      -1.9078
       Tot       3.9567
    Quadrupole Moments (Debye-Ang)
        XX    -155.0601     XY      -0.1715     YY    -152.3422
        XZ      -5.8949     YZ      10.4429     ZZ    -160.3437

 Total job time:  5546.76s(wall), 21068.34s(cpu)
        *  Thank you very much for using Q-Chem.  Have a nice day.  *
