 Q-Chem 5.1, Q-Chem, Inc., Pleasanton, CA (2018)
 Q-Chem 5.1.1 for Intel X86 EM64T Linux

User input:
--------------------------------------------------------------
$rem
threads 4
jobtype opt
method PBEh-3c
basis def2-mSVP
mem_static      1024
mem_total       4000
sym_ignore      true
unrestricted true
scf_algorithm	diis
scf_max_cycles	250
solvent_method  pcm
geom_opt_tol_energy 25
geom_opt_tol_gradient 75
$end

$pcm
theory  iefpcm
$end

$solvent
dielectric      1.0001
$end

$molecule
read BFCz.mol
$end
--------------------------------------------------------------

   14   -1129.6483152402      8.48e-09  Convergence criterion met
 Total energy in the final basis set =    -1129.6483152402
   12   -1129.7058285814      7.66e-09  Convergence criterion met
 Total energy in the final basis set =    -1129.7058285814
   12   -1129.7456066238      7.89e-09  Convergence criterion met
 Total energy in the final basis set =    -1129.7456066238
   12   -1129.7655150538      7.88e-09  Convergence criterion met
 Total energy in the final basis set =    -1129.7655150538
   12   -1129.7673192844      4.05e-09  Convergence criterion met
 Total energy in the final basis set =    -1129.7673192844
   11   -1129.7669453224      7.62e-09  Convergence criterion met
 Total energy in the final basis set =    -1129.7669453224
   10   -1129.7668436455      3.74e-09  Convergence criterion met
 Total energy in the final basis set =    -1129.7668436455
    9   -1129.7668357923      6.46e-09  Convergence criterion met
    7   -1129.7668248980      3.64e-09  Convergence criterion met
 Total energy in the final basis set =    -1129.7668248980
    6   -1129.7668261798      4.99e-09  Convergence criterion met
 Total energy in the final basis set =    -1129.7668261798
    7   -1129.7668315018      6.95e-09  Convergence criterion met
 Total energy in the final basis set =    -1129.7668315018
    7   -1129.7668346232      7.27e-09  Convergence criterion met
 Total energy in the final basis set =    -1129.7668346232
    7   -1129.7668361164      8.48e-09  Convergence criterion met
 Total energy in the final basis set =    -1129.7668361164
    6   -1129.7668330672      7.99e-09  Convergence criterion met
 Total energy in the final basis set =    -1129.7668330672

             Standard Nuclear Orientation (Angstroms)
    I     Atom           X                Y                Z
 ----------------------------------------------------------------
    1      C       0.3477705759    -1.7641529608     1.2474744556
    2      C      -0.8708587045    -1.7229478887     0.5787571268
    3      C      -2.0366048847    -1.9172510202     1.3089483810
    4      C      -2.0159021954    -2.1673272780     2.6773291171
    5      C      -0.7879212749    -2.2232578309     3.3230740062
    6      C       0.3858062624    -2.0209589753     2.6091351637
    7      N       1.6295917494    -2.1217929492     3.2661987604
    8      C      -0.9262369926    -1.4978846825    -0.9041508922
    9      C      -3.2929348964    -2.4216137716     3.4239131204
   10      C       2.5321895332    -3.1425711913     3.0629889786
   11      C       3.5633066844    -3.0246438506     4.0112115580
   12      C       3.2550599201    -1.8881195959     4.8318101938
   13      C       2.0455664753    -1.3643333606     4.3404523300
   14      C       3.8663595875    -1.2905801635     5.9279021254
   15      C       3.2631863082    -0.1895902340     6.5063785611
   16      C       2.0649423426     0.3216849769     5.9990788024
   17      C       1.4383509082    -0.2539531510     4.9096141886
   18      C       2.4463081492    -4.1853934392     2.1337156884
   19      C       3.4264154690    -5.1529572572     2.1428718787
   20      C       4.4690242872    -5.0722746002     3.0702126281
   21      C       4.5270867639    -4.0211623957     3.9804583749
   22      H      -2.9918320576    -1.8764502614     0.7955325243
   23      H       1.2737474382    -1.5989575436     0.7098766348
   24      H      -0.7362360634    -2.4414313472     4.3829937789
   25      H      -0.9157919689    -2.4476975691    -1.4430206026
   26      H      -0.0756099605    -0.9163222091    -1.2574307897
   27      H      -1.8344256299    -0.9715195312    -1.1963870435
   28      H      -3.6408209745    -3.4437037354     3.2620486286
   29      H      -4.0892662019    -1.7539928741     3.0950112639
   30      H      -3.1671030656    -2.2870781226     4.4972495198
   31      H       4.7932684877    -1.6869184989     6.3198428568
   32      H       3.7224352891     0.2856152405     7.3624871586
   33      H       1.6160666111     1.1873489704     6.4680489313
   34      H       0.5115431465     0.1442470663     4.5176883850
   35      H       1.6183832026    -4.2453622587     1.4405184300
   36      H       3.3759580842    -5.9799513990     1.4464308033
   37      C       5.5889279766    -5.9143576760     3.3958090541
   38      O       5.5801801012    -4.1415241084     4.8209993827
   39      C       6.2196509516    -5.2916546533     4.4737425655
   40      C       7.3325383182    -5.8166500156     5.0967127337
   41      C       7.8178316921    -7.0176634306     4.5988514301
   42      C       7.2057932589    -7.6602322643     3.5220772759
   43      C       6.0879929178    -7.1173967122     2.9120737205
   44      H       7.8006855547    -5.3201425905     5.9354981748
   45      H       8.6882706140    -7.4652075893     5.0595443235
   46      H       7.6110213980    -8.5969068148     3.1633210300
   47      H       5.6120648120    -7.6223484523     2.0810752826
 ----------------------------------------------------------------

    5   -1129.7668334950      7.07e-09  Convergence criterion met
 Total energy in the final basis set =    -1129.7668334950
 Final energy is   -1129.76683349504
 **  OPTIMIZATION CONVERGED  **

                    Orbital Energies (a.u.)
 --------------------------------------------------------------

 Alpha MOs
 -- Occupied --
-19.562 -14.692 -10.511 -10.505 -10.499 -10.491 -10.486 -10.469
-10.468 -10.455 -10.454 -10.454 -10.454 -10.454 -10.451 -10.451
-10.451 -10.451 -10.449 -10.448 -10.447 -10.446 -10.446 -10.445
-10.444 -10.443 -10.442 -10.438  -1.233  -1.114  -0.984  -0.965
 -0.955  -0.950  -0.900  -0.889  -0.871  -0.861  -0.842  -0.834
 -0.813  -0.806  -0.785  -0.780  -0.735  -0.727  -0.699  -0.694
 -0.676  -0.663  -0.648  -0.644  -0.611  -0.602  -0.585  -0.572
 -0.567  -0.563  -0.548  -0.540  -0.536  -0.518  -0.511  -0.502
 -0.502  -0.492  -0.491  -0.489  -0.484  -0.483  -0.480  -0.476
 -0.470  -0.462  -0.447  -0.441  -0.431  -0.421  -0.417  -0.414
 -0.413  -0.410  -0.408  -0.405  -0.398  -0.388  -0.378  -0.336
 -0.317  -0.301  -0.292  -0.285  -0.275  -0.247  -0.231

 Beta MOs
 -- Occupied --
-19.562 -14.692 -10.511 -10.505 -10.499 -10.491 -10.486 -10.469
-10.468 -10.455 -10.454 -10.454 -10.454 -10.454 -10.451 -10.451
-10.451 -10.451 -10.449 -10.448 -10.447 -10.446 -10.446 -10.445
-10.444 -10.443 -10.442 -10.438  -1.233  -1.114  -0.984  -0.965
 -0.955  -0.950  -0.900  -0.889  -0.871  -0.861  -0.842  -0.834
 -0.813  -0.806  -0.785  -0.780  -0.735  -0.727  -0.699  -0.694
 -0.676  -0.663  -0.648  -0.644  -0.611  -0.602  -0.585  -0.572
 -0.567  -0.563  -0.548  -0.540  -0.536  -0.518  -0.511  -0.502
 -0.502  -0.492  -0.491  -0.489  -0.484  -0.483  -0.480  -0.476
 -0.470  -0.462  -0.447  -0.441  -0.431  -0.421  -0.417  -0.414
 -0.413  -0.410  -0.408  -0.405  -0.398  -0.388  -0.378  -0.336
 -0.317  -0.301  -0.292  -0.285  -0.275  -0.247  -0.231

          Ground-State Mulliken Net Atomic Charges

     Atom                 Charge (a.u.)    Spin (a.u.)
  --------------------------------------------------------
      1 C                    -0.341033       0.000000
      2 C                     0.144007       0.000000
      3 C                    -0.324420      -0.000000
      4 C                     0.144806       0.000000
      5 C                    -0.327565      -0.000000
      6 C                     0.322445      -0.000000
      7 N                    -0.734798      -0.000000
      8 C                    -0.708221      -0.000000
      9 C                    -0.709227      -0.000000
     10 C                     0.309814      -0.000000
     11 C                     0.004202       0.000000
     12 C                     0.103851      -0.000000
     13 C                     0.341463       0.000000
     14 C                    -0.369627       0.000000
     15 C                    -0.229007      -0.000000
     16 C                    -0.237139       0.000000
     17 C                    -0.284571       0.000000
     18 C                    -0.278350      -0.000000
     19 C                    -0.363262       0.000000
     20 C                     0.062907       0.000000
     21 C                     0.292905      -0.000000
     22 H                     0.207500      -0.000000
     23 H                     0.238075      -0.000000
     24 H                     0.239019       0.000000
     25 H                     0.239474       0.000000
     26 H                     0.234710       0.000000
     27 H                     0.232102       0.000000
     28 H                     0.241179       0.000000
     29 H                     0.232452       0.000000
     30 H                     0.233926      -0.000000
     31 H                     0.223537       0.000000
     32 H                     0.216589      -0.000000
     33 H                     0.218322       0.000000
     34 H                     0.237680       0.000000
     35 H                     0.240596       0.000000
     36 H                     0.210206       0.000000
     37 C                     0.108957      -0.000000
     38 O                    -0.475481       0.000000
     39 C                     0.354033      -0.000000
     40 C                    -0.323883       0.000000
     41 C                    -0.240142       0.000000
     42 C                    -0.220818      -0.000000
     43 C                    -0.350199       0.000000
     44 H                     0.232174      -0.000000
     45 H                     0.222388       0.000000
     46 H                     0.219382      -0.000000
     47 H                     0.209042       0.000000
  --------------------------------------------------------
  Sum of atomic charges =     0.000000

                    Cartesian Multipole Moments
 -----------------------------------------------------------------
    Charge (ESU x 10^10)
                 0.0000
    Dipole Moment (Debye)
         X      -2.9898      Y      -0.1384      Z      -1.6171
       Tot       3.4019
    Quadrupole Moments (Debye-Ang)
        XX    -156.1949     XY      -0.0062     YY    -154.4268
        XZ      -4.6792     YZ       9.4362     ZZ    -159.8427

 Total job time:  10674.86s(wall), 38575.46s(cpu)
        *  Thank you very much for using Q-Chem.  Have a nice day.  *
