 Q-Chem 5.1, Q-Chem, Inc., Pleasanton, CA (2018)
 Q-Chem 5.1.1 for Intel X86 EM64T Linux

User input:
--------------------------------------------------------------
$rem
threads 4
jobtype opt
method PBEh-3c
basis def2-mSVP
mem_static      1024
mem_total       4000
sym_ignore      true
unrestricted true
scf_algorithm	diis
scf_max_cycles	250
solvent_method  pcm
geom_opt_tol_energy 25
geom_opt_tol_gradient 75
$end

$pcm
theory  iefpcm
$end

$solvent
dielectric      1.0001
$end

$molecule
read BTCz_kat.mol
$end
--------------------------------------------------------------

   30   -1452.1455351680      8.82e-09  Convergence criterion met
 Total energy in the final basis set =    -1452.1455351680
   21   -1452.1834917673      8.70e-09  Convergence criterion met
 Total energy in the final basis set =    -1452.1834917673
   20   -1452.1946673452      8.69e-09  Convergence criterion met
 Total energy in the final basis set =    -1452.1946673452
   19   -1452.1955995220      7.71e-09  Convergence criterion met
 Total energy in the final basis set =    -1452.1955995220
   18   -1452.1953010856      6.21e-09  Convergence criterion met
 Total energy in the final basis set =    -1452.1953010856
   16   -1452.1956255139      9.36e-09  Convergence criterion met
 Total energy in the final basis set =    -1452.1956255139
   14   -1452.1956866138      6.47e-09  Convergence criterion met
 Total energy in the final basis set =    -1452.1956866138
   14   -1452.1956934746      6.49e-09  Convergence criterion met
    7   -1452.1956964653      5.44e-09  Convergence criterion met
 Total energy in the final basis set =    -1452.1956964653
    9   -1452.1957050404      6.22e-09  Convergence criterion met
 Total energy in the final basis set =    -1452.1957050404
    9   -1452.1957175559      9.52e-09  Convergence criterion met
 Total energy in the final basis set =    -1452.1957175559
    8   -1452.1957250680      6.96e-09  Convergence criterion met
 Total energy in the final basis set =    -1452.1957250680
   10   -1452.1957192849      7.14e-09  Convergence criterion met
 Total energy in the final basis set =    -1452.1957192849
   10   -1452.1957075403      7.61e-09  Convergence criterion met
 Total energy in the final basis set =    -1452.1957075403

             Standard Nuclear Orientation (Angstroms)
    I     Atom           X                Y                Z
 ----------------------------------------------------------------
    1      C       0.4237383735    -1.8871423992     1.2980334366
    2      C      -0.7535587032    -1.8607349489     0.5603632685
    3      C      -1.9602882160    -2.0126007320     1.2354054595
    4      C      -2.0299728028    -2.1873597978     2.6144416160
    5      C      -0.8448897931    -2.2107892722     3.3390275408
    6      C       0.3634642740    -2.0666702748     2.6722908328
    7      N       1.5702515697    -2.1554685053     3.4102746857
    8      C      -0.7349899216    -1.6717749321    -0.9271906031
    9      C      -3.3571238925    -2.3708076752     3.2876030314
   10      C       2.5061617266    -3.1077950291     3.2361139951
   11      C       3.5422469284    -2.9200165120     4.1859896552
   12      C       3.1702262587    -1.7641908054     4.9724073794
   13      C       1.9408853047    -1.3200080381     4.4620130848
   14      C       3.7427093234    -1.0961974385     6.0353372100
   15      C       3.0698417148     0.0053281928     6.5630408711
   16      C       1.8588011533     0.4352767543     6.0338426911
   17      C       1.2682439461    -0.2222029898     4.9611036152
   18      C       2.4620004275    -4.1912223557     2.3291030090
   19      C       3.4862707506    -5.0914876890     2.3641439473
   20      C       4.5393906523    -4.9423909608     3.2924036657
   21      C       4.5541383631    -3.8471759102     4.2081126339
   22      H      -2.8825012519    -1.9989190836     0.6639885216
   23      H       1.3797633245    -1.7537492854     0.8061518201
   24      H      -0.8620567716    -2.3783107130     4.4090036655
   25      H      -1.2558987885    -2.4860687976    -1.4317944971
   26      H       0.2790760805    -1.6327305158    -1.3207473000
   27      H      -1.2348741885    -0.7451762039    -1.2108768898
   28      H      -3.8705519305    -3.2528164436     2.9034831206
   29      H      -4.0091514139    -1.5152726629     3.1093203354
   30      H      -3.2551149297    -2.4914295297     4.3644142548
   31      H       4.6883238995    -1.4093869132     6.4568687270
   32      H       3.5015755473     0.5386952660     7.3981631510
   33      H       1.3664444548     1.2979444163     6.4602214241
   34      H       0.3301573324     0.1119396994     4.5388705063
   35      H       1.6316607606    -4.3132803251     1.6476188110
   36      H       3.4791128639    -5.9386834966     1.6924689358
   37      C       5.6450991748    -5.8095921341     3.4942973371
   38      S       5.9029847741    -3.9012480139     5.2840229555
   39      C       6.4757782805    -5.3773577785     4.5445863978
   40      C       7.6013486726    -6.0888219159     4.9121471184
   41      C       7.8932263737    -7.2535635755     4.2153470061
   42      C       7.0790722984    -7.7033899957     3.1708526577
   43      C       5.9604034511    -6.9909404271     2.8068017031
   44      H       8.2395822987    -5.7575387389     5.7197014609
   45      H       8.7695429120    -7.8246869552     4.4903228080
   46      H       7.3332553527    -8.6158358351     2.6503638957
   47      H       5.3319739850    -7.3416887224     1.9985110471
 ----------------------------------------------------------------

    6   -1452.1957079819      4.54e-09  Convergence criterion met
 Total energy in the final basis set =    -1452.1957079819
 Final energy is   -1452.19570798193
 **  OPTIMIZATION CONVERGED  **

                    Orbital Energies (a.u.)
 --------------------------------------------------------------

 Alpha MOs
 -- Occupied --
-89.741 -14.871 -10.644 -10.633 -10.622 -10.619 -10.617 -10.615
-10.608 -10.601 -10.593 -10.591 -10.591 -10.584 -10.582 -10.580
-10.577 -10.574 -10.573 -10.573 -10.573 -10.572 -10.568 -10.567
-10.564 -10.555 -10.530 -10.530  -8.380  -6.271  -6.268  -6.263
 -1.275  -1.147  -1.106  -1.090  -1.077  -1.044  -1.034  -0.997
 -0.991  -0.983  -0.970  -0.957  -0.933  -0.926  -0.885  -0.883
 -0.862  -0.856  -0.829  -0.810  -0.795  -0.781  -0.769  -0.766
 -0.734  -0.721  -0.715  -0.689  -0.687  -0.685  -0.669  -0.653
 -0.649  -0.641  -0.634  -0.629  -0.626  -0.620  -0.614  -0.605
 -0.588  -0.586  -0.585  -0.583  -0.576  -0.568  -0.555  -0.550
 -0.549  -0.547  -0.537  -0.535  -0.528  -0.526  -0.515  -0.514
 -0.510  -0.507  -0.497  -0.474  -0.452  -0.421  -0.411  -0.402
 -0.398  -0.377  -0.373

 Beta MOs
 -- Occupied --
-89.741 -14.863 -10.644 -10.633 -10.623 -10.619 -10.613 -10.612
-10.607 -10.598 -10.595 -10.592 -10.591 -10.582 -10.582 -10.578
-10.576 -10.575 -10.573 -10.573 -10.573 -10.571 -10.568 -10.567
-10.566 -10.555 -10.530 -10.530  -8.381  -6.271  -6.268  -6.264
 -1.264  -1.142  -1.103  -1.087  -1.075  -1.041  -1.030  -0.994
 -0.990  -0.981  -0.967  -0.956  -0.927  -0.923  -0.884  -0.882
 -0.860  -0.853  -0.827  -0.807  -0.793  -0.779  -0.767  -0.763
 -0.733  -0.719  -0.714  -0.687  -0.686  -0.674  -0.668  -0.650
 -0.647  -0.634  -0.633  -0.627  -0.624  -0.619  -0.613  -0.593
 -0.587  -0.586  -0.584  -0.583  -0.575  -0.568  -0.554  -0.548
 -0.541  -0.537  -0.535  -0.534  -0.526  -0.524  -0.514  -0.510
 -0.510  -0.505  -0.488  -0.458  -0.437  -0.410  -0.408  -0.398
 -0.387  -0.376

          Ground-State Mulliken Net Atomic Charges

     Atom                 Charge (a.u.)    Spin (a.u.)
  --------------------------------------------------------
      1 C                    -0.343300       0.036806
      2 C                     0.141752      -0.023304
      3 C                    -0.304506       0.043253
      4 C                     0.142290      -0.020707
      5 C                    -0.333561       0.034979
      6 C                     0.303404      -0.028186
      7 N                    -0.671042       0.279117
      8 C                    -0.710769       0.002303
      9 C                    -0.710927       0.002216
     10 C                     0.320235      -0.015848
     11 C                     0.228691       0.102789
     12 C                     0.114401       0.023372
     13 C                     0.335103      -0.079812
     14 C                    -0.374098       0.011097
     15 C                    -0.204780       0.099651
     16 C                    -0.233313      -0.058465
     17 C                    -0.251305       0.132176
     18 C                    -0.228591       0.185862
     19 C                    -0.322922      -0.131905
     20 C                     0.231886       0.286586
     21 C                    -0.374737      -0.009960
     22 H                     0.240176      -0.002441
     23 H                     0.255942      -0.001917
     24 H                     0.256589      -0.001933
     25 H                     0.252549      -0.000533
     26 H                     0.239354      -0.000126
     27 H                     0.259626      -0.000883
     28 H                     0.255910      -0.000827
     29 H                     0.255931      -0.000438
     30 H                     0.241048      -0.000119
     31 H                     0.245417      -0.000624
     32 H                     0.265295      -0.005670
     33 H                     0.265192       0.002389
     34 H                     0.278088      -0.006943
     35 H                     0.290453      -0.010228
     36 H                     0.249602       0.005749
     37 C                     0.260800      -0.082326
     38 S                     0.278250      -0.023121
     39 C                    -0.209101       0.129388
     40 C                    -0.250219      -0.096323
     41 C                    -0.214818       0.191956
     42 C                    -0.207467      -0.103102
     43 C                    -0.294257       0.145791
     44 H                     0.263029       0.004665
     45 H                     0.269359      -0.010475
     46 H                     0.263519       0.004698
     47 H                     0.235823      -0.008628
  --------------------------------------------------------
  Sum of atomic charges =     1.000000

                    Cartesian Multipole Moments
 -----------------------------------------------------------------
    Charge (ESU x 10^10)
                 4.8032
    Dipole Moment (Debye)
         X      12.8255      Y     -16.5041      Z      16.3922
       Tot      26.5628
    Quadrupole Moments (Debye-Ang)
        XX     -58.4902     XY     -82.5507     YY     -67.3371
        XZ      65.0458     YZ     -43.4705     ZZ     -79.3369

 Total job time:  8108.35s(wall), 30478.39s(cpu)
        *  Thank you very much for using Q-Chem.  Have a nice day.  *
