 Q-Chem 5.1, Q-Chem, Inc., Pleasanton, CA (2018)
 Q-Chem 5.1.1 for Intel X86 EM64T Linux

User input:
--------------------------------------------------------------
$rem
threads 4
jobtype	opt
method PBEh-3c
basis def2-mSVP
mem_static	1024
mem_total	3000
sym_ignore	true
scf_convergence	9
solvent_method	pcm
$end

$molecule
read BTCz.mol
$end

$solvent
dielectric	2.38
$end

$pcm
theory iefpcm
$end

--------------------------------------------------------------

   17   -1452.4134194452      4.97e-10  Convergence criterion met
 Total energy in the final basis set =    -1452.4134194452
   15   -1452.4504682417      5.19e-10  Convergence criterion met
 Total energy in the final basis set =    -1452.4504682417
   15   -1452.4589470955      5.10e-10  Convergence criterion met
 Total energy in the final basis set =    -1452.4589470955
   15   -1452.4595750507      5.06e-10  Convergence criterion met
 Total energy in the final basis set =    -1452.4595750507
   15   -1452.4592957907      3.31e-10  Convergence criterion met
 Total energy in the final basis set =    -1452.4592957907
   14   -1452.4593572428      9.06e-10  Convergence criterion met
 Total energy in the final basis set =    -1452.4593572428
   14   -1452.4593325002      8.39e-10  Convergence criterion met
 Total energy in the final basis set =    -1452.4593325002
   14   -1452.4593152411      8.14e-10  Convergence criterion met
   14   -1452.4593766136      9.99e-10  Convergence criterion met
 Total energy in the final basis set =    -1452.4593766136
   14   -1452.4593773918      9.39e-10  Convergence criterion met
 Total energy in the final basis set =    -1452.4593773918
   14   -1452.4593993013      9.72e-10  Convergence criterion met
 Total energy in the final basis set =    -1452.4593993013
   14   -1452.4594018658      9.59e-10  Convergence criterion met
 Total energy in the final basis set =    -1452.4594018658
   14   -1452.4594186898      8.32e-10  Convergence criterion met
 Total energy in the final basis set =    -1452.4594186898
   14   -1452.4594367729      8.21e-10  Convergence criterion met
 Total energy in the final basis set =    -1452.4594367729

             Standard Nuclear Orientation (Angstroms)
    I     Atom           X                Y                Z
 ----------------------------------------------------------------
    1      C       0.3824073225    -1.8053420482     1.2771104560
    2      C      -0.8081863696    -1.8147722530     0.5542172168
    3      C      -1.9998228954    -2.0036410886     1.2401540928
    4      C      -2.0343668853    -2.1981494566     2.6198474520
    5      C      -0.8358399954    -2.2087326087     3.3191995708
    6      C       0.3649329908    -2.0114619576     2.6462923368
    7      N       1.5838291679    -2.0760953619     3.3555697668
    8      C      -0.7914651980    -1.6497352036    -0.9376324806
    9      C      -3.3443651830    -2.4202547611     3.3181902103
   10      C       2.5160703378    -3.0754560718     3.1990795718
   11      C       3.5283220131    -2.9140942328     4.1578480596
   12      C       3.1756270710    -1.7615406505     4.9394553294
   13      C       1.9615145434    -1.2791310953     4.4135797617
   14      C       3.7531374951    -1.1164866071     6.0283700420
   15      C       3.1148195597    -0.0138346059     6.5656673945
   16      C       1.9127747686     0.4536549012     6.0243755600
   17      C       1.3185163036    -0.1676622068     4.9413341056
   18      C       2.4827970421    -4.1428312648     2.2968563366
   19      C       3.4981561517    -5.0681128863     2.3527678013
   20      C       4.5325823904    -4.9449166318     3.2914541488
   21      C       4.5402912705    -3.8724629350     4.1873275808
   22      H      -2.9319594748    -2.0062608240     0.6845019252
   23      H       1.3270740952    -1.6462042496     0.7703957937
   24      H      -0.8281803027    -2.3896282320     4.3873266021
   25      H      -0.4750235067    -2.5731117615    -1.4269695177
   26      H      -0.0989981805    -0.8674117854    -1.2481587147
   27      H      -1.7777241044    -1.3975162620    -1.3250051750
   28      H      -3.8473055228    -3.3093809184     2.9348883982
   29      H      -4.0205241288    -1.5777384954     3.1667104482
   30      H      -3.2119129188    -2.5520324924     4.3908711715
   31      H       4.6838131697    -1.4708535676     6.4528470072
   32      H       3.5489628496     0.4964161308     7.4147575947
   33      H       1.4354398986     1.3211520293     6.4610712341
   34      H       0.3887357794     0.1962752568     4.5237628476
   35      H       1.6753000954    -4.2522784850     1.5856117716
   36      H       3.4881576736    -5.9095437578     1.6715742985
   37      C       5.6444294474    -5.8378439621     3.5088078242
   38      S       5.8804914447    -3.9387002392     5.2897671210
   39      C       6.4599982489    -5.4169697630     4.5657795450
   40      C       7.5812479317    -6.1388850280     4.9534671537
   41      C       7.8832411696    -7.3027644857     4.2690063418
   42      C       7.0789022778    -7.7392261895     3.2147483222
   43      C       5.9664314261    -7.0149783742     2.8332897066
   44      H       8.2034469603    -5.8033942996     5.7728502126
   45      H       8.7519606238    -7.8796068689     4.5575281650
   46      H       7.3297538485    -8.6532950539     2.6930082717
   47      H       5.3482892975    -7.3624992953     2.0144673373
 ----------------------------------------------------------------

   14   -1452.4594350011      8.07e-10  Convergence criterion met
 Total energy in the final basis set =    -1452.4594350011
 Final energy is   -1452.45943500105
 **  OPTIMIZATION CONVERGED  **

                    Orbital Energies (a.u.)
 --------------------------------------------------------------

 Alpha MOs
 -- Occupied --
-89.613 -14.695 -10.498 -10.494 -10.490 -10.489 -10.484 -10.466
-10.466 -10.462 -10.460 -10.458 -10.456 -10.456 -10.455 -10.453
-10.452 -10.451 -10.451 -10.451 -10.450 -10.449 -10.449 -10.448
-10.448 -10.442 -10.436 -10.436  -8.252  -6.143  -6.140  -6.135
 -1.117  -1.009  -0.981  -0.955  -0.953  -0.913  -0.898  -0.885
 -0.865  -0.856  -0.837  -0.824  -0.805  -0.792  -0.781  -0.777
 -0.731  -0.720  -0.698  -0.678  -0.667  -0.659  -0.650  -0.640
 -0.602  -0.593  -0.584  -0.568  -0.560  -0.557  -0.544  -0.524
 -0.519  -0.507  -0.506  -0.499  -0.494  -0.490  -0.488  -0.483
 -0.481  -0.474  -0.473  -0.469  -0.456  -0.453  -0.445  -0.437
 -0.424  -0.417  -0.414  -0.413  -0.410  -0.404  -0.402  -0.396
 -0.390  -0.382  -0.363  -0.340  -0.319  -0.300  -0.290  -0.288
 -0.273  -0.245  -0.236

          Ground-State Mulliken Net Atomic Charges

     Atom                 Charge (a.u.)
  ----------------------------------------
      1 C                    -0.343853
      2 C                     0.133334
      3 C                    -0.334258
      4 C                     0.135126
      5 C                    -0.338978
      6 C                     0.318114
      7 N                    -0.730598
      8 C                    -0.714356
      9 C                    -0.717275
     10 C                     0.300437
     11 C                     0.194925
     12 C                     0.062073
     13 C                     0.345518
     14 C                    -0.384954
     15 C                    -0.244162
     16 C                    -0.252819
     17 C                    -0.291235
     18 C                    -0.276452
     19 C                    -0.353635
     20 C                     0.220898
     21 C                    -0.403040
     22 H                     0.223459
     23 H                     0.250262
     24 H                     0.250681
     25 H                     0.243641
     26 H                     0.241422
     27 H                     0.237529
     28 H                     0.242545
     29 H                     0.241429
     30 H                     0.240195
     31 H                     0.229619
     32 H                     0.232702
     33 H                     0.235115
     34 H                     0.251205
     35 H                     0.255076
     36 H                     0.227613
     37 C                     0.249992
     38 S                     0.192139
     39 C                    -0.231728
     40 C                    -0.269389
     41 C                    -0.252820
     42 C                    -0.228179
     43 C                    -0.332561
     44 H                     0.244485
     45 H                     0.238610
     46 H                     0.236860
     47 H                     0.225285
  ----------------------------------------
  Sum of atomic charges =     0.000000

                    Cartesian Multipole Moments
 -----------------------------------------------------------------
    Charge (ESU x 10^10)
                 0.0000
    Dipole Moment (Debye)
         X      -3.4008      Y      -0.2753      Z      -2.2067
       Tot       4.0634
    Quadrupole Moments (Debye-Ang)
        XX    -162.5527     XY      -1.6114     YY    -158.6059
        XZ      -7.2957     YZ      12.5972     ZZ    -170.4762

 Total job time:  20300.28s(wall), 77207.00s(cpu)
        *  Thank you very much for using Q-Chem.  Have a nice day.  *
