 Q-Chem 5.1, Q-Chem, Inc., Pleasanton, CA (2018)
 Q-Chem 5.1.1 for Intel X86 EM64T Linux

User input:
--------------------------------------------------------------
$rem
threads 4
jobtype opt
method PBEh-3c
basis def2-mSVP
mem_static      1024
mem_total       4000
sym_ignore      true
unrestricted true
scf_algorithm	diis
scf_max_cycles	250
solvent_method  pcm
geom_opt_tol_energy 25
geom_opt_tol_gradient 75
$end

$pcm
theory  iefpcm
$end

$solvent
dielectric      2.38
$end

$molecule
read BTCz_kat.mol
$end
--------------------------------------------------------------

   32   -1452.1813843596      4.45e-09  Convergence criterion met
 Total energy in the final basis set =    -1452.1813843596
   22   -1452.2192250153      7.96e-09  Convergence criterion met
 Total energy in the final basis set =    -1452.2192250153
   20   -1452.2303703970      7.57e-09  Convergence criterion met
 Total energy in the final basis set =    -1452.2303703970
   19   -1452.2313667029      7.35e-09  Convergence criterion met
 Total energy in the final basis set =    -1452.2313667029
   17   -1452.2309718244      9.38e-09  Convergence criterion met
 Total energy in the final basis set =    -1452.2309718244
   17   -1452.2313945049      7.41e-09  Convergence criterion met
 Total energy in the final basis set =    -1452.2313945049
   16   -1452.2315109971      8.42e-09  Convergence criterion met
 Total energy in the final basis set =    -1452.2315109971
   16   -1452.2314955981      6.10e-09  Convergence criterion met
 Total energy in the final basis set =    -1452.2314955981

             Standard Nuclear Orientation (Angstroms)
    I     Atom           X                Y                Z
 ----------------------------------------------------------------
    1      C       0.4288552217    -1.8893285971     1.3009289212
    2      C      -0.7471646369    -1.8672678881     0.5609191228
    3      C      -1.9564117360    -2.0133604381     1.2331443044
    4      C      -2.0282782837    -2.1808087571     2.6131255218
    5      C      -0.8450095831    -2.2022262615     3.3409806431
    6      C       0.3646491848    -2.0621569278     2.6758529060
    7      N       1.5696480893    -2.1513149831     3.4161856482
    8      C      -0.7236817493    -1.6993858908    -0.9291766371
    9      C      -3.3566595327    -2.3593782783     3.2856638078
   10      C       2.5043261530    -3.1035614281     3.2413832647
   11      C       3.5402409369    -2.9177618476     4.1928000552
   12      C       3.1691644204    -1.7613315658     4.9792502036
   13      C       1.9398745782    -1.3165467011     4.4690136695
   14      C       3.7435298520    -1.0930507808     6.0412664877
   15      C       3.0706396221     0.0089275303     6.5693469965
   16      C       1.8585915607     0.4381019919     6.0416120078
   17      C       1.2669100899    -0.2195863710     4.9688885138
   18      C       2.4592873001    -4.1849398014     2.3316896453
   19      C       3.4832558120    -5.0855291031     2.3649479528
   20      C       4.5346459094    -4.9381479382     3.2947185482
   21      C       4.5494866511    -3.8475078089     4.2152826871
   22      H      -2.8772457158    -2.0016798244     0.6592862328
   23      H       1.3866362685    -1.7630648128     0.8104541323
   24      H      -0.8649109633    -2.3621938319     4.4120878492
   25      H      -1.1582031909    -2.5685210392    -1.4249137832
   26      H       0.2891525131    -1.5730625780    -1.3075034971
   27      H      -1.3053317045    -0.8300348202    -1.2367212808
   28      H      -3.8685613682    -3.2447781455     2.9069669338
   29      H      -4.0086897717    -1.5056819604     3.0981303955
   30      H      -3.2537639778    -2.4706111921     4.3634903954
   31      H       4.6897101800    -1.4060027944     6.4621622108
   32      H       3.5035667520     0.5424236459     7.4039237477
   33      H       1.3653951734     1.3001025793     6.4686995269
   34      H       0.3276507149     0.1148080752     4.5491885835
   35      H       1.6302478788    -4.3066113843     1.6485726123
   36      H       3.4783882774    -5.9317539096     1.6921132276
   37      C       5.6406792591    -5.8071484704     3.4917188025
   38      S       5.8961961731    -3.9116747446     5.2952687796
   39      C       6.4699301370    -5.3830969258     4.5457288962
   40      C       7.5957845935    -6.0970470216     4.9092071713
   41      C       7.8881043997    -7.2563492740     4.2031233057
   42      C       7.0750078640    -7.6973715278     3.1538871162
   43      C       5.9557901100    -6.9821371673     2.7937517093
   44      H       8.2323893174    -5.7707893672     5.7203275381
   45      H       8.7643361950    -7.8296654825     4.4744397765
   46      H       7.3301358964    -8.6053843939     2.6257482624
   47      H       5.3274851290    -7.3238517867     1.9810070854
 ----------------------------------------------------------------

   16   -1452.2314932325      8.92e-09  Convergence criterion met
 Total energy in the final basis set =    -1452.2314932325
 Final energy is   -1452.23149323255
 **  OPTIMIZATION CONVERGED  **

                    Orbital Energies (a.u.)
 --------------------------------------------------------------

 Alpha MOs
 -- Occupied --
-89.682 -14.811 -10.584 -10.574 -10.562 -10.560 -10.557 -10.556
-10.549 -10.539 -10.532 -10.531 -10.531 -10.524 -10.522 -10.521
-10.518 -10.515 -10.515 -10.515 -10.513 -10.512 -10.509 -10.508
-10.506 -10.497 -10.474 -10.473  -8.322  -6.212  -6.209  -6.204
 -1.216  -1.087  -1.047  -1.030  -1.019  -0.985  -0.974  -0.938
 -0.933  -0.924  -0.911  -0.897  -0.874  -0.866  -0.827  -0.825
 -0.803  -0.796  -0.769  -0.750  -0.735  -0.721  -0.710  -0.707
 -0.674  -0.661  -0.656  -0.629  -0.627  -0.626  -0.610  -0.593
 -0.589  -0.582  -0.573  -0.569  -0.566  -0.560  -0.554  -0.546
 -0.531  -0.528  -0.525  -0.523  -0.517  -0.512  -0.498  -0.490
 -0.489  -0.489  -0.477  -0.475  -0.470  -0.467  -0.457  -0.456
 -0.451  -0.449  -0.437  -0.416  -0.392  -0.362  -0.353  -0.344
 -0.340  -0.318  -0.314

 Beta MOs
 -- Occupied --
-89.682 -14.804 -10.584 -10.574 -10.564 -10.560 -10.554 -10.552
-10.547 -10.537 -10.533 -10.532 -10.531 -10.522 -10.522 -10.519
-10.517 -10.516 -10.515 -10.515 -10.513 -10.512 -10.508 -10.508
-10.507 -10.497 -10.474 -10.473  -8.322  -6.212  -6.209  -6.205
 -1.204  -1.083  -1.044  -1.027  -1.016  -0.982  -0.970  -0.935
 -0.932  -0.922  -0.908  -0.897  -0.867  -0.864  -0.826  -0.825
 -0.801  -0.793  -0.767  -0.747  -0.733  -0.719  -0.708  -0.705
 -0.673  -0.659  -0.654  -0.627  -0.626  -0.615  -0.608  -0.590
 -0.587  -0.574  -0.572  -0.567  -0.564  -0.559  -0.553  -0.534
 -0.530  -0.528  -0.525  -0.523  -0.515  -0.512  -0.497  -0.488
 -0.483  -0.479  -0.476  -0.474  -0.466  -0.466  -0.456  -0.452
 -0.450  -0.446  -0.428  -0.400  -0.378  -0.351  -0.350  -0.340
 -0.328  -0.317

          Ground-State Mulliken Net Atomic Charges

     Atom                 Charge (a.u.)    Spin (a.u.)
  --------------------------------------------------------
      1 C                    -0.344150       0.037420
      2 C                     0.133389      -0.023639
      3 C                    -0.310696       0.043100
      4 C                     0.133389      -0.021107
      5 C                    -0.334605       0.035715
      6 C                     0.302185      -0.029281
      7 N                    -0.670013       0.281550
      8 C                    -0.715900       0.002307
      9 C                    -0.715547       0.002241
     10 C                     0.327041      -0.016297
     11 C                     0.227409       0.108817
     12 C                     0.108643       0.021448
     13 C                     0.338405      -0.079430
     14 C                    -0.379988       0.012773
     15 C                    -0.216253       0.097248
     16 C                    -0.244142      -0.055744
     17 C                    -0.256601       0.130760
     18 C                    -0.231539       0.189583
     19 C                    -0.329677      -0.136126
     20 C                     0.229535       0.292336
     21 C                    -0.373336      -0.014401
     22 H                     0.246332      -0.002427
     23 H                     0.269270      -0.001916
     24 H                     0.268817      -0.001948
     25 H                     0.252661      -0.000628
     26 H                     0.243702      -0.000115
     27 H                     0.256553      -0.000805
     28 H                     0.254584      -0.000836
     29 H                     0.254510      -0.000462
     30 H                     0.244480      -0.000119
     31 H                     0.256992      -0.000715
     32 H                     0.271610      -0.005535
     33 H                     0.271853       0.002237
     34 H                     0.287369      -0.006825
     35 H                     0.300767      -0.010322
     36 H                     0.265867       0.005914
     37 C                     0.254741      -0.086082
     38 S                     0.270086      -0.022684
     39 C                    -0.211998       0.128732
     40 C                    -0.258793      -0.095629
     41 C                    -0.224759       0.187329
     42 C                    -0.219809      -0.102067
     43 C                    -0.301841       0.145047
     44 H                     0.273198       0.004607
     45 H                     0.275131      -0.010205
     46 H                     0.269062       0.004649
     47 H                     0.252063      -0.008467
  --------------------------------------------------------
  Sum of atomic charges =     1.000000

                    Cartesian Multipole Moments
 -----------------------------------------------------------------
    Charge (ESU x 10^10)
                 4.8032
    Dipole Moment (Debye)
         X      12.6916      Y     -16.5187      Z      16.2420
       Tot      26.4149
    Quadrupole Moments (Debye-Ang)
        XX     -62.0598     XY     -80.9434     YY     -68.0741
        XZ      63.2232     YZ     -42.1856     ZZ     -80.4532

 Total job time:  5737.95s(wall), 21908.34s(cpu)
        *  Thank you very much for using Q-Chem.  Have a nice day.  *
