 Q-Chem 5.1, Q-Chem, Inc., Pleasanton, CA (2018)
 Q-Chem 5.1.1 for Intel X86 EM64T Linux

User input:
--------------------------------------------------------------
$rem
threads 4
jobtype opt
method PBEh-3c
basis def2-mSVP
mem_static      1024
mem_total       4000
sym_ignore      true
unrestricted true
scf_algorithm	diis
scf_max_cycles	250
solvent_method  pcm
geom_opt_tol_energy 25
geom_opt_tol_gradient 75
$end

$pcm
theory  iefpcm
$end

$solvent
dielectric      1.0001
$end

$molecule
read BTCz.mol
$end
--------------------------------------------------------------

   14   -1452.4055356360      5.45e-09  Convergence criterion met
 Total energy in the final basis set =    -1452.4055356360
   12   -1452.4428890403      6.82e-09  Convergence criterion met
 Total energy in the final basis set =    -1452.4428890403
   12   -1452.4514388106      5.84e-09  Convergence criterion met
 Total energy in the final basis set =    -1452.4514388106
   12   -1452.4520087756      3.64e-09  Convergence criterion met
 Total energy in the final basis set =    -1452.4520087756
   10   -1452.4517372595      7.40e-09  Convergence criterion met
 Total energy in the final basis set =    -1452.4517372595
    9   -1452.4517923769      9.34e-09  Convergence criterion met
 Total energy in the final basis set =    -1452.4517923769
    9   -1452.4517652266      7.45e-09  Convergence criterion met
 Total energy in the final basis set =    -1452.4517652266
    8   -1452.4517464248      7.51e-09  Convergence criterion met
    7   -1452.4517313484      7.81e-09  Convergence criterion met
 Total energy in the final basis set =    -1452.4517313484
    8   -1452.4517208662      8.74e-09  Convergence criterion met
 Total energy in the final basis set =    -1452.4517208662
    9   -1452.4516827960      9.32e-09  Convergence criterion met
 Total energy in the final basis set =    -1452.4516827960
    9   -1452.4517292430      6.33e-09  Convergence criterion met
 Total energy in the final basis set =    -1452.4517292430
    8   -1452.4517483806      4.75e-09  Convergence criterion met
 Total energy in the final basis set =    -1452.4517483806
    9   -1452.4517867792      7.08e-09  Convergence criterion met
 Total energy in the final basis set =    -1452.4517867792

             Standard Nuclear Orientation (Angstroms)
    I     Atom           X                Y                Z
 ----------------------------------------------------------------
    1      C       0.3832031922    -1.8270103159     1.2692849786
    2      C      -0.8058181714    -1.8343823398     0.5491983510
    3      C      -1.9998816969    -2.0043491424     1.2389357400
    4      C      -2.0339448717    -2.1819471880     2.6179324114
    5      C      -0.8335587252    -2.1946678472     3.3165793405
    6      C       0.3675929444    -2.0162662065     2.6432104997
    7      N       1.5851557096    -2.0784065099     3.3507765739
    8      C      -0.8062697017    -1.6848598553    -0.9444881503
    9      C      -3.3441785982    -2.3854516925     3.3218679896
   10      C       2.5230989218    -3.0737556416     3.1913554460
   11      C       3.5290580783    -2.9144798942     4.1557872027
   12      C       3.1678858206    -1.7696419100     4.9443076047
   13      C       1.9550137914    -1.2877072468     4.4174723990
   14      C       3.7379017119    -1.1313171107     6.0400951341
   15      C       3.0938744690    -0.0354259452     6.5831354154
   16      C       1.8937889106     0.4323821537     6.0402788096
   17      C       1.3066390446    -0.1825340072     4.9502016399
   18      C       2.4979380498    -4.1361978149     2.2839904874
   19      C       3.5163825592    -5.0577183831     2.3405634657
   20      C       4.5451024724    -4.9364386275     3.2845009224
   21      C       4.5440643786    -3.8687698929     4.1857286278
   22      H      -2.9328330583    -2.0048655853     0.6840739900
   23      H       1.3286593823    -1.6798833067     0.7611338443
   24      H      -0.8260695208    -2.3637720893     4.3864916633
   25      H      -1.0008034464    -2.6426366075    -1.4311658138
   26      H       0.1500992754    -1.3191725029    -1.3153459749
   27      H      -1.5790771085    -0.9920667769    -1.2778115515
   28      H      -3.8562473259    -3.2741104339     2.9499843891
   29      H      -4.0134932097    -1.5383880832     3.1656885606
   30      H      -3.2109604974    -2.5080979895     4.3955144117
   31      H       4.6677454867    -1.4868414791     6.4648614393
   32      H       3.5225460340     0.4694378443     7.4379711649
   33      H       1.4121447651     1.2953058748     6.4809114039
   34      H       0.3786235238     0.1820440053     4.5296376818
   35      H       1.6929945969    -4.2457037268     1.5700774332
   36      H       3.5127251659    -5.8958292686     1.6552559094
   37      C       5.6580281232    -5.8263586150     3.5044286423
   38      S       5.8772623135    -3.9354587275     5.2950469647
   39      C       6.4654957296    -5.4075487040     4.5680347966
   40      C       7.5859194481    -6.1285047131     4.9582594495
   41      C       7.8957073002    -7.2880098691     4.2711941630
   42      C       7.0993548952    -7.7221375674     3.2108786869
   43      C       5.9877722834    -6.9992395854     2.8267836070
   44      H       8.2021992753    -5.7950747837     5.7827318786
   45      H       8.7642709400    -7.8634785523     4.5623697676
   46      H       7.3557357438    -8.6331599828     2.6868288805
   47      H       5.3749315953    -7.3448433565     2.0034197231
 ----------------------------------------------------------------

    7   -1452.4517865589      7.18e-09  Convergence criterion met
 Total energy in the final basis set =    -1452.4517865589
 Final energy is   -1452.45178655890
 **  OPTIMIZATION CONVERGED  **

                    Orbital Energies (a.u.)
 --------------------------------------------------------------

 Alpha MOs
 -- Occupied --
-89.608 -14.694 -10.500 -10.491 -10.487 -10.485 -10.480 -10.469
-10.469 -10.458 -10.456 -10.454 -10.454 -10.454 -10.454 -10.454
-10.451 -10.451 -10.451 -10.449 -10.448 -10.448 -10.447 -10.447
-10.446 -10.443 -10.443 -10.439  -8.248  -6.138  -6.135  -6.131
 -1.115  -1.006  -0.982  -0.952  -0.952  -0.911  -0.896  -0.889
 -0.864  -0.855  -0.835  -0.822  -0.804  -0.789  -0.785  -0.781
 -0.731  -0.718  -0.696  -0.676  -0.665  -0.663  -0.649  -0.639
 -0.600  -0.594  -0.583  -0.570  -0.562  -0.555  -0.543  -0.522
 -0.517  -0.506  -0.505  -0.498  -0.495  -0.491  -0.489  -0.484
 -0.481  -0.480  -0.476  -0.466  -0.463  -0.451  -0.444  -0.441
 -0.423  -0.417  -0.415  -0.413  -0.409  -0.407  -0.400  -0.394
 -0.388  -0.379  -0.359  -0.337  -0.315  -0.301  -0.293  -0.284
 -0.269  -0.241  -0.233

 Beta MOs
 -- Occupied --
-89.608 -14.694 -10.500 -10.491 -10.487 -10.485 -10.480 -10.469
-10.469 -10.458 -10.456 -10.454 -10.454 -10.454 -10.454 -10.454
-10.451 -10.451 -10.451 -10.449 -10.448 -10.448 -10.447 -10.447
-10.446 -10.443 -10.443 -10.439  -8.248  -6.138  -6.135  -6.131
 -1.115  -1.006  -0.982  -0.952  -0.952  -0.911  -0.896  -0.889
 -0.864  -0.855  -0.835  -0.822  -0.804  -0.789  -0.785  -0.781
 -0.731  -0.718  -0.696  -0.676  -0.665  -0.663  -0.649  -0.639
 -0.600  -0.594  -0.583  -0.570  -0.562  -0.555  -0.543  -0.522
 -0.517  -0.506  -0.505  -0.498  -0.495  -0.491  -0.489  -0.484
 -0.481  -0.480  -0.476  -0.466  -0.463  -0.451  -0.444  -0.441
 -0.423  -0.417  -0.415  -0.413  -0.409  -0.407  -0.400  -0.394
 -0.388  -0.379  -0.359  -0.337  -0.315  -0.301  -0.293  -0.284
 -0.269  -0.241  -0.233

          Ground-State Mulliken Net Atomic Charges

     Atom                 Charge (a.u.)    Spin (a.u.)
  --------------------------------------------------------
      1 C                    -0.346353      -0.000000
      2 C                     0.146076      -0.000000
      3 C                    -0.324098       0.000000
      4 C                     0.147476       0.000000
      5 C                    -0.334248      -0.000000
      6 C                     0.328624      -0.000000
      7 N                    -0.735571      -0.000000
      8 C                    -0.710279      -0.000000
      9 C                    -0.711520      -0.000000
     10 C                     0.299886       0.000000
     11 C                     0.203232      -0.000000
     12 C                     0.070115       0.000000
     13 C                     0.346875      -0.000000
     14 C                    -0.375718       0.000000
     15 C                    -0.227674       0.000000
     16 C                    -0.237819       0.000000
     17 C                    -0.281497       0.000000
     18 C                    -0.266638       0.000000
     19 C                    -0.342086      -0.000000
     20 C                     0.230463      -0.000000
     21 C                    -0.400915       0.000000
     22 H                     0.208609       0.000000
     23 H                     0.239943       0.000000
     24 H                     0.240028       0.000000
     25 H                     0.238555      -0.000000
     26 H                     0.234351       0.000000
     27 H                     0.234584       0.000000
     28 H                     0.237655      -0.000000
     29 H                     0.236341       0.000000
     30 H                     0.234412       0.000000
     31 H                     0.217702      -0.000000
     32 H                     0.217664       0.000000
     33 H                     0.218958       0.000000
     34 H                     0.238078      -0.000000
     35 H                     0.242326       0.000000
     36 H                     0.207694       0.000000
     37 C                     0.259083       0.000000
     38 S                     0.198909       0.000000
     39 C                    -0.226338      -0.000000
     40 C                    -0.258561       0.000000
     41 C                    -0.238587      -0.000000
     42 C                    -0.213579       0.000000
     43 C                    -0.320796      -0.000000
     44 H                     0.226491       0.000000
     45 H                     0.221983      -0.000000
     46 H                     0.220362       0.000000
     47 H                     0.205803      -0.000000
  --------------------------------------------------------
  Sum of atomic charges =    -0.000000

                    Cartesian Multipole Moments
 -----------------------------------------------------------------
    Charge (ESU x 10^10)
                -0.0000
    Dipole Moment (Debye)
         X      -3.0866      Y      -0.1760      Z      -1.8873
       Tot       3.6221
    Quadrupole Moments (Debye-Ang)
        XX    -163.4985     XY      -1.0891     YY    -161.3229
        XZ      -5.9236     YZ      11.5347     ZZ    -169.7355

 Total job time:  6246.11s(wall), 22674.46s(cpu)
        *  Thank you very much for using Q-Chem.  Have a nice day.  *
