 Q-Chem 5.1, Q-Chem, Inc., Pleasanton, CA (2018)
 Q-Chem 5.1.1 for Intel X86 EM64T Linux

User input:
--------------------------------------------------------------

$molecule
read Cz.mol
$end

$rem
threads 8
jobtype	opt
method PBEh-3c
basis def2-mSVP
mem_static	512
mem_total	6096
sym_ignore	true
$end

--------------------------------------------------------------

   14    -825.3254837557      6.34e-09  Convergence criterion met
 Total energy in the final basis set =     -825.3254837557
   12    -825.3388796198      7.80e-09  Convergence criterion met
 Total energy in the final basis set =     -825.3388796198
   11    -825.3392277388      8.66e-09  Convergence criterion met
 Total energy in the final basis set =     -825.3392277388
   10    -825.3392142596      9.13e-09  Convergence criterion met
 Total energy in the final basis set =     -825.3392142596
    9    -825.3392123891      7.67e-09  Convergence criterion met
 Total energy in the final basis set =     -825.3392123891
    9    -825.3392097267      4.23e-09  Convergence criterion met
 Total energy in the final basis set =     -825.3392097267

             Standard Nuclear Orientation (Angstroms)
    I     Atom           X                Y                Z
 ----------------------------------------------------------------
    1      C      -0.1946896783    -1.6544909188     1.1986965194
    2      C      -1.3787637613    -1.4392548276     0.5041803368
    3      C      -2.5677226039    -1.3678503237     1.2206924533
    4      C      -2.6024211384    -1.5195725154     2.6023202436
    5      C      -1.4107419925    -1.7564279999     3.2754316350
    6      C      -0.2129478090    -1.8179277173     2.5763592169
    7      N       0.9881261101    -2.0664687821     3.2677324898
    8      C      -1.3818554756    -1.2801790001    -0.9889490887
    9      C      -3.9083130960    -1.4525512761     3.3394514926
   10      C       1.7818334447    -3.1829014406     3.1066250875
   11      C       2.8452038174    -3.1266232156     4.0229347738
   12      C       2.6704315110    -1.9151974283     4.7806955817
   13      C       1.5112723211    -1.2940888940     4.2839870622
   14      C       3.3714997335    -1.3197400420     5.8222980817
   15      C       2.9101468450    -0.1252424460     6.3435703928
   16      C       1.7615914745     0.4817720150     5.8281582822
   17      C       1.0464144930    -0.0887490680     4.7915177672
   18      C       1.6088745539    -4.2611648925     2.2453777707
   19      C       2.5380817558    -5.2831938709     2.3053381337
   20      C       3.6103904728    -5.2396187739     3.2002774634
   21      C       3.7660208075    -4.1692779629     4.0613827966
   22      H      -3.4958166769    -1.1917017599     0.6860765821
   23      H       0.7494642286    -1.6936008252     0.6689167356
   24      H      -1.4106657698    -1.9091193006     4.3478868625
   25      H      -1.9517719810    -2.0772360138    -1.4692012152
   26      H      -0.3733721124    -1.3051491198    -1.3987206863
   27      H      -1.8365187992    -0.3346260211    -1.2870138054
   28      H      -4.5828697131    -2.2488968822     3.0212186438
   29      H      -4.4186873661    -0.5057839009     3.1574226934
   30      H      -3.7694968867    -1.5506374186     4.4150109200
   31      H       4.2639359418    -1.7858012010     6.2205498604
   32      H       3.4430113238     0.3480805827     7.1570531801
   33      H       1.4231492423     1.4199247596     6.2477387190
   34      H       0.1602048531     0.3878449132     4.3935638655
   35      H       0.7725155633    -4.3091176365     1.5604264243
   36      H       2.4267972783    -6.1367098980     1.6492290394
   37      H       4.3190236462    -6.0566303423     3.2230199686
   38      H       4.5908654425    -4.1496905548     4.7623437202
 ----------------------------------------------------------------

    8    -825.3392103072      5.90e-09  Convergence criterion met
 Total energy in the final basis set =     -825.3392103072
 Final energy is   -825.339210307180
 **  OPTIMIZATION CONVERGED  **

                    Orbital Energies (a.u.)
 --------------------------------------------------------------

 Alpha MOs
 -- Occupied --
-14.687 -10.496 -10.482 -10.482 -10.466 -10.466 -10.451 -10.451
-10.448 -10.445 -10.445 -10.445 -10.444 -10.444 -10.444 -10.443
-10.443 -10.441 -10.441 -10.436 -10.436  -1.108  -0.980  -0.948
 -0.947  -0.888  -0.887  -0.854  -0.843  -0.809  -0.807  -0.783
 -0.778  -0.731  -0.695  -0.686  -0.660  -0.649  -0.645  -0.596
 -0.586  -0.577  -0.559  -0.557  -0.522  -0.517  -0.501  -0.498
 -0.490  -0.488  -0.484  -0.484  -0.478  -0.475  -0.473  -0.461
 -0.439  -0.425  -0.422  -0.412  -0.411  -0.409  -0.405  -0.393
 -0.388  -0.375  -0.326  -0.297  -0.296  -0.288  -0.250  -0.236

          Ground-State Mulliken Net Atomic Charges

     Atom                 Charge (a.u.)
  ----------------------------------------
      1 C                    -0.345775
      2 C                     0.147974
      3 C                    -0.325456
      4 C                     0.149032
      5 C                    -0.339576
      6 C                     0.336184
      7 N                    -0.738456
      8 C                    -0.711445
      9 C                    -0.711878
     10 C                     0.336080
     11 C                     0.103234
     12 C                     0.094194
     13 C                     0.341563
     14 C                    -0.345027
     15 C                    -0.228320
     16 C                    -0.237053
     17 C                    -0.280808
     18 C                    -0.279882
     19 C                    -0.236525
     20 C                    -0.226981
     21 C                    -0.346835
     22 H                     0.207614
     23 H                     0.238057
     24 H                     0.239109
     25 H                     0.236274
     26 H                     0.233497
     27 H                     0.236175
     28 H                     0.237490
     29 H                     0.235112
     30 H                     0.233620
     31 H                     0.205771
     32 H                     0.214599
     33 H                     0.217013
     34 H                     0.237509
     35 H                     0.236949
     36 H                     0.217032
     37 H                     0.214666
     38 H                     0.205269
  ----------------------------------------
  Sum of atomic charges =     0.000000

                    Cartesian Multipole Moments
 -----------------------------------------------------------------
    Charge (ESU x 10^10)
                 0.0000
    Dipole Moment (Debye)
         X      -2.2492      Y       0.3812      Z      -1.2285
       Tot       2.5910
    Quadrupole Moments (Debye-Ang)
        XX    -113.3929     XY      -0.6959     YY    -121.7011
        XZ      -1.3238     YZ       7.2276     ZZ    -121.0633

 Total job time:  395.17s(wall), 3149.26s(cpu)
        *  Thank you very much for using Q-Chem.  Have a nice day.  *
