 Q-Chem 5.1, Q-Chem, Inc., Pleasanton, CA (2018)
 Q-Chem 5.1.1 for Intel X86 EM64T Linux

User input:
--------------------------------------------------------------
$rem
threads 4
jobtype opt
method PBEh-3c
basis def2-mSVP
mem_static      1024
mem_total       4000
sym_ignore      true
unrestricted true
scf_algorithm	diis
scf_max_cycles	250
solvent_method  pcm
geom_opt_tol_energy 25
geom_opt_tol_gradient 75
$end

$pcm
theory  iefpcm
$end

$solvent
dielectric      2.38
$end

$molecule
read Cz_DiOMe_kat.mol
$end
--------------------------------------------------------------

   20   -1053.6680498428      6.99e-09  Convergence criterion met
 Total energy in the final basis set =    -1053.6680498428
   16   -1053.6919273059      7.50e-09  Convergence criterion met
 Total energy in the final basis set =    -1053.6919273059
   16   -1053.6936214172      6.04e-09  Convergence criterion met
 Total energy in the final basis set =    -1053.6936214172
   15   -1053.6937464353      6.30e-09  Convergence criterion met
 Total energy in the final basis set =    -1053.6937464353
   14   -1053.6937789724      6.93e-09  Convergence criterion met
 Total energy in the final basis set =    -1053.6937789724
   14   -1053.6937789063      7.59e-09  Convergence criterion met
 Total energy in the final basis set =    -1053.6937789063
   14   -1053.6937777004      8.31e-09  Convergence criterion met
 Total energy in the final basis set =    -1053.6937777004

             Standard Nuclear Orientation (Angstroms)
    I     Atom           X                Y                Z
 ----------------------------------------------------------------
    1      C      -0.2412202495    -1.6625418814     1.1769947398
    2      C      -1.4203043325    -1.4516644791     0.4731100178
    3      C      -2.6127004904    -1.3662394827     1.1852933182
    4      C      -2.6644375490    -1.4861242751     2.5707757904
    5      C      -1.4783895042    -1.6982004937     3.2623063319
    6      C      -0.2856910527    -1.7836188828     2.5581815565
    7      N       0.9140700889    -2.0308989858     3.2674253281
    8      C      -1.4166931891    -1.3191992788    -1.0210192101
    9      C      -3.9778470939    -1.4050274643     3.2898120042
   10      C       1.7173514829    -3.1284931426     3.0808510241
   11      C       2.7926431200    -3.0665371837     3.9895376840
   12      C       2.5989913638    -1.8510005556     4.7622878960
   13      C       1.4215243249    -1.2535296829     4.2690037134
   14      C       3.3004634222    -1.2680340963     5.7878912964
   15      C       2.8071713518    -0.0637451741     6.3225631685
   16      C       1.6355469238     0.5327967803     5.8031280048
   17      C       0.9373857479    -0.0455684944     4.7757337668
   18      C       1.5359226098    -4.2105929463     2.2281719180
   19      C       2.4672802866    -5.2313140393     2.2636235777
   20      C       3.5538795706    -5.1751277632     3.1485255656
   21      C       3.7111867495    -4.0800813561     4.0297209353
   22      H      -3.5365282838    -1.2038262610     0.6400383248
   23      H       0.7056019272    -1.7135432755     0.6533052719
   24      H      -1.4887895030    -1.8297230981     4.3374893308
   25      H      -2.0096375432    -2.1090407511    -1.4840526820
   26      H      -0.4094050694    -1.3773331760    -1.4293235653
   27      H      -1.8488673459    -0.3679719339    -1.3325272969
   28      H      -4.6584576811    -2.1864538060     2.9500399621
   29      H      -4.4673510515    -0.4484298214     3.1040829633
   30      H      -3.8576536327    -1.5145910151     4.3660974298
   31      H       4.2026881033    -1.7322866637     6.1615975196
   32      O       3.3839285904     0.5888941296     7.3161352517
   33      H       1.2993214235     1.4665786459     6.2327414875
   34      H       0.0477360558     0.4227727103     4.3767478015
   35      H       0.6870323287    -4.2731657112     1.5605253145
   36      H       2.3312918345    -6.0767604180     1.6046308160
   37      O       4.4835158391    -6.1122913174     3.2449634025
   38      H       4.5433668222    -4.0768677828     4.7221245121
   39      C       4.5698034861     0.0799265910     7.9058856756
   40      C       4.4091211934    -7.2688963498     2.4262183192
   41      H       4.8396128180     0.7787856263     8.6917526582
   42      H       5.3850827543     0.0271625995     7.1813408034
   43      H       4.4061337709    -0.9056468848     8.3465441727
   44      H       5.2714774580    -7.8765587095     2.6834369877
   45      H       4.4567696909    -7.0129345797     1.3657707833
   46      H       3.4993424331    -7.8400258699     2.6231063287
 ----------------------------------------------------------------

   14   -1053.6937778772      9.35e-09  Convergence criterion met
 Total energy in the final basis set =    -1053.6937778772
 Final energy is   -1053.69377787721
 **  OPTIMIZATION CONVERGED  **

                    Orbital Energies (a.u.)
 --------------------------------------------------------------

 Alpha MOs
 -- Occupied --
-19.605 -19.604 -14.811 -10.596 -10.594 -10.565 -10.561 -10.558
-10.541 -10.539 -10.538 -10.536 -10.535 -10.532 -10.528 -10.527
-10.516 -10.515 -10.514 -10.514 -10.508 -10.508 -10.496 -10.473
-10.473  -1.265  -1.263  -1.213  -1.051  -1.033  -1.018  -0.967
 -0.936  -0.931  -0.928  -0.904  -0.893  -0.857  -0.844  -0.826
 -0.823  -0.800  -0.772  -0.751  -0.740  -0.718  -0.708  -0.679
 -0.672  -0.663  -0.649  -0.632  -0.625  -0.611  -0.610  -0.604
 -0.602  -0.586  -0.579  -0.572  -0.567  -0.548  -0.542  -0.533
 -0.531  -0.527  -0.526  -0.523  -0.511  -0.505  -0.500  -0.497
 -0.493  -0.487  -0.475  -0.462  -0.459  -0.455  -0.450  -0.449
 -0.445  -0.436  -0.402  -0.363  -0.349  -0.341  -0.323  -0.307

 Beta MOs
 -- Occupied --
-19.603 -19.601 -14.802 -10.593 -10.592 -10.566 -10.563 -10.559
-10.540 -10.539 -10.538 -10.536 -10.533 -10.530 -10.527 -10.527
-10.517 -10.516 -10.514 -10.514 -10.507 -10.507 -10.496 -10.473
-10.473  -1.260  -1.258  -1.200  -1.047  -1.029  -1.015  -0.963
 -0.934  -0.929  -0.926  -0.902  -0.889  -0.856  -0.841  -0.824
 -0.821  -0.798  -0.769  -0.748  -0.737  -0.716  -0.706  -0.677
 -0.670  -0.661  -0.647  -0.631  -0.613  -0.610  -0.609  -0.594
 -0.592  -0.584  -0.575  -0.566  -0.562  -0.547  -0.542  -0.532
 -0.530  -0.526  -0.525  -0.522  -0.512  -0.498  -0.495  -0.492
 -0.486  -0.486  -0.472  -0.458  -0.457  -0.453  -0.449  -0.444
 -0.437  -0.415  -0.389  -0.349  -0.343  -0.339  -0.312

          Ground-State Mulliken Net Atomic Charges

     Atom                 Charge (a.u.)    Spin (a.u.)
  --------------------------------------------------------
      1 C                    -0.344728       0.044402
      2 C                     0.133894      -0.027127
      3 C                    -0.312134       0.049555
      4 C                     0.134498      -0.027504
      5 C                    -0.340049       0.045326
      6 C                     0.311007      -0.039259
      7 N                    -0.660419       0.332079
      8 C                    -0.715486       0.002624
      9 C                    -0.715751       0.002739
     10 C                     0.316919      -0.079503
     11 C                     0.162681       0.032445
     12 C                     0.160630       0.111749
     13 C                     0.318966      -0.063851
     14 C                    -0.499839       0.004967
     15 C                     0.441825       0.178927
     16 C                    -0.328391      -0.098446
     17 C                    -0.227536       0.132286
     18 C                    -0.225780       0.169364
     19 C                    -0.376755      -0.104609
     20 C                     0.447811       0.152185
     21 C                    -0.456007       0.064036
     22 H                     0.245734      -0.002809
     23 H                     0.267865      -0.002328
     24 H                     0.268089      -0.002433
     25 H                     0.252899      -0.000745
     26 H                     0.243314      -0.000130
     27 H                     0.255607      -0.000945
     28 H                     0.254734      -0.000989
     29 H                     0.253992      -0.000732
     30 H                     0.243596      -0.000137
     31 H                     0.278084      -0.000932
     32 O                    -0.422427       0.070003
     33 H                     0.288750       0.004054
     34 H                     0.292832      -0.007293
     35 H                     0.293196      -0.009175
     36 H                     0.288058       0.004349
     37 O                    -0.428008       0.067011
     38 H                     0.270412      -0.003950
     39 C                    -0.439915      -0.007623
     40 C                    -0.437639      -0.006844
     41 H                     0.279875      -0.000076
     42 H                     0.237677       0.004975
     43 H                     0.236727       0.004919
     44 H                     0.275281      -0.000021
     45 H                     0.237647       0.004614
     46 H                     0.238264       0.004852
  --------------------------------------------------------
  Sum of atomic charges =     1.000000

                    Cartesian Multipole Moments
 -----------------------------------------------------------------
    Charge (ESU x 10^10)
                 4.8032
    Dipole Moment (Debye)
         X       8.0501      Y     -12.8945      Z      17.1800
       Tot      22.9396
    Quadrupole Moments (Debye-Ang)
        XX     -80.9529     XY     -36.7940     YY     -71.0224
        XZ      53.2664     YZ     -26.4288     ZZ     -41.4542

 Total job time:  3363.97s(wall), 12658.99s(cpu)
        *  Thank you very much for using Q-Chem.  Have a nice day.  *
