 Q-Chem 5.1, Q-Chem, Inc., Pleasanton, CA (2018)
 Q-Chem 5.1.1 for Intel X86 EM64T Linux

User input:
--------------------------------------------------------------
$rem
threads 4
jobtype opt
method PBEh-3c
basis def2-mSVP
mem_static      1024
mem_total       4000
sym_ignore      true
unrestricted true
scf_algorithm	diis
scf_max_cycles	250
solvent_method  pcm
geom_opt_tol_energy 25
geom_opt_tol_gradient 75
$end

$pcm
theory  iefpcm
$end

$solvent
dielectric      2.38
$end

$molecule
read Cz_DiMe_kat.mol
$end
--------------------------------------------------------------

   20    -903.5690986645      6.06e-09  Convergence criterion met
 Total energy in the final basis set =     -903.5690986645
   17    -903.5865892466      7.07e-09  Convergence criterion met
 Total energy in the final basis set =     -903.5865892466
   15    -903.5870113194      7.70e-09  Convergence criterion met
 Total energy in the final basis set =     -903.5870113194
   14    -903.5870583066      9.97e-09  Convergence criterion met
 Total energy in the final basis set =     -903.5870583066
   14    -903.5870779950      7.43e-09  Convergence criterion met
 Total energy in the final basis set =     -903.5870779950
   14    -903.5870906074      7.07e-09  Convergence criterion met
 Total energy in the final basis set =     -903.5870906074
   13    -903.5870956801      6.80e-09  Convergence criterion met
 Total energy in the final basis set =     -903.5870956801
   12    -903.5870962434      9.57e-09  Convergence criterion met
   14    -903.5871071509      6.66e-09  Convergence criterion met
 Total energy in the final basis set =     -903.5871071509
   13    -903.5871076951      6.92e-09  Convergence criterion met
 Total energy in the final basis set =     -903.5871076951
   14    -903.5871091847      8.35e-09  Convergence criterion met
 Total energy in the final basis set =     -903.5871091847
   12    -903.5871123760      9.13e-09  Convergence criterion met
 Total energy in the final basis set =     -903.5871123760
   13    -903.5871146000      9.17e-09  Convergence criterion met
 Total energy in the final basis set =     -903.5871146000
   14    -903.5871140122      7.20e-09  Convergence criterion met
 Total energy in the final basis set =     -903.5871140122

             Standard Nuclear Orientation (Angstroms)
    I     Atom           X                Y                Z
 ----------------------------------------------------------------
    1      C      -0.2348280376    -1.7513321118     1.1734902552
    2      C      -1.4150525470    -1.5201514622     0.4798311779
    3      C      -2.5932456755    -1.3682922932     1.2054840844
    4      C      -2.6297733345    -1.4363152735     2.5958144344
    5      C      -1.4423564317    -1.6606871053     3.2782812395
    6      C      -0.2621353434    -1.8162289782     2.5607729481
    7      N       0.9347165782    -2.0726516621     3.2617036047
    8      C      -1.4262660183    -1.4180196120    -1.0159327618
    9      C      -3.9299178700    -1.2867055210     3.3272345847
   10      C       1.7474403228    -3.1632254346     3.0557275194
   11      C       2.8195479325    -3.1099828059     3.9665129121
   12      C       2.6197995410    -1.9079014629     4.7612956141
   13      C       1.4406850615    -1.3059421427     4.2814428049
   14      C       3.3081730880    -1.3218652142     5.7931510936
   15      C       2.8250724835    -0.1261879701     6.3518795019
   16      C       1.6596485704     0.4602554839     5.8360748576
   17      C       0.9536472003    -0.1065609931     4.7946312705
   18      C       1.5647153710    -4.2322969412     2.1847595600
   19      C       2.5113779227    -5.2431939931     2.2161121329
   20      C       3.5958544189    -5.2121623927     3.0948824833
   21      C       3.7380630035    -4.1276090627     3.9860935361
   22      H      -3.5190583663    -1.1953443705     0.6670292706
   23      H       0.7010848480    -1.8518408827     0.6375648280
   24      H      -1.4430697076    -1.7589451991     4.3568607044
   25      H      -2.2076497088    -2.0438788324    -1.4471184564
   26      H      -0.4754802378    -1.7223601454    -1.4500092559
   27      H      -1.6218659258    -0.3930286907    -1.3340613287
   28      H      -4.6435709109    -2.0501139994     3.0157874565
   29      H      -4.3840126397    -0.3170937771     3.1203660387
   30      H      -3.8009136048    -1.3721008774     4.4046356637
   31      H       4.2164545485    -1.7683398738     6.1777374781
   32      C       3.5484815229     0.5293506542     7.4819682272
   33      H       1.3073898760     1.3901853009     6.2634298268
   34      H       0.0673115861     0.3681377519     4.3960827869
   35      H       0.7135887577    -4.2914865604     1.5199819947
   36      H       2.3972297575    -6.0884415968     1.5504194904
   37      C       4.5934974589    -6.3237354834     3.1215785810
   38      H       4.5637196171    -4.1182571406     4.6873138640
   39      H       4.4451883895    -0.0183780546     7.7638738073
   40      H       2.9068597783     0.6022216053     8.3616792762
   41      H       3.8419575188     1.5462322229     7.2169832818
   42      H       4.3656791005    -7.0901290261     2.3841157818
   43      H       4.6193291393    -6.7985844221     4.1039988896
   44      H       5.5990829664    -5.9501116538     2.9216789397
 ----------------------------------------------------------------

   13    -903.5871142492      8.87e-09  Convergence criterion met
 Total energy in the final basis set =     -903.5871142492
 Final energy is   -903.587114249190
 **  OPTIMIZATION CONVERGED  **

                    Orbital Energies (a.u.)
 --------------------------------------------------------------

 Alpha MOs
 -- Occupied --
-14.824 -10.570 -10.568 -10.566 -10.541 -10.540 -10.539 -10.537
-10.536 -10.535 -10.527 -10.526 -10.519 -10.519 -10.515 -10.515
-10.514 -10.514 -10.503 -10.484 -10.483 -10.476 -10.476  -1.221
 -1.056  -1.039  -1.025  -0.975  -0.950  -0.937  -0.933  -0.909
 -0.897  -0.849  -0.842  -0.829  -0.825  -0.793  -0.770  -0.746
 -0.735  -0.718  -0.711  -0.670  -0.666  -0.633  -0.631  -0.617
 -0.608  -0.590  -0.584  -0.576  -0.575  -0.562  -0.553  -0.538
 -0.536  -0.532  -0.532  -0.530  -0.515  -0.502  -0.500  -0.496
 -0.488  -0.487  -0.487  -0.479  -0.473  -0.470  -0.466  -0.457
 -0.456  -0.447  -0.409  -0.373  -0.358  -0.346  -0.332  -0.324

 Beta MOs
 -- Occupied --
-14.814 -10.571 -10.570 -10.567 -10.537 -10.537 -10.536 -10.536
-10.532 -10.532 -10.527 -10.526 -10.519 -10.519 -10.517 -10.516
-10.513 -10.513 -10.502 -10.484 -10.483 -10.476 -10.476  -1.206
 -1.052  -1.035  -1.021  -0.970  -0.945  -0.936  -0.929  -0.903
 -0.896  -0.848  -0.840  -0.827  -0.823  -0.791  -0.767  -0.742
 -0.731  -0.716  -0.708  -0.668  -0.663  -0.631  -0.617  -0.615
 -0.606  -0.588  -0.575  -0.574  -0.573  -0.558  -0.552  -0.534
 -0.532  -0.530  -0.529  -0.524  -0.515  -0.502  -0.500  -0.496
 -0.486  -0.485  -0.482  -0.470  -0.469  -0.467  -0.464  -0.455
 -0.454  -0.427  -0.399  -0.352  -0.348  -0.343  -0.332

          Ground-State Mulliken Net Atomic Charges

     Atom                 Charge (a.u.)    Spin (a.u.)
  --------------------------------------------------------
      1 C                    -0.348340       0.063938
      2 C                     0.134788      -0.041895
      3 C                    -0.307877       0.082523
      4 C                     0.134917      -0.042653
      5 C                    -0.344505       0.065340
      6 C                     0.324562      -0.044357
      7 N                    -0.653198       0.376743
      8 C                    -0.714743       0.003873
      9 C                    -0.715516       0.003983
     10 C                     0.317627      -0.103148
     11 C                     0.163735       0.072139
     12 C                     0.150339       0.110736
     13 C                     0.323887      -0.099010
     14 C                    -0.398832      -0.043496
     15 C                     0.131540       0.248059
     16 C                    -0.278422      -0.140136
     17 C                    -0.227475       0.201763
     18 C                    -0.226214       0.217512
     19 C                    -0.286645      -0.134357
     20 C                     0.130122       0.227756
     21 C                    -0.391693      -0.010868
     22 H                     0.249581      -0.004633
     23 H                     0.275436      -0.003367
     24 H                     0.275414      -0.003479
     25 H                     0.253541      -0.000813
     26 H                     0.244298      -0.000255
     27 H                     0.259066      -0.001713
     28 H                     0.257074      -0.001522
     29 H                     0.255479      -0.001094
     30 H                     0.244662      -0.000211
     31 H                     0.256595       0.001817
     32 C                    -0.717493      -0.019832
     33 H                     0.267513       0.006189
     34 H                     0.293946      -0.010607
     35 H                     0.293577      -0.011455
     36 H                     0.267692       0.005773
     37 C                    -0.716101      -0.016451
     38 H                     0.255158       0.000147
     39 H                     0.253882       0.000291
     40 H                     0.265097       0.012721
     41 H                     0.265234       0.012251
     42 H                     0.257252       0.000047
     43 H                     0.262626       0.010946
     44 H                     0.262415       0.010805
  --------------------------------------------------------
  Sum of atomic charges =     1.000000

                    Cartesian Multipole Moments
 -----------------------------------------------------------------
    Charge (ESU x 10^10)
                 4.8032
    Dipole Moment (Debye)
         X       6.1445      Y     -10.5974      Z      17.2044
       Tot      21.1200
    Quadrupole Moments (Debye-Ang)
        XX     -79.9071     XY     -29.8509     YY     -79.5297
        XZ      42.5861     YZ     -22.7989     ZZ     -36.5179

 Total job time:  6655.56s(wall), 24927.77s(cpu)
        *  Thank you very much for using Q-Chem.  Have a nice day.  *
