 Q-Chem 5.1, Q-Chem, Inc., Pleasanton, CA (2018)
 Q-Chem 5.1.1 for Intel X86 EM64T Linux

User input:
--------------------------------------------------------------
$rem
threads 4
jobtype	opt
method PBEh-3c
basis def2-mSVP
mem_static	1024
mem_total	3000
sym_ignore	true
scf_convergence	9
solvent_method	pcm
$end

$molecule
read Cz_DiMe.mol
$end

$solvent
dielectric	2.38
$end

$pcm
theory iefpcm
$end

--------------------------------------------------------------

   16    -903.7917365612      5.72e-10  Convergence criterion met
 Total energy in the final basis set =     -903.7917365612
   14    -903.8100168621      6.73e-10  Convergence criterion met
 Total energy in the final basis set =     -903.8100168621
   14    -903.8103115078      4.78e-10  Convergence criterion met
 Total energy in the final basis set =     -903.8103115078
   14    -903.8103055704      3.54e-10  Convergence criterion met
 Total energy in the final basis set =     -903.8103055704
   14    -903.8102947426      4.19e-10  Convergence criterion met
 Total energy in the final basis set =     -903.8102947426
   14    -903.8102723793      4.37e-10  Convergence criterion met
 Total energy in the final basis set =     -903.8102723793
   14    -903.8102639690      4.52e-10  Convergence criterion met
 Total energy in the final basis set =     -903.8102639690
   14    -903.8102607162      4.56e-10  Convergence criterion met
   14    -903.8105052176      6.44e-10  Convergence criterion met
 Total energy in the final basis set =     -903.8105052176
   14    -903.8105287641      5.34e-10  Convergence criterion met
 Total energy in the final basis set =     -903.8105287641
   14    -903.8105547409      5.14e-10  Convergence criterion met
 Total energy in the final basis set =     -903.8105547409
   14    -903.8105864480      5.13e-10  Convergence criterion met
 Total energy in the final basis set =     -903.8105864480
   14    -903.8106204768      5.42e-10  Convergence criterion met
 Total energy in the final basis set =     -903.8106204768
   14    -903.8106241328      4.42e-10  Convergence criterion met
 Total energy in the final basis set =     -903.8106241328

             Standard Nuclear Orientation (Angstroms)
    I     Atom           X                Y                Z
 ----------------------------------------------------------------
    1      C      -0.2391244747    -1.6182367115     1.1506087173
    2      C      -1.4279819538    -1.4114439256     0.4583354398
    3      C      -2.6155562825    -1.3498197314     1.1772780305
    4      C      -2.6468081317    -1.5068583067     2.5599721245
    5      C      -1.4525121679    -1.7372936654     3.2300344793
    6      C      -0.2546067858    -1.7861171446     2.5272897292
    7      N       0.9495722280    -2.0301347060     3.2160483023
    8      C      -1.4332088553    -1.2766145872    -1.0368432641
    9      C      -3.9505252681    -1.4372326126     3.3006483015
   10      C       1.7452720552    -3.1450017209     3.0541872061
   11      C       2.7955993007    -3.1035888240     3.9831797586
   12      C       2.6134348712    -1.9006472207     4.7526883622
   13      C       1.4616168675    -1.2743870577     4.2501821248
   14      C       3.3059189170    -1.3190089958     5.8101916074
   15      C       2.8573737581    -0.1289223343     6.3584350906
   16      C       1.7057461429     0.4745615220     5.8272056953
   17      C       0.9980378977    -0.0758831807     4.7764195192
   18      C       1.5868827191    -4.2202698622     2.1851513000
   19      C       2.5108491094    -5.2439746483     2.2561244303
   20      C       3.5806464554    -5.2291766359     3.1660130739
   21      C       3.7122512447    -4.1530306528     4.0279066295
   22      H      -3.5456860061    -1.1787748420     0.6448907746
   23      H       0.7038059898    -1.6463710543     0.6173202701
   24      H      -1.4509440410    -1.8943609266     4.3020117519
   25      H      -1.6792058422    -2.2285581702    -1.5120034949
   26      H      -0.4612529311    -0.9652838872    -1.4174503093
   27      H      -2.1730061315    -0.5493831872    -1.3709665375
   28      H      -4.6870492099    -2.1174213490     2.8711146688
   29      H      -4.3757269415    -0.4330754526     3.2555088188
   30      H      -3.8308160004    -1.6973110494     4.3512509675
   31      H       4.1937551253    -1.7990053849     6.2056811233
   32      C       3.5921794530     0.5284306598     7.4914351129
   33      H       1.3581806681     1.4070228151     6.2565573029
   34      H       0.1144249894     0.4111786348     4.3847654507
   35      H       0.7635532517    -4.2669636858     1.4841232134
   36      H       2.4000791553    -6.0925393479     1.5905749313
   37      C       4.5489440796    -6.3774460961     3.1962431970
   38      H       4.5236044364    -4.1355851480     4.7467699535
   39      H       4.3573999033    -0.1277073360     7.9048640744
   40      H       2.9167227185     0.8006170014     8.3037599665
   41      H       4.0883351511     1.4448940998     7.1655967911
   42      H       4.0397800793    -7.3248270006     3.3819836985
   43      H       5.2964586765    -6.2479642370     3.9780255995
   44      H       5.0799857792    -6.4795840538     2.2480260170
 ----------------------------------------------------------------

   14    -903.8106247125      4.48e-10  Convergence criterion met
 Total energy in the final basis set =     -903.8106247125
 Final energy is   -903.810624712457
 **  OPTIMIZATION CONVERGED  **

                    Orbital Energies (a.u.)
 --------------------------------------------------------------

 Alpha MOs
 -- Occupied --
-14.687 -10.494 -10.481 -10.481 -10.463 -10.463 -10.448 -10.448
-10.447 -10.447 -10.445 -10.445 -10.444 -10.444 -10.444 -10.442
-10.442 -10.441 -10.441 -10.434 -10.434 -10.427 -10.426  -1.108
 -0.978  -0.952  -0.949  -0.894  -0.882  -0.864  -0.853  -0.834
 -0.811  -0.782  -0.777  -0.766  -0.762  -0.714  -0.693  -0.662
 -0.658  -0.645  -0.641  -0.593  -0.585  -0.566  -0.555  -0.540
 -0.530  -0.509  -0.498  -0.496  -0.493  -0.488  -0.481  -0.480
 -0.472  -0.472  -0.471  -0.470  -0.466  -0.455  -0.437  -0.433
 -0.429  -0.416  -0.415  -0.406  -0.406  -0.400  -0.398  -0.389
 -0.382  -0.366  -0.325  -0.294  -0.291  -0.285  -0.248  -0.231

          Ground-State Mulliken Net Atomic Charges

     Atom                 Charge (a.u.)
  ----------------------------------------
      1 C                    -0.352571
      2 C                     0.136224
      3 C                    -0.335653
      4 C                     0.138068
      5 C                    -0.347197
      6 C                     0.332112
      7 N                    -0.732550
      8 C                    -0.715298
      9 C                    -0.717670
     10 C                     0.314381
     11 C                     0.111418
     12 C                     0.100520
     13 C                     0.321689
     14 C                    -0.415913
     15 C                     0.108579
     16 C                    -0.292567
     17 C                    -0.276444
     18 C                    -0.275530
     19 C                    -0.291231
     20 C                     0.110316
     21 C                    -0.418878
     22 H                     0.221230
     23 H                     0.248285
     24 H                     0.249542
     25 H                     0.243543
     26 H                     0.239158
     27 H                     0.237529
     28 H                     0.239989
     29 H                     0.241710
     30 H                     0.239421
     31 H                     0.214516
     32 C                    -0.714738
     33 H                     0.223517
     34 H                     0.247016
     35 H                     0.246101
     36 H                     0.223694
     37 C                    -0.715204
     38 H                     0.214039
     39 H                     0.231746
     40 H                     0.231949
     41 H                     0.235624
     42 H                     0.233650
     43 H                     0.231888
     44 H                     0.233991
  ----------------------------------------
  Sum of atomic charges =     0.000000

                    Cartesian Multipole Moments
 -----------------------------------------------------------------
    Charge (ESU x 10^10)
                 0.0000
    Dipole Moment (Debye)
         X      -2.0911      Y       0.2868      Z      -1.1172
       Tot       2.3881
    Quadrupole Moments (Debye-Ang)
        XX    -123.4533     XY      -1.9770     YY    -131.3692
        XZ       0.1698     YZ       7.9491     ZZ    -130.2859

 Total job time:  12886.02s(wall), 48230.51s(cpu)
        *  Thank you very much for using Q-Chem.  Have a nice day.  *
