 Q-Chem 5.1, Q-Chem, Inc., Pleasanton, CA (2018)
 Q-Chem 5.1.1 for Intel X86 EM64T Linux

User input:
--------------------------------------------------------------
$rem
threads 4
jobtype	opt
method PBEh-3c
basis def2-mSVP
mem_static	1024
mem_total	3000
sym_ignore	true
scf_convergence	9
solvent_method	pcm
$end

$molecule
read Cz_DiBu.mol
$end

$solvent
dielectric	2.38
$end

$pcm
theory iefpcm
$end

--------------------------------------------------------------

   16   -1139.1318579422      5.17e-10  Convergence criterion met
 Total energy in the final basis set =    -1139.1318579422
   14   -1139.1747780527      6.45e-10  Convergence criterion met
 Total energy in the final basis set =    -1139.1747780527
   14   -1139.1842570854      5.70e-10  Convergence criterion met
 Total energy in the final basis set =    -1139.1842570854
   14   -1139.1847440084      3.64e-10  Convergence criterion met
 Total energy in the final basis set =    -1139.1847440084
   14   -1139.1847568020      3.28e-10  Convergence criterion met
 Total energy in the final basis set =    -1139.1847568020
   14   -1139.1847335991      3.60e-10  Convergence criterion met
 Total energy in the final basis set =    -1139.1847335991
   14   -1139.1846824062      3.74e-10  Convergence criterion met
 Total energy in the final basis set =    -1139.1846824062
   14   -1139.1846701018      3.50e-10  Convergence criterion met
   14   -1139.1847081588      3.54e-10  Convergence criterion met
 Total energy in the final basis set =    -1139.1847081588
   14   -1139.1847105796      3.51e-10  Convergence criterion met
 Total energy in the final basis set =    -1139.1847105796
   14   -1139.1847314472      3.60e-10  Convergence criterion met
 Total energy in the final basis set =    -1139.1847314472
   14   -1139.1847571555      3.49e-10  Convergence criterion met
 Total energy in the final basis set =    -1139.1847571555
   14   -1139.1847740648      3.47e-10  Convergence criterion met
 Total energy in the final basis set =    -1139.1847740648
   14   -1139.1847781060      3.46e-10  Convergence criterion met
 Total energy in the final basis set =    -1139.1847781060

             Standard Nuclear Orientation (Angstroms)
    I     Atom           X                Y                Z
 ----------------------------------------------------------------
    1      C       3.7137597491    -4.1107197551     3.9571409115
    2      C       2.8097439526    -3.0560096005     3.9068163753
    3      C       1.7517815303    -3.0938012268     2.9847890387
    4      C       1.5907148835    -4.1675222908     2.1228565345
    5      C       2.5072506932    -5.2022025980     2.1993169920
    6      C       3.5750403371    -5.2041982747     3.1074243753
    7      C       2.6330807955    -1.8521284668     4.6770951958
    8      C       1.4777318756    -1.2268542234     4.1873650281
    9      N       0.9561441339    -1.9790431794     3.1525078191
   10      C       1.0247167378    -0.0331960376     4.7322158512
   11      C       1.7459787881     0.5047735017     5.7801577533
   12      C       2.9050137097    -0.0983880050     6.3028847337
   13      C       3.3393755068    -1.2834287751     5.7313230401
   14      C      -0.2702794421    -1.7646152479     2.4905768811
   15      C      -0.2900987731    -1.6083052762     1.1114351564
   16      C      -1.4976641690    -1.4359762117     0.4435825431
   17      C      -2.6716124355    -1.3988540759     1.1871809910
   18      C      -2.6689191775    -1.5454081409     2.5706941367
   19      C      -1.4544885991    -1.7416991557     3.2167737131
   20      C      -1.5383866807    -1.3064358956    -1.0515509828
   21      C      -3.9543344807    -1.4870454532     3.3436847996
   22      C       3.6342673544     0.5648593261     7.4653357036
   23      C       4.5425243021    -6.3813802901     3.2155013236
   24      H      -3.6164904616    -1.2537847744     0.6734802953
   25      H       0.6414061563    -1.6180124423     0.5577714008
   26      H      -1.4265672341    -1.8896164205     4.2897552693
   27      H      -1.8006433863    -2.2580793399    -1.5182864822
   28      H      -0.5746312770    -1.0001424550    -1.4563127326
   29      H      -2.2825117482    -0.5761700820    -1.3695001432
   30      H      -4.7406585246    -2.0614071674     2.8534456165
   31      H      -4.3120534251    -0.4591701213     3.4302197063
   32      H      -3.8351874953    -1.8779458869     4.3531537032
   33      H       4.2263077944    -1.7853934752     6.0939069622
   34      H       1.3925899143     1.4341050800     6.2097882106
   35      H       0.1383041845     0.4615908594     4.3568766567
   36      H       0.7679223326    -4.2158643029     1.4213257406
   37      H       2.3675526943    -6.0401132407     1.5305029252
   38      H       4.5172295497    -4.0833735247     4.6843269239
   39      C       4.8792259271    -0.2169595895     7.8850944055
   40      C       2.6942550166     0.6495934553     8.6741423166
   41      C       4.0743492845     1.9754078054     7.0539177007
   42      C       4.2584372548    -7.4665927919     2.1757492093
   43      C       4.4116056960    -7.0118193805     4.6081049956
   44      C       5.9807338392    -5.8924639783     3.0083007818
   45      H       5.3715276576     0.2902830298     8.7165925170
   46      H       4.6362642518    -1.2267093443     8.2212241095
   47      H       5.6076451807    -0.2941551714     7.0757449087
   48      H       3.1988719299     1.1196161385     9.5212798122
   49      H       1.8006249595     1.2363212206     8.4579067738
   50      H       2.3683605371    -0.3442478673     8.9852502795
   51      H       4.6084496800     2.4645566263     7.8714320853
   52      H       4.7393411852     1.9409949660     6.1894684188
   53      H       3.2271286888     2.6101423586     6.7913488008
   54      H       6.6843210723    -6.7229937637     3.1007339288
   55      H       6.1058449212    -5.4542604559     2.0168399931
   56      H       6.2678364950    -5.1386508231     3.7422680417
   57      H       5.0981644327    -7.8545766898     4.7152081285
   58      H       4.6404904866    -6.2981613669     5.4004551485
   59      H       3.3982465283    -7.3795725218     4.7776197806
   60      H       4.9798565451    -8.2783731086     2.2835616653
   61      H       3.2642201181    -7.9010016401     2.2950606924
   62      H       4.3444186459    -7.0895174610     1.1549775396
 ----------------------------------------------------------------

   14   -1139.1847774319      3.47e-10  Convergence criterion met
 Total energy in the final basis set =    -1139.1847774319
 Final energy is   -1139.18477743195
 **  OPTIMIZATION CONVERGED  **

                    Orbital Energies (a.u.)
 --------------------------------------------------------------

 Alpha MOs
 -- Occupied --
-14.686 -10.494 -10.481 -10.480 -10.462 -10.462 -10.454 -10.454
-10.447 -10.447 -10.444 -10.444 -10.444 -10.444 -10.444 -10.443
-10.442 -10.441 -10.441 -10.441 -10.439 -10.434 -10.434 -10.419
-10.419 -10.419 -10.418 -10.418 -10.418  -1.106  -0.978  -0.956
 -0.952  -0.914  -0.906  -0.882  -0.874  -0.852  -0.832  -0.806
 -0.802  -0.778  -0.773  -0.766  -0.762  -0.761  -0.761  -0.728
 -0.694  -0.692  -0.656  -0.651  -0.648  -0.624  -0.606  -0.592
 -0.582  -0.564  -0.555  -0.542  -0.528  -0.526  -0.508  -0.505
 -0.497  -0.494  -0.493  -0.488  -0.485  -0.482  -0.479  -0.474
 -0.473  -0.472  -0.468  -0.457  -0.454  -0.445  -0.444  -0.443
 -0.432  -0.425  -0.424  -0.412  -0.411  -0.411  -0.407  -0.407
 -0.403  -0.399  -0.395  -0.383  -0.375  -0.371  -0.370  -0.363
 -0.361  -0.359  -0.323  -0.294  -0.289  -0.284  -0.248  -0.231

          Ground-State Mulliken Net Atomic Charges

     Atom                 Charge (a.u.)
  ----------------------------------------
      1 C                    -0.445498
      2 C                     0.134654
      3 C                     0.312627
      4 C                    -0.271425
      5 C                    -0.333135
      6 C                     0.202827
      7 C                     0.122710
      8 C                     0.321854
      9 N                    -0.737190
     10 C                    -0.276533
     11 C                    -0.307587
     12 C                     0.201537
     13 C                    -0.471045
     14 C                     0.333126
     15 C                    -0.354200
     16 C                     0.136031
     17 C                    -0.336469
     18 C                     0.137913
     19 C                    -0.344930
     20 C                    -0.715581
     21 C                    -0.716264
     22 C                    -0.175562
     23 C                    -0.173091
     24 H                     0.220993
     25 H                     0.248233
     26 H                     0.248165
     27 H                     0.243405
     28 H                     0.239089
     29 H                     0.237623
     30 H                     0.238202
     31 H                     0.242801
     32 H                     0.239309
     33 H                     0.220256
     34 H                     0.221590
     35 H                     0.244576
     36 H                     0.244021
     37 H                     0.229064
     38 H                     0.212379
     39 C                    -0.657118
     40 C                    -0.613911
     41 C                    -0.615244
     42 C                    -0.657148
     43 C                    -0.612511
     44 C                    -0.615503
     45 H                     0.229766
     46 H                     0.223874
     47 H                     0.225021
     48 H                     0.215065
     49 H                     0.218581
     50 H                     0.226364
     51 H                     0.215151
     52 H                     0.227511
     53 H                     0.218676
     54 H                     0.214685
     55 H                     0.226504
     56 H                     0.219046
     57 H                     0.213719
     58 H                     0.219240
     59 H                     0.226401
     60 H                     0.228777
     61 H                     0.223848
     62 H                     0.224730
  ----------------------------------------
  Sum of atomic charges =     0.000000

                    Cartesian Multipole Moments
 -----------------------------------------------------------------
    Charge (ESU x 10^10)
                 0.0000
    Dipole Moment (Debye)
         X      -2.0659      Y       0.2573      Z      -0.8713
       Tot       2.2568
    Quadrupole Moments (Debye-Ang)
        XX    -162.9085     XY      -1.7564     YY    -171.1047
        XZ       0.8505     YZ       6.9724     ZZ    -168.0455

 Total job time:  18684.18s(wall), 68925.49s(cpu)
        *  Thank you very much for using Q-Chem.  Have a nice day.  *
