 Q-Chem 5.1, Q-Chem, Inc., Pleasanton, CA (2018)
 Q-Chem 5.1.1 for Intel X86 EM64T Linux

User input:
--------------------------------------------------------------
$rem
threads 4
jobtype	opt
method PBEh-3c
basis def2-mSVP
mem_static	1024
mem_total	3000
sym_ignore	true
scf_convergence	9
solvent_method	pcm
$end

$molecule
read Cz_DiOMe.mol
$end

$solvent
dielectric	2.38
$end

$pcm
theory iefpcm
$end

--------------------------------------------------------------

   16   -1053.8814503059      5.65e-10  Convergence criterion met
 Total energy in the final basis set =    -1053.8814503059
   14   -1053.9040670022      9.45e-10  Convergence criterion met
 Total energy in the final basis set =    -1053.9040670022
   14   -1053.9053577370      8.43e-10  Convergence criterion met
 Total energy in the final basis set =    -1053.9053577370
   14   -1053.9054060954      5.28e-10  Convergence criterion met
 Total energy in the final basis set =    -1053.9054060954
   14   -1053.9054388819      5.85e-10  Convergence criterion met
 Total energy in the final basis set =    -1053.9054388819
   14   -1053.9054324545      6.06e-10  Convergence criterion met
 Total energy in the final basis set =    -1053.9054324545
   14   -1053.9054163865      6.13e-10  Convergence criterion met
 Total energy in the final basis set =    -1053.9054163865
   14   -1053.9054033629      6.19e-10  Convergence criterion met
 Total energy in the final basis set =    -1053.9054033629
   14   -1053.9053941281      6.19e-10  Convergence criterion met
 Total energy in the final basis set =    -1053.9053941281
   14   -1053.9053927485      6.12e-10  Convergence criterion met
 Total energy in the final basis set =    -1053.9053927485

             Standard Nuclear Orientation (Angstroms)
    I     Atom           X                Y                Z
 ----------------------------------------------------------------
    1      C      -0.2736502447    -1.6252467521     1.1405043075
    2      C      -1.4657274921    -1.4458908368     0.4483494816
    3      C      -2.6519861738    -1.3767796975     1.1704697162
    4      C      -2.6754177226    -1.4962036800     2.5561784263
    5      C      -1.4757966812    -1.6986436092     3.2278020479
    6      C      -0.2805811114    -1.7582434196     2.5224014300
    7      N       0.9284909697    -1.9823257987     3.2062368667
    8      C      -1.4796120315    -1.3263195174    -1.0485035287
    9      C      -3.9775578866    -1.4297467253     3.3001435959
   10      C       1.7333189085    -3.0935186872     3.0510076442
   11      C       2.7859954033    -3.0387503545     3.9809720069
   12      C       2.5923487308    -1.8340863260     4.7445664536
   13      C       1.4377068720    -1.2214632277     4.2401309653
   14      C       3.2957328373    -1.2572802512     5.8010076643
   15      C       2.8271796709    -0.0696240862     6.3366763506
   16      C       1.6723751966     0.5382072204     5.8128782663
   17      C       0.9720492048    -0.0224464322     4.7667114629
   18      C       1.5887560382    -4.1758598894     2.1966438637
   19      C       2.5202253775    -5.1991291648     2.2636737063
   20      C       3.5844974736    -5.1501439508     3.1748496778
   21      C       3.7151990285    -4.0704414105     4.0376220554
   22      H      -3.5860612097    -1.2287504222     0.6376385441
   23      H       0.6668585166    -1.6604810569     0.6036289424
   24      H      -1.4702118428    -1.8288983094     4.3033527375
   25      H      -2.0122709063    -2.1626531427    -1.5044789081
   26      H      -0.4715906092    -1.3140820091    -1.4601929918
   27      H      -1.9814293723    -0.4127757157    -1.3696902298
   28      H      -4.6641435257    -2.2083837881     2.9644400191
   29      H      -4.4753744145    -0.4719857581     3.1410597234
   30      H      -3.8351938696    -1.5545209356     4.3724956595
   31      H       4.1833601294    -1.7483393553     6.1769638814
   32      O       3.4116556030     0.5861330928     7.3650190763
   33      H       1.3341683395     1.4694591999     6.2488193824
   34      H       0.0874026098     0.4632163955     4.3759897310
   35      H       0.7663103356    -4.2402435752     1.4961953593
   36      H       2.3998947673    -6.0414979270     1.5961436760
   37      O       4.5248705415    -6.1190595308     3.2814822788
   38      H       4.5306746280    -4.0524303696     4.7503879312
   39      C       4.5722524652     0.0295731853     7.9265403849
   40      C       4.3926778876    -7.2737404033     2.4926476893
   41      H       4.8828234587     0.6964773478     8.7279519000
   42      H       5.3882601721    -0.0456196555     7.2002186144
   43      H       4.3921831161    -0.9639038456     8.3501751365
   44      H       5.2256722243    -7.9239670969     2.7518671724
   45      H       4.4455650470    -7.0563133019     1.4209284229
   46      H       3.4593695410    -7.8102464260     2.6926834061
 ----------------------------------------------------------------

   14   -1053.9053933067      6.15e-10  Convergence criterion met
 Total energy in the final basis set =    -1053.9053933067
 Final energy is   -1053.90539330672
 **  OPTIMIZATION CONVERGED  **

                    Orbital Energies (a.u.)
 --------------------------------------------------------------

 Alpha MOs
 -- Occupied --
-19.523 -19.522 -14.684 -10.502 -10.502 -10.493 -10.484 -10.483
-10.480 -10.479 -10.462 -10.462 -10.450 -10.449 -10.449 -10.448
-10.447 -10.447 -10.445 -10.444 -10.444 -10.443 -10.441 -10.434
-10.434  -1.179  -1.178  -1.106  -0.978  -0.949  -0.946  -0.889
 -0.882  -0.856  -0.850  -0.826  -0.815  -0.783  -0.781  -0.771
 -0.768  -0.723  -0.698  -0.671  -0.662  -0.652  -0.645  -0.607
 -0.592  -0.590  -0.574  -0.566  -0.554  -0.544  -0.533  -0.531
 -0.531  -0.512  -0.499  -0.491  -0.486  -0.485  -0.482  -0.473
 -0.472  -0.469  -0.468  -0.461  -0.455  -0.447  -0.435  -0.429
 -0.419  -0.416  -0.413  -0.405  -0.402  -0.397  -0.385  -0.375
 -0.369  -0.350  -0.322  -0.291  -0.287  -0.278  -0.246  -0.220

          Ground-State Mulliken Net Atomic Charges

     Atom                 Charge (a.u.)
  ----------------------------------------
      1 C                    -0.358451
      2 C                     0.137932
      3 C                    -0.335241
      4 C                     0.139237
      5 C                    -0.350445
      6 C                     0.336028
      7 N                    -0.735300
      8 C                    -0.717689
      9 C                    -0.718182
     10 C                     0.317375
     11 C                     0.118528
     12 C                     0.106058
     13 C                     0.316946
     14 C                    -0.510109
     15 C                     0.390021
     16 C                    -0.333016
     17 C                    -0.272703
     18 C                    -0.276864
     19 C                    -0.378297
     20 C                     0.399791
     21 C                    -0.473711
     22 H                     0.221013
     23 H                     0.248553
     24 H                     0.249496
     25 H                     0.240786
     26 H                     0.238773
     27 H                     0.240737
     28 H                     0.240954
     29 H                     0.240706
     30 H                     0.239324
     31 H                     0.242011
     32 O                    -0.464783
     33 H                     0.246040
     34 H                     0.250796
     35 H                     0.250719
     36 H                     0.249262
     37 O                    -0.467207
     38 H                     0.229478
     39 C                    -0.419973
     40 C                    -0.417964
     41 H                     0.248083
     42 H                     0.212040
     43 H                     0.211627
     44 H                     0.246419
     45 H                     0.209823
     46 H                     0.211379
  ----------------------------------------
  Sum of atomic charges =    -0.000000

                    Cartesian Multipole Moments
 -----------------------------------------------------------------
    Charge (ESU x 10^10)
                -0.0000
    Dipole Moment (Debye)
         X      -1.7944      Y      -1.4100      Z      -1.8524
       Tot       2.9393
    Quadrupole Moments (Debye-Ang)
        XX    -130.7507     XY      -4.6900     YY    -130.9999
        XZ       2.7830     YZ       5.1587     ZZ    -142.9339

 Total job time:  4408.75s(wall), 16476.57s(cpu)
        *  Thank you very much for using Q-Chem.  Have a nice day.  *
