 Q-Chem 5.1, Q-Chem, Inc., Pleasanton, CA (2018)
 Q-Chem 5.1.1 for Intel X86 EM64T Linux

User input:
--------------------------------------------------------------
$rem
threads 4
jobtype opt
method PBEh-3c
basis def2-mSVP
mem_static      1024
mem_total       4000
sym_ignore      true
unrestricted true
scf_algorithm	diis
scf_max_cycles	250
solvent_method  pcm
geom_opt_tol_energy 25
geom_opt_tol_gradient 75
$end

$pcm
theory  iefpcm
$end

$solvent
dielectric      1.0001
$end

$molecule
read Cz_DiMe_kat.mol
$end
--------------------------------------------------------------

   21    -903.5323945189      4.17e-09  Convergence criterion met
 Total energy in the final basis set =     -903.5323945189
   17    -903.5502259090      6.82e-09  Convergence criterion met
 Total energy in the final basis set =     -903.5502259090
   14    -903.5506877602      8.96e-09  Convergence criterion met
 Total energy in the final basis set =     -903.5506877602
   13    -903.5507373185      5.81e-09  Convergence criterion met
 Total energy in the final basis set =     -903.5507373185
   12    -903.5507545397      8.99e-09  Convergence criterion met
 Total energy in the final basis set =     -903.5507545397
   12    -903.5507680596      8.54e-09  Convergence criterion met
 Total energy in the final basis set =     -903.5507680596
   11    -903.5507728850      6.28e-09  Convergence criterion met
 Total energy in the final basis set =     -903.5507728850
   10    -903.5507758232      9.36e-09  Convergence criterion met
   10    -903.5509450538      8.58e-09  Convergence criterion met
 Total energy in the final basis set =     -903.5509450538
    9    -903.5509458898      7.01e-09  Convergence criterion met
 Total energy in the final basis set =     -903.5509458898
   10    -903.5509487653      8.52e-09  Convergence criterion met
 Total energy in the final basis set =     -903.5509487653
   10    -903.5509503082      5.51e-09  Convergence criterion met
 Total energy in the final basis set =     -903.5509503082
   11    -903.5509529423      5.66e-09  Convergence criterion met
 Total energy in the final basis set =     -903.5509529423
    9    -903.5509535922      9.47e-09  Convergence criterion met
 Total energy in the final basis set =     -903.5509535922

             Standard Nuclear Orientation (Angstroms)
    I     Atom           X                Y                Z
 ----------------------------------------------------------------
    1      C      -0.2297005014    -1.7494247827     1.1704338176
    2      C      -1.4053341449    -1.5107657178     0.4722429218
    3      C      -2.5846990525    -1.3513799387     1.1951472802
    4      C      -2.6275417090    -1.4182800034     2.5849620651
    5      C      -1.4428115218    -1.6467233564     3.2713302270
    6      C      -0.2616924276    -1.8122020385     2.5580735763
    7      N       0.9321319301    -2.0724221559     3.2632308440
    8      C      -1.4123071640    -1.4056135350    -1.0231408735
    9      C      -3.9316393012    -1.2822652021     3.3115316209
   10      C       1.7383666818    -3.1677278783     3.0667776907
   11      C       2.8106691377    -3.1152673990     3.9785375198
   12      C       2.6168963911    -1.9068041815     4.7663729673
   13      C       1.4419837840    -1.3001924225     4.2789410820
   14      C       3.3045196044    -1.3155136672     5.7925423682
   15      C       2.8282308904    -0.1079342872     6.3414144339
   16      C       1.6735648290     0.4809623058     5.8162949403
   17      C       0.9648873282    -0.0937353435     4.7765052708
   18      C       1.5510905297    -4.2411027701     2.2006525175
   19      C       2.4926626831    -5.2543982493     2.2357218702
   20      C       3.5790029470    -5.2243021339     3.1140965778
   21      C       3.7244942993    -4.1374174967     4.0005921487
   22      H      -3.5072809741    -1.1713593875     0.6537235211
   23      H       0.7085401581    -1.8525385623     0.6389604826
   24      H      -1.4476370718    -1.7431776491     4.3500913918
   25      H      -2.1886313172    -2.0345632316    -1.4588444924
   26      H      -0.4601077853    -1.7045007956    -1.4577498726
   27      H      -1.6113860141    -0.3811632684    -1.3402943224
   28      H      -4.5417290723    -2.1773612135     3.1814755690
   29      H      -4.5093892442    -0.4400832436     2.9318801465
   30      H      -3.7898485162    -1.1346074482     4.3805403672
   31      H       4.2101896667    -1.7621278989     6.1844553868
   32      C       3.5610395650     0.5226509636     7.4792654081
   33      H       1.3272689716     1.4185556259     6.2297978139
   34      H       0.0851190892     0.3845002594     4.3677274767
   35      H       0.6985463750    -4.2987468907     1.5376802011
   36      H       2.3751440579    -6.1018296880     1.5736437499
   37      C       4.5708302891    -6.3411242360     3.1450229598
   38      H       4.5515734378    -4.1299139445     4.7000335073
   39      H       4.6330742366     0.5673397290     7.2855350862
   40      H       3.4250763325    -0.0610563195     8.3924308727
   41      H       3.2117198832     1.5330883493     7.6790990856
   42      H       4.3657841550    -7.0889734523     2.3823762646
   43      H       4.5609077691    -6.8430414263     4.1144170393
   44      H       5.5848207950    -5.9705560172     2.9876114905
 ----------------------------------------------------------------

   10    -903.5509536985      4.85e-09  Convergence criterion met
 Total energy in the final basis set =     -903.5509536985
 Final energy is   -903.550953698455
 **  OPTIMIZATION CONVERGED  **

                    Orbital Energies (a.u.)
 --------------------------------------------------------------

 Alpha MOs
 -- Occupied --
-14.888 -10.634 -10.633 -10.629 -10.604 -10.604 -10.603 -10.602
-10.600 -10.600 -10.592 -10.591 -10.581 -10.581 -10.580 -10.579
-10.578 -10.577 -10.565 -10.546 -10.546 -10.536 -10.536  -1.285
 -1.120  -1.103  -1.087  -1.038  -1.014  -0.999  -0.997  -0.972
 -0.961  -0.912  -0.905  -0.891  -0.886  -0.857  -0.833  -0.811
 -0.799  -0.782  -0.773  -0.735  -0.729  -0.697  -0.694  -0.681
 -0.672  -0.654  -0.648  -0.642  -0.641  -0.626  -0.618  -0.601
 -0.599  -0.594  -0.593  -0.593  -0.574  -0.566  -0.561  -0.560
 -0.551  -0.551  -0.550  -0.543  -0.535  -0.533  -0.529  -0.520
 -0.518  -0.510  -0.473  -0.436  -0.420  -0.408  -0.397  -0.388

 Beta MOs
 -- Occupied --
-14.878 -10.635 -10.635 -10.630 -10.601 -10.601 -10.601 -10.601
-10.597 -10.597 -10.592 -10.592 -10.581 -10.581 -10.581 -10.581
-10.576 -10.576 -10.564 -10.546 -10.546 -10.536 -10.536  -1.270
 -1.116  -1.100  -1.084  -1.034  -1.009  -0.998  -0.993  -0.966
 -0.961  -0.912  -0.902  -0.889  -0.884  -0.855  -0.830  -0.806
 -0.796  -0.780  -0.771  -0.733  -0.727  -0.695  -0.680  -0.679
 -0.670  -0.653  -0.640  -0.640  -0.637  -0.623  -0.617  -0.595
 -0.594  -0.592  -0.592  -0.586  -0.575  -0.565  -0.561  -0.559
 -0.550  -0.549  -0.543  -0.534  -0.533  -0.529  -0.528  -0.519
 -0.515  -0.491  -0.463  -0.415  -0.410  -0.405  -0.397

          Ground-State Mulliken Net Atomic Charges

     Atom                 Charge (a.u.)    Spin (a.u.)
  --------------------------------------------------------
      1 C                    -0.347480       0.062805
      2 C                     0.142576      -0.041490
      3 C                    -0.301550       0.083728
      4 C                     0.142541      -0.042403
      5 C                    -0.342696       0.064918
      6 C                     0.324338      -0.042303
      7 N                    -0.654324       0.375349
      8 C                    -0.710439       0.003853
      9 C                    -0.709700       0.003986
     10 C                     0.315333      -0.101059
     11 C                     0.169996       0.086061
     12 C                     0.163335       0.089876
     13 C                     0.320660      -0.100157
     14 C                    -0.390276      -0.029316
     15 C                     0.134796       0.239136
     16 C                    -0.277299      -0.138329
     17 C                    -0.222903       0.212298
     18 C                    -0.222443       0.214675
     19 C                    -0.276328      -0.137480
     20 C                     0.135210       0.235999
     21 C                    -0.390812      -0.025775
     22 H                     0.243763      -0.004707
     23 H                     0.263372      -0.003355
     24 H                     0.262819      -0.003512
     25 H                     0.255026      -0.000796
     26 H                     0.241046      -0.000253
     27 H                     0.261666      -0.001702
     28 H                     0.261547      -0.001785
     29 H                     0.254802      -0.000728
     30 H                     0.240906      -0.000290
     31 H                     0.241483       0.001124
     32 C                    -0.712175      -0.017535
     33 H                     0.259773       0.006019
     34 H                     0.285013      -0.011250
     35 H                     0.284432      -0.011414
     36 H                     0.259820       0.005971
     37 C                    -0.712657      -0.017080
     38 H                     0.241367       0.000941
     39 H                     0.259024       0.008219
     40 H                     0.266603       0.014283
     41 H                     0.257098       0.000793
     42 H                     0.256670       0.000115
     43 H                     0.263892       0.011999
     44 H                     0.262177       0.010573
  --------------------------------------------------------
  Sum of atomic charges =     1.000000

                    Cartesian Multipole Moments
 -----------------------------------------------------------------
    Charge (ESU x 10^10)
                 4.8032
    Dipole Moment (Debye)
         X       6.0086      Y     -10.7354      Z      17.0936
       Tot      21.0604
    Quadrupole Moments (Debye-Ang)
        XX     -78.8441     XY     -29.9106     YY     -78.6835
        XZ      43.0672     YZ     -23.7000     ZZ     -36.5909

 Total job time:  11746.20s(wall), 42733.80s(cpu)
        *  Thank you very much for using Q-Chem.  Have a nice day.  *
