 Q-Chem 5.1, Q-Chem, Inc., Pleasanton, CA (2018)
 Q-Chem 5.1.1 for Intel X86 EM64T Linux

User input:
--------------------------------------------------------------
$rem
threads 4
jobtype opt
method PBEh-3c
basis def2-mSVP
mem_static      1024
mem_total       4000
sym_ignore      true
unrestricted true
scf_algorithm	diis
scf_max_cycles	250
solvent_method  pcm
geom_opt_tol_energy 25
geom_opt_tol_gradient 75
$end

$pcm
theory  iefpcm
$end

$solvent
dielectric      1.0001
$end

$molecule
read Cz_DiMe.mol
$end
--------------------------------------------------------------

   14    -903.7854409104      3.76e-09  Convergence criterion met
 Total energy in the final basis set =     -903.7854409104
   12    -903.8039841217      3.81e-09  Convergence criterion met
 Total energy in the final basis set =     -903.8039841217
   10    -903.8042989710      8.30e-09  Convergence criterion met
 Total energy in the final basis set =     -903.8042989710
    9    -903.8042946598      6.62e-09  Convergence criterion met
 Total energy in the final basis set =     -903.8042946598
    8    -903.8042861766      8.92e-09  Convergence criterion met
 Total energy in the final basis set =     -903.8042861766
    9    -903.8042655055      5.11e-09  Convergence criterion met
 Total energy in the final basis set =     -903.8042655055
    8    -903.8042552721      8.50e-09  Convergence criterion met
 Total energy in the final basis set =     -903.8042552721
    8    -903.8042510091      4.93e-09  Convergence criterion met
    9    -903.8046634136      6.66e-09  Convergence criterion met
 Total energy in the final basis set =     -903.8046634136
    8    -903.8046682631      4.80e-09  Convergence criterion met
 Total energy in the final basis set =     -903.8046682631
    8    -903.8046620646      6.26e-09  Convergence criterion met
 Total energy in the final basis set =     -903.8046620646
    8    -903.8046554410      4.73e-09  Convergence criterion met
 Total energy in the final basis set =     -903.8046554410
    6    -903.8046546879      5.37e-09  Convergence criterion met
 Total energy in the final basis set =     -903.8046546879
    6    -903.8046537706      4.73e-09  Convergence criterion met
 Total energy in the final basis set =     -903.8046537706

             Standard Nuclear Orientation (Angstroms)
    I     Atom           X                Y                Z
 ----------------------------------------------------------------
    1      C      -0.2401800484    -1.6282069407     1.1549205996
    2      C      -1.4278655279    -1.4175666788     0.4589259565
    3      C      -2.6132514981    -1.3402660015     1.1749084407
    4      C      -2.6456512413    -1.4823821409     2.5608109739
    5      C      -1.4555722013    -1.7140846414     3.2325372029
    6      C      -0.2558959990    -1.7819073322     2.5309142495
    7      N       0.9437487674    -2.0326719194     3.2216944137
    8      C      -1.4124273286    -1.2811408704    -1.0358102178
    9      C      -3.9516663266    -1.4084220014     3.2966738484
   10      C       1.7362712651    -3.1501537929     3.0580348385
   11      C       2.7893237473    -3.1095365717     3.9830930292
   12      C       2.6129815088    -1.9053332693     4.7514100059
   13      C       1.4619031716    -1.2763727000     4.2529020649
   14      C       3.3105381937    -1.3230666988     5.8042658896
   15      C       2.8679856612    -0.1313527387     6.3519989039
   16      C       1.7182463345     0.4758356600     5.8227337488
   17      C       1.0050586499    -0.0748010322     4.7766743115
   18      C       1.5725658510    -4.2248899117     2.1906012735
   19      C       2.4948945670    -5.2495921489     2.2581628105
   20      C       3.5670203900    -5.2360570467     3.1635323000
   21      C       3.7033133694    -4.1601919059     4.0242921188
   22      H      -3.5419812769    -1.1682646455     0.6408504774
   23      H       0.7033850878    -1.6704555082     0.6233311845
   24      H      -1.4536133529    -1.8610004576     4.3057866365
   25      H      -1.1408724625    -2.2239246649    -1.5139284352
   26      H      -0.6873739249    -0.5345524659    -1.3614491483
   27      H      -2.3868631451    -0.9866165666    -1.4230992595
   28      H      -4.6398414418    -2.1850086983     2.9593754124
   29      H      -4.4444099888    -0.4486531440     3.1343426838
   30      H      -3.8168881551    -1.5323663032     4.3700904168
   31      H       4.1995390227    -1.8034491824     6.1961677804
   32      C       3.5968275815     0.5158675264     7.4942064303
   33      H       1.3778398303     1.4124734713     6.2485644714
   34      H       0.1246984618     0.4160459293     4.3827672802
   35      H       0.7454238214    -4.2702137801     1.4942557659
   36      H       2.3811138693    -6.0979008582     1.5929621785
   37      C       4.5305809458    -6.3879964687     3.1941346243
   38      H       4.5181605323    -4.1438576285     4.7390004101
   39      H       4.4875656429    -0.0478128312     7.7696219542
   40      H       2.9674619799     0.5866324595     8.3831525149
   41      H       3.9158259452     1.5288614149     7.2432621476
   42      H       4.0267683659    -7.3241745438     3.4416902571
   43      H       5.3142599356    -6.2339741800     3.9349634613
   44      H       5.0174514198    -6.5305981908     2.2278139926
 ----------------------------------------------------------------

    5    -903.8046534581      8.35e-09  Convergence criterion met
 Total energy in the final basis set =     -903.8046534581
 Final energy is   -903.804653458071
 **  OPTIMIZATION CONVERGED  **

                    Orbital Energies (a.u.)
 --------------------------------------------------------------

 Alpha MOs
 -- Occupied --
-14.684 -10.494 -10.477 -10.477 -10.464 -10.464 -10.449 -10.449
-10.447 -10.444 -10.444 -10.441 -10.441 -10.441 -10.441 -10.439
-10.439 -10.439 -10.439 -10.439 -10.438 -10.427 -10.427  -1.105
 -0.978  -0.949  -0.947  -0.892  -0.885  -0.861  -0.851  -0.833
 -0.809  -0.785  -0.778  -0.766  -0.762  -0.712  -0.692  -0.663
 -0.657  -0.643  -0.640  -0.593  -0.583  -0.567  -0.557  -0.539
 -0.528  -0.507  -0.496  -0.495  -0.491  -0.489  -0.483  -0.480
 -0.477  -0.472  -0.470  -0.470  -0.466  -0.458  -0.437  -0.437
 -0.428  -0.416  -0.415  -0.407  -0.406  -0.401  -0.395  -0.387
 -0.380  -0.364  -0.320  -0.295  -0.289  -0.283  -0.244  -0.228

 Beta MOs
 -- Occupied --
-14.684 -10.494 -10.477 -10.477 -10.464 -10.464 -10.449 -10.449
-10.447 -10.444 -10.444 -10.441 -10.441 -10.441 -10.441 -10.439
-10.439 -10.439 -10.439 -10.439 -10.438 -10.427 -10.427  -1.105
 -0.978  -0.949  -0.947  -0.892  -0.885  -0.861  -0.851  -0.833
 -0.809  -0.785  -0.778  -0.766  -0.762  -0.712  -0.692  -0.663
 -0.657  -0.643  -0.640  -0.593  -0.583  -0.567  -0.557  -0.539
 -0.528  -0.507  -0.496  -0.495  -0.491  -0.489  -0.483  -0.480
 -0.477  -0.472  -0.470  -0.470  -0.466  -0.458  -0.437  -0.437
 -0.428  -0.416  -0.415  -0.407  -0.406  -0.401  -0.395  -0.387
 -0.380  -0.364  -0.320  -0.295  -0.289  -0.283  -0.244  -0.228

          Ground-State Mulliken Net Atomic Charges

     Atom                 Charge (a.u.)    Spin (a.u.)
  --------------------------------------------------------
      1 C                    -0.342190       0.000000
      2 C                     0.146297       0.000000
      3 C                    -0.329575      -0.000000
      4 C                     0.147682       0.000000
      5 C                    -0.341204      -0.000000
      6 C                     0.340388      -0.000000
      7 N                    -0.737676      -0.000000
      8 C                    -0.708875      -0.000000
      9 C                    -0.711600       0.000000
     10 C                     0.316845       0.000000
     11 C                     0.124293      -0.000000
     12 C                     0.113082       0.000000
     13 C                     0.324436      -0.000000
     14 C                    -0.406301       0.000000
     15 C                     0.121223      -0.000000
     16 C                    -0.280149      -0.000000
     17 C                    -0.265086       0.000000
     18 C                    -0.263519      -0.000000
     19 C                    -0.278838       0.000000
     20 C                     0.122508      -0.000000
     21 C                    -0.408648      -0.000000
     22 H                     0.206329      -0.000000
     23 H                     0.237329       0.000000
     24 H                     0.238813       0.000000
     25 H                     0.236871      -0.000000
     26 H                     0.236592       0.000000
     27 H                     0.229619      -0.000000
     28 H                     0.236482       0.000000
     29 H                     0.234978       0.000000
     30 H                     0.233287       0.000000
     31 H                     0.197099      -0.000000
     32 C                    -0.708642      -0.000000
     33 H                     0.208363       0.000000
     34 H                     0.234969      -0.000000
     35 H                     0.233543      -0.000000
     36 H                     0.208173       0.000000
     37 C                    -0.708580      -0.000000
     38 H                     0.196430       0.000000
     39 H                     0.225213      -0.000000
     40 H                     0.228744      -0.000000
     41 H                     0.228637      -0.000000
     42 H                     0.229120      -0.000000
     43 H                     0.225200      -0.000000
     44 H                     0.228337      -0.000000
  --------------------------------------------------------
  Sum of atomic charges =    -0.000000

                    Cartesian Multipole Moments
 -----------------------------------------------------------------
    Charge (ESU x 10^10)
                -0.0000
    Dipole Moment (Debye)
         X      -1.8117      Y       0.2594      Z      -0.9860
       Tot       2.0789
    Quadrupole Moments (Debye-Ang)
        XX    -125.4082     XY      -1.9458     YY    -132.4650
        XZ       0.1651     YZ       7.0402     ZZ    -131.1327

 Total job time:  11739.62s(wall), 42578.96s(cpu)
        *  Thank you very much for using Q-Chem.  Have a nice day.  *
