 Q-Chem 5.1, Q-Chem, Inc., Pleasanton, CA (2018)
 Q-Chem 5.1.1 for Intel X86 EM64T Linux

User input:
--------------------------------------------------------------
$rem
threads 4
jobtype opt
method PBEh-3c
basis def2-mSVP
mem_static      1024
mem_total       4000
sym_ignore      true
unrestricted true
scf_algorithm	diis
scf_max_cycles	250
solvent_method  pcm
geom_opt_tol_energy 25
geom_opt_tol_gradient 75
$end

$pcm
theory  iefpcm
$end

$solvent
dielectric      2.38
$end

$molecule
read Cz_kat.mol
$end
--------------------------------------------------------------

   20    -825.0985169322      4.85e-09  Convergence criterion met
 Total energy in the final basis set =     -825.0985169322
   17    -825.1130306641      6.74e-09  Convergence criterion met
 Total energy in the final basis set =     -825.1130306641
   15    -825.1135511855      7.06e-09  Convergence criterion met
 Total energy in the final basis set =     -825.1135511855
   14    -825.1136021600      9.98e-09  Convergence criterion met
 Total energy in the final basis set =     -825.1136021600
   14    -825.1136250235      9.30e-09  Convergence criterion met
 Total energy in the final basis set =     -825.1136250235
   14    -825.1136275428      8.71e-09  Convergence criterion met
 Total energy in the final basis set =     -825.1136275428
   14    -825.1136294694      7.25e-09  Convergence criterion met
 Total energy in the final basis set =     -825.1136294694
   14    -825.1136313730      8.78e-09  Convergence criterion met
   15    -825.1136343408      5.22e-09  Convergence criterion met
 Total energy in the final basis set =     -825.1136343408
   15    -825.1136446539      7.09e-09  Convergence criterion met
 Total energy in the final basis set =     -825.1136446539
   14    -825.1136477020      8.35e-09  Convergence criterion met
 Total energy in the final basis set =     -825.1136477020
   16    -825.1136478062      7.05e-09  Convergence criterion met
 Total energy in the final basis set =     -825.1136478062
   13    -825.1136507731      6.63e-09  Convergence criterion met
 Total energy in the final basis set =     -825.1136507731
   15    -825.1136498585      5.80e-09  Convergence criterion met
 Total energy in the final basis set =     -825.1136498585

             Standard Nuclear Orientation (Angstroms)
    I     Atom           X                Y                Z
 ----------------------------------------------------------------
    1      C      -0.1909680280    -1.7916697425     1.2053233144
    2      C      -1.3673726071    -1.5487720668     0.5116559772
    3      C      -2.5427144876    -1.3716697606     1.2380904410
    4      C      -2.5795950633    -1.4256177858     2.6297911109
    5      C      -1.3953919276    -1.6580659553     3.3129341014
    6      C      -0.2163744627    -1.8398598293     2.5955728862
    7      N       0.9751113516    -2.0957304580     3.2964099730
    8      C      -1.3810215932    -1.4603734049    -0.9846179943
    9      C      -3.8778500334    -1.2548333171     3.3594016169
   10      C       1.8104152164    -3.1690133413     3.0726098181
   11      C       2.8772311479    -3.1106895964     3.9888464843
   12      C       2.6535988994    -1.9298223587     4.8071647144
   13      C       1.4663745009    -1.3365381826     4.3362497979
   14      C       3.3304601060    -1.3497228539     5.8507951302
   15      C       2.8102903697    -0.1740257744     6.4081900424
   16      C       1.6505377017     0.4153707507     5.9140662488
   17      C       0.9574400768    -0.1512590452     4.8555114970
   18      C       1.6406570239    -4.2250533899     2.1799754788
   19      C       2.6078674429    -5.2184984861     2.1887534170
   20      C       3.6811402490    -5.1614244616     3.0719384702
   21      C       3.8191041118    -4.1110876200     3.9893124440
   22      H      -3.4660220813    -1.1882902893     0.6988541703
   23      H       0.7432160627    -1.9033823825     0.6688603206
   24      H      -1.3972760516    -1.7480225108     4.3920906937
   25      H      -2.1426831046    -2.1149511479    -1.4087463700
   26      H      -0.4214166077    -1.7396300430    -1.4158374506
   27      H      -1.6092624252    -0.4453959017    -1.3123582618
   28      H      -4.5799742244    -2.0464718713     3.0954989410
   29      H      -4.3483735568    -0.3062437286     3.0997335378
   30      H      -3.7423433142    -1.2773760749     4.4390766888
   31      H       4.2444469249    -1.7809509519     6.2367205580
   32      H       3.3299387276     0.2919549390     7.2339568864
   33      H       1.2874990990     1.3329098967     6.3547199123
   34      H       0.0703884691     0.3179467679     4.4527686833
   35      H       0.7865354060    -4.2865061467     1.5195808368
   36      H       2.5164163464    -6.0548705057     1.5100929881
   37      H       4.4166045164    -5.9541587804     3.0635254509
   38      H       4.6455658185    -4.1058045896     4.6870874448
 ----------------------------------------------------------------

   15    -825.1136498219      7.37e-09  Convergence criterion met
 Total energy in the final basis set =     -825.1136498219
 Final energy is   -825.113649821871
 **  OPTIMIZATION CONVERGED  **

                    Orbital Energies (a.u.)
 --------------------------------------------------------------

 Alpha MOs
 -- Occupied --
-14.833 -10.576 -10.576 -10.573 -10.543 -10.542 -10.541 -10.541
-10.532 -10.532 -10.531 -10.531 -10.524 -10.524 -10.521 -10.521
-10.520 -10.520 -10.510 -10.479 -10.479  -1.227  -1.061  -1.040
 -1.028  -0.974  -0.945  -0.935  -0.934  -0.897  -0.892  -0.837
 -0.834  -0.817  -0.782  -0.777  -0.739  -0.724  -0.717  -0.674
 -0.673  -0.657  -0.637  -0.628  -0.606  -0.604  -0.591  -0.580
 -0.576  -0.574  -0.560  -0.539  -0.536  -0.535  -0.518  -0.506
 -0.503  -0.502  -0.501  -0.499  -0.482  -0.477  -0.477  -0.464
 -0.462  -0.455  -0.417  -0.386  -0.367  -0.352  -0.339  -0.336

 Beta MOs
 -- Occupied --
-14.822 -10.578 -10.578 -10.574 -10.541 -10.541 -10.537 -10.537
-10.532 -10.532 -10.528 -10.528 -10.525 -10.525 -10.523 -10.523
-10.519 -10.519 -10.508 -10.479 -10.479  -1.211  -1.057  -1.037
 -1.023  -0.970  -0.944  -0.932  -0.930  -0.897  -0.882  -0.834
 -0.832  -0.814  -0.777  -0.776  -0.736  -0.722  -0.714  -0.672
 -0.670  -0.654  -0.626  -0.622  -0.605  -0.600  -0.583  -0.579
 -0.573  -0.568  -0.560  -0.537  -0.535  -0.534  -0.518  -0.505
 -0.501  -0.500  -0.489  -0.488  -0.480  -0.475  -0.474  -0.463
 -0.458  -0.439  -0.405  -0.362  -0.353  -0.348  -0.342

          Ground-State Mulliken Net Atomic Charges

     Atom                 Charge (a.u.)    Spin (a.u.)
  --------------------------------------------------------
      1 C                    -0.350177       0.079081
      2 C                     0.135747      -0.053932
      3 C                    -0.303351       0.113168
      4 C                     0.135608      -0.055056
      5 C                    -0.347771       0.081039
      6 C                     0.333465      -0.043507
      7 N                    -0.651327       0.396527
      8 C                    -0.714907       0.004867
      9 C                    -0.715115       0.005005
     10 C                     0.332953      -0.112687
     11 C                     0.138049       0.095693
     12 C                     0.132631       0.097558
     13 C                     0.337803      -0.112094
     14 C                    -0.343674      -0.045405
     15 C                    -0.203533       0.235021
     16 C                    -0.241827      -0.137787
     17 C                    -0.240501       0.227459
     18 C                    -0.240805       0.228204
     19 C                    -0.240697      -0.136581
     20 C                    -0.203035       0.232255
     21 C                    -0.344533      -0.043858
     22 H                     0.253634      -0.006313
     23 H                     0.281342      -0.004178
     24 H                     0.281977      -0.004306
     25 H                     0.255714      -0.001088
     26 H                     0.245810      -0.000309
     27 H                     0.260488      -0.002127
     28 H                     0.259460      -0.002052
     29 H                     0.256654      -0.001265
     30 H                     0.245958      -0.000288
     31 H                     0.266305       0.002241
     32 H                     0.282608      -0.012810
     33 H                     0.279181       0.006003
     34 H                     0.299348      -0.011933
     35 H                     0.298401      -0.012020
     36 H                     0.279305       0.005959
     37 H                     0.282785      -0.012659
     38 H                     0.266029       0.002173
  --------------------------------------------------------
  Sum of atomic charges =     1.000000

                    Cartesian Multipole Moments
 -----------------------------------------------------------------
    Charge (ESU x 10^10)
                 4.8032
    Dipole Moment (Debye)
         X       4.6599      Y     -10.3305      Z      16.1444
       Tot      19.7250
    Quadrupole Moments (Debye-Ang)
        XX     -73.2493     XY     -25.4182     YY     -74.7564
        XZ      34.5783     YZ     -22.0052     ZZ     -34.0529

 Total job time:  4435.33s(wall), 16713.93s(cpu)
        *  Thank you very much for using Q-Chem.  Have a nice day.  *
