 Q-Chem 5.1, Q-Chem, Inc., Pleasanton, CA (2018)
 Q-Chem 5.1.1 for Intel X86 EM64T Linux

User input:
--------------------------------------------------------------
$rem
threads 4
jobtype opt
method PBEh-3c
basis def2-mSVP
mem_static      1024
mem_total       4000
sym_ignore      true
unrestricted true
scf_algorithm	diis
scf_max_cycles	250
solvent_method  pcm
geom_opt_tol_energy 25
geom_opt_tol_gradient 75
$end

$pcm
theory  iefpcm
$end

$solvent
dielectric      1.0001
$end

$molecule
read Cz_kat.mol
$end
--------------------------------------------------------------

   20    -825.0603513234      5.38e-09  Convergence criterion met
 Total energy in the final basis set =     -825.0603513234
   17    -825.0750462688      6.44e-09  Convergence criterion met
 Total energy in the final basis set =     -825.0750462688
   15    -825.0755968781      6.09e-09  Convergence criterion met
 Total energy in the final basis set =     -825.0755968781
   14    -825.0756432044      6.75e-09  Convergence criterion met
 Total energy in the final basis set =     -825.0756432044
   13    -825.0756660884      6.73e-09  Convergence criterion met
 Total energy in the final basis set =     -825.0756660884
   13    -825.0756694960      6.71e-09  Convergence criterion met
 Total energy in the final basis set =     -825.0756694960
   10    -825.0756718050      9.86e-09  Convergence criterion met
 Total energy in the final basis set =     -825.0756718050
   11    -825.0756745171      8.87e-09  Convergence criterion met
   11    -825.0756965422      6.31e-09  Convergence criterion met
 Total energy in the final basis set =     -825.0756965422
   12    -825.0756969995      4.70e-09  Convergence criterion met
 Total energy in the final basis set =     -825.0756969995
   11    -825.0756973686      6.22e-09  Convergence criterion met
 Total energy in the final basis set =     -825.0756973686
   12    -825.0756980994      4.80e-09  Convergence criterion met
 Total energy in the final basis set =     -825.0756980994
   10    -825.0756988963      6.25e-09  Convergence criterion met
 Total energy in the final basis set =     -825.0756988963
   11    -825.0756996701      8.16e-09  Convergence criterion met
 Total energy in the final basis set =     -825.0756996701

             Standard Nuclear Orientation (Angstroms)
    I     Atom           X                Y                Z
 ----------------------------------------------------------------
    1      C      -0.1902079976    -1.7908193056     1.2066937861
    2      C      -1.3642658586    -1.5428487096     0.5114844500
    3      C      -2.5397629526    -1.3647848595     1.2383676188
    4      C      -2.5795748216    -1.4204954851     2.6298185632
    5      C      -1.3957164494    -1.6537386963     3.3135525420
    6      C      -0.2165260511    -1.8396515636     2.5974138464
    7      N       0.9741036390    -2.0973637269     3.2983984083
    8      C      -1.3769462255    -1.4459173887    -0.9840444763
    9      C      -3.8803793046    -1.2644125082     3.3576305015
   10      C       1.8090304261    -3.1714849119     3.0741615838
   11      C       2.8761225280    -3.1143525190     3.9899884853
   12      C       2.6533080529    -1.9335468232     4.8094028910
   13      C       1.4667553436    -1.3390449432     4.3385783099
   14      C       3.3300192637    -1.3518108468     5.8523324675
   15      C       2.8114867518    -0.1751397929     6.4084361118
   16      C       1.6531559418     0.4157923654     5.9131020419
   17      C       0.9603378867    -0.1516208581     4.8554283640
   18      C       1.6377674547    -4.2270369926     2.1814334373
   19      C       2.6040049090    -5.2210150730     2.1876825937
   20      C       3.6781790985    -5.1649025013     3.0694389815
   21      C       3.8170405643    -4.1158245184     3.9877080765
   22      H      -3.4620203867    -1.1781515884     0.6986322445
   23      H       0.7454027849    -1.9020907281     0.6724412903
   24      H      -1.3992569374    -1.7453304188     4.3926135318
   25      H      -2.1494873243    -2.0842582749    -1.4129226352
   26      H      -0.4238640426    -1.7388060856    -1.4205370263
   27      H      -1.5866279624    -0.4251277500    -1.3059165833
   28      H      -4.5117119826    -2.1423204409     3.2136470052
   29      H      -4.4366631775    -0.4028227301     2.9893866811
   30      H      -3.7362360579    -1.1355027104     4.4286416809
   31      H       4.2439643551    -1.7810797906     6.2401192347
   32      H       3.3318254753     0.2912147828     7.2334524306
   33      H       1.2927265619     1.3350462978     6.3520688066
   34      H       0.0754370517     0.3182839039     4.4486746348
   35      H       0.7811630959    -4.2879023129     1.5242931149
   36      H       2.5114782633    -6.0570358980     1.5088836667
   37      H       4.4133649951    -5.9578199801     3.0593190999
   38      H       4.6447730892    -4.1138766170     4.6837942387
 ----------------------------------------------------------------

   11    -825.0756999219      7.07e-09  Convergence criterion met
 Total energy in the final basis set =     -825.0756999219
 Final energy is   -825.075699921902
 **  OPTIMIZATION CONVERGED  **

                    Orbital Energies (a.u.)
 --------------------------------------------------------------

 Alpha MOs
 -- Occupied --
-14.900 -10.643 -10.643 -10.640 -10.610 -10.609 -10.608 -10.608
-10.599 -10.599 -10.599 -10.598 -10.589 -10.589 -10.589 -10.588
-10.587 -10.587 -10.575 -10.543 -10.542  -1.294  -1.128  -1.108
 -1.094  -1.041  -1.010  -1.002  -1.001  -0.964  -0.959  -0.902
 -0.898  -0.884  -0.849  -0.845  -0.807  -0.791  -0.782  -0.742
 -0.740  -0.724  -0.703  -0.695  -0.674  -0.672  -0.658  -0.649
 -0.643  -0.642  -0.628  -0.603  -0.601  -0.601  -0.581  -0.573
 -0.569  -0.569  -0.567  -0.565  -0.549  -0.544  -0.542  -0.530
 -0.527  -0.520  -0.483  -0.453  -0.433  -0.417  -0.406  -0.402

 Beta MOs
 -- Occupied --
-14.890 -10.645 -10.645 -10.640 -10.608 -10.608 -10.605 -10.605
-10.600 -10.600 -10.595 -10.595 -10.590 -10.590 -10.590 -10.590
-10.586 -10.586 -10.574 -10.542 -10.542  -1.279  -1.123  -1.104
 -1.090  -1.037  -1.009  -0.999  -0.997  -0.965  -0.949  -0.899
 -0.897  -0.880  -0.844  -0.843  -0.804  -0.789  -0.780  -0.740
 -0.737  -0.721  -0.693  -0.688  -0.672  -0.667  -0.651  -0.647
 -0.641  -0.635  -0.627  -0.602  -0.600  -0.600  -0.582  -0.571
 -0.568  -0.567  -0.556  -0.553  -0.548  -0.543  -0.539  -0.529
 -0.523  -0.505  -0.472  -0.429  -0.418  -0.413  -0.408

          Ground-State Mulliken Net Atomic Charges

     Atom                 Charge (a.u.)    Spin (a.u.)
  --------------------------------------------------------
      1 C                    -0.350439       0.079098
      2 C                     0.143443      -0.054505
      3 C                    -0.297565       0.117692
      4 C                     0.143223      -0.055731
      5 C                    -0.347312       0.081601
      6 C                     0.334763      -0.041020
      7 N                    -0.652601       0.393259
      8 C                    -0.710696       0.004919
      9 C                    -0.709905       0.005047
     10 C                     0.329066      -0.111861
     11 C                     0.144117       0.095077
     12 C                     0.139501       0.097628
     13 C                     0.333512      -0.111308
     14 C                    -0.338753      -0.045630
     15 C                    -0.194562       0.234721
     16 C                    -0.231591      -0.137510
     17 C                    -0.237914       0.225588
     18 C                    -0.237775       0.226415
     19 C                    -0.230360      -0.136115
     20 C                    -0.193965       0.231421
     21 C                    -0.339418      -0.043435
     22 H                     0.248299      -0.006574
     23 H                     0.269829      -0.004242
     24 H                     0.269965      -0.004407
     25 H                     0.257407      -0.001045
     26 H                     0.242906      -0.000324
     27 H                     0.263741      -0.002176
     28 H                     0.263852      -0.002279
     29 H                     0.257008      -0.000974
     30 H                     0.242698      -0.000358
     31 H                     0.254595       0.002263
     32 H                     0.277482      -0.012811
     33 H                     0.273524       0.006017
     34 H                     0.289712      -0.011925
     35 H                     0.288734      -0.012008
     36 H                     0.273555       0.005963
     37 H                     0.277551      -0.012633
     38 H                     0.254376       0.002162
  --------------------------------------------------------
  Sum of atomic charges =     1.000000

                    Cartesian Multipole Moments
 -----------------------------------------------------------------
    Charge (ESU x 10^10)
                 4.8032
    Dipole Moment (Debye)
         X       4.4105      Y     -10.2996      Z      15.9922
       Tot      19.5266
    Quadrupole Moments (Debye-Ang)
        XX     -72.6307     XY     -24.8939     YY     -74.6923
        XZ      34.0645     YZ     -21.8168     ZZ     -34.5603

 Total job time:  5214.74s(wall), 19552.03s(cpu)
        *  Thank you very much for using Q-Chem.  Have a nice day.  *
