 Q-Chem 5.1, Q-Chem, Inc., Pleasanton, CA (2018)
 Q-Chem 5.1.1 for Intel X86 EM64T Linux

User input:
--------------------------------------------------------------
$rem
threads 4
jobtype	opt
method PBEh-3c
basis def2-mSVP
mem_static	1024
mem_total	3000
sym_ignore	true
scf_convergence	9
solvent_method	pcm
$end

$molecule
read Cz.mol
$end

$solvent
dielectric	2.38
$end

$pcm
theory iefpcm
$end

--------------------------------------------------------------

   16    -825.3317956330      5.75e-10  Convergence criterion met
 Total energy in the final basis set =     -825.3317956330
   14    -825.3448696604      7.57e-10  Convergence criterion met
 Total energy in the final basis set =     -825.3448696604
   14    -825.3452229357      6.08e-10  Convergence criterion met
 Total energy in the final basis set =     -825.3452229357
   14    -825.3452143629      4.25e-10  Convergence criterion met
 Total energy in the final basis set =     -825.3452143629
   14    -825.3452120394      4.45e-10  Convergence criterion met
 Total energy in the final basis set =     -825.3452120394
   14    -825.3452095428      4.47e-10  Convergence criterion met
 Total energy in the final basis set =     -825.3452095428
   14    -825.3452106238      4.34e-10  Convergence criterion met
 Total energy in the final basis set =     -825.3452106238
   14    -825.3452118047      4.43e-10  Convergence criterion met
   14    -825.3452486011      4.89e-10  Convergence criterion met
 Total energy in the final basis set =     -825.3452486011
   14    -825.3452245815      5.45e-10  Convergence criterion met
 Total energy in the final basis set =     -825.3452245815
   14    -825.3452499294      4.37e-10  Convergence criterion met
 Total energy in the final basis set =     -825.3452499294
   14    -825.3452545424      4.25e-10  Convergence criterion met
 Total energy in the final basis set =     -825.3452545424
   14    -825.3452605425      4.23e-10  Convergence criterion met
 Total energy in the final basis set =     -825.3452605425
   14    -825.3452629364      4.29e-10  Convergence criterion met
 Total energy in the final basis set =     -825.3452629364

             Standard Nuclear Orientation (Angstroms)
    I     Atom           X                Y                Z
 ----------------------------------------------------------------
    1      C      -0.1930792806    -1.6418599522     1.1967859514
    2      C      -1.3794897548    -1.4221177797     0.5041689947
    3      C      -2.5670251987    -1.3530429313     1.2225678307
    4      C      -2.6015159368    -1.5158030773     2.6045175236
    5      C      -1.4098592750    -1.7590185023     3.2747959939
    6      C      -0.2123581771    -1.8146305688     2.5725284257
    7      N       0.9901912355    -2.0656407012     3.2639758461
    8      C      -1.3824062683    -1.2798942380    -0.9902857221
    9      C      -3.9064989674    -1.4455589086     3.3427936660
   10      C       1.7786699211    -3.1856012667     3.1067694841
   11      C       2.8415596008    -3.1329355181     4.0249193044
   12      C       2.6712040821    -1.9188425927     4.7797677214
   13      C       1.5150321301    -1.2938762835     4.2791163768
   14      C       3.3742602498    -1.3248986213     5.8218747664
   15      C       2.9169452751    -0.1268211914     6.3400171691
   16      C       1.7708537735     0.4842653552     5.8212882582
   17      C       1.0543415045    -0.0850876219     4.7842489845
   18      C       1.6030323031    -4.2651833334     2.2465760778
   19      C       2.5280208863    -5.2915535954     2.3104672178
   20      C       3.5994649989    -5.2514493469     3.2081456151
   21      C       3.7587114555    -4.1796184315     4.0677320307
   22      H      -3.4949074708    -1.1699307655     0.6902277143
   23      H       0.7502660581    -1.6762042038     0.6646269807
   24      H      -1.4098926891    -1.9173697045     4.3465772635
   25      H      -1.6438214536    -2.2255109080    -1.4697170875
   26      H      -0.4056257087    -0.9823795208    -1.3694833758
   27      H      -2.1103994153    -0.5391665814    -1.3206678548
   28      H      -4.6048850171    -2.2025327615     2.9829142958
   29      H      -4.3857744781    -0.4749747514     3.2060509290
   30      H      -3.7726285699    -1.6008394078     4.4122155357
   31      H       4.2639832139    -1.7948799560     6.2221197832
   32      H       3.4503683433     0.3460085963     7.1536872124
   33      H       1.4352651841     1.4244589107     6.2390381531
   34      H       0.1696272467     0.3944610904     4.3861665131
   35      H       0.7693809480    -4.3107340450     1.5579635564
   36      H       2.4143653866    -6.1456100221     1.6551920929
   37      H       4.3044196007    -6.0718065515     3.2335338939
   38      H       4.5824042633    -4.1614203111     4.7703828780
 ----------------------------------------------------------------

   14    -825.3452653526      4.31e-10  Convergence criterion met
 Total energy in the final basis set =     -825.3452653526
 Final energy is   -825.345265352576
 **  OPTIMIZATION CONVERGED  **

                    Orbital Energies (a.u.)
 --------------------------------------------------------------

 Alpha MOs
 -- Occupied --
-14.690 -10.495 -10.486 -10.486 -10.464 -10.464 -10.449 -10.449
-10.449 -10.449 -10.448 -10.448 -10.446 -10.446 -10.446 -10.446
-10.446 -10.439 -10.439 -10.435 -10.435  -1.111  -0.980  -0.951
 -0.948  -0.889  -0.883  -0.855  -0.846  -0.810  -0.810  -0.779
 -0.775  -0.732  -0.696  -0.688  -0.658  -0.651  -0.646  -0.595
 -0.588  -0.577  -0.557  -0.557  -0.523  -0.519  -0.502  -0.499
 -0.491  -0.487  -0.486  -0.481  -0.476  -0.473  -0.470  -0.455
 -0.436  -0.425  -0.424  -0.415  -0.410  -0.409  -0.402  -0.395
 -0.389  -0.377  -0.330  -0.299  -0.296  -0.287  -0.254  -0.239

          Ground-State Mulliken Net Atomic Charges

     Atom                 Charge (a.u.)
  ----------------------------------------
      1 C                    -0.349551
      2 C                     0.135926
      3 C                    -0.334041
      4 C                     0.137620
      5 C                    -0.345476
      6 C                     0.328051
      7 N                    -0.733430
      8 C                    -0.715224
      9 C                    -0.717949
     10 C                     0.334020
     11 C                     0.091416
     12 C                     0.082652
     13 C                     0.339196
     14 C                    -0.355728
     15 C                    -0.245637
     16 C                    -0.252007
     17 C                    -0.291140
     18 C                    -0.290520
     19 C                    -0.251441
     20 C                    -0.244389
     21 C                    -0.357494
     22 H                     0.222054
     23 H                     0.248828
     24 H                     0.249995
     25 H                     0.243928
     26 H                     0.239469
     27 H                     0.237944
     28 H                     0.241795
     29 H                     0.240996
     30 H                     0.239563
     31 H                     0.223372
     32 H                     0.229592
     33 H                     0.232955
     34 H                     0.250161
     35 H                     0.248929
     36 H                     0.232986
     37 H                     0.229712
     38 H                     0.222865
  ----------------------------------------
  Sum of atomic charges =     0.000000

                    Cartesian Multipole Moments
 -----------------------------------------------------------------
    Charge (ESU x 10^10)
                 0.0000
    Dipole Moment (Debye)
         X      -2.5144      Y       0.4082      Z      -1.3935
       Tot       2.9036
    Quadrupole Moments (Debye-Ang)
        XX    -112.3318     XY      -0.5512     YY    -121.0447
        XZ      -1.7449     YZ       8.0259     ZZ    -120.7210

 Total job time:  5253.25s(wall), 19806.25s(cpu)
        *  Thank you very much for using Q-Chem.  Have a nice day.  *
