 Q-Chem 5.1, Q-Chem, Inc., Pleasanton, CA (2018)
 Q-Chem 5.1.1 for Intel X86 EM64T Linux

User input:
--------------------------------------------------------------
$rem
threads 4
jobtype	opt
method PBEh-3c
basis def2-mSVP
mem_static	1024
mem_total	3000
sym_ignore	true
scf_convergence	9
solvent_method	pcm
$end

$molecule
read Cz_DiBr.mol
$end

$solvent
dielectric	2.38
$end

$pcm
theory iefpcm
$end

--------------------------------------------------------------

   17   -5970.1558036637      2.97e-10  Convergence criterion met
 Total energy in the final basis set =    -5970.1558036637
   14   -5970.1704429357      8.40e-10  Convergence criterion met
 Total energy in the final basis set =    -5970.1704429357
   14   -5970.1705900387      5.68e-10  Convergence criterion met
 Total energy in the final basis set =    -5970.1705900387
   14   -5970.1705488751      4.38e-10  Convergence criterion met
 Total energy in the final basis set =    -5970.1705488751
   14   -5970.1704998967      4.26e-10  Convergence criterion met
 Total energy in the final basis set =    -5970.1704998967
   14   -5970.1704869281      4.16e-10  Convergence criterion met
 Total energy in the final basis set =    -5970.1704869281
   14   -5970.1704906585      4.04e-10  Convergence criterion met
 Total energy in the final basis set =    -5970.1704906585
   14   -5970.1705018178      3.97e-10  Convergence criterion met
   14   -5970.1705962188      4.76e-10  Convergence criterion met
 Total energy in the final basis set =    -5970.1705962188
   14   -5970.1705942024      4.06e-10  Convergence criterion met
 Total energy in the final basis set =    -5970.1705942024
   14   -5970.1705824523      4.96e-10  Convergence criterion met
 Total energy in the final basis set =    -5970.1705824523
   14   -5970.1705783211      4.17e-10  Convergence criterion met
 Total energy in the final basis set =    -5970.1705783211
   14   -5970.1705815177      4.13e-10  Convergence criterion met
 Total energy in the final basis set =    -5970.1705815177
   14   -5970.1705826688      4.11e-10  Convergence criterion met
 Total energy in the final basis set =    -5970.1705826688

             Standard Nuclear Orientation (Angstroms)
    I     Atom           X                Y                Z
 ----------------------------------------------------------------
    1      C      -0.2028385445    -1.7034760361     1.2275504343
    2      C      -1.3694605914    -1.3868504557     0.5419308242
    3      C      -2.5768072136    -1.2100677501     1.2428072220
    4      C      -2.6390471380    -1.3334660389     2.6238657010
    5      C      -1.4739508667    -1.6510390462     3.2967261152
    6      C      -0.2761943447    -1.8356202494     2.5995174363
    7      C      -1.6723338585    -1.1985460336    -0.8530210747
    8      C      -3.0458126565    -0.9155271867    -0.9243562771
    9      N      -3.5796368056    -0.9157576750     0.3430548883
   10      C      -3.6897888234    -0.7214255305    -2.1416378583
   11      C      -2.9349984577    -0.8022051691    -3.2948707206
   12      C      -1.5659305829    -1.0762073662    -3.2284015423
   13      C      -0.9208762231    -1.2780682668    -2.0233388880
   14      C      -4.9541027508    -0.7420609200     0.6263218614
   15      C      -5.6905558858    -1.8040906749     1.1341724753
   16      C      -7.0494849656    -1.6541208195     1.3797805835
   17      C      -7.6485814969    -0.4319678366     1.0860193983
   18      C      -6.9261884831     0.6368231242     0.5696656487
   19      C      -5.5624844487     0.4718344130     0.3461810389
   20      C      -7.8580809969    -2.7825750066     1.9500232961
   21      C      -7.5906851676     1.9521246669     0.2866981287
   22      Br     -0.5888813464    -1.1853607673    -4.8409743718
   23      Br      1.2816231854    -2.2869630917     3.5642579849
   24      H      -8.7129880408    -0.3138083461     1.2592414632
   25      H      -5.2042093057    -2.7549709613     1.3165843356
   26      H      -4.9714832530     1.2881564851    -0.0525805976
   27      H      -7.9815094457    -2.6671123855     3.0286495204
   28      H      -7.3815863952    -3.7467451102     1.7778703273
   29      H      -8.8558238282    -2.8191493383     1.5132039029
   30      H      -7.4169188824     2.6584175710     1.1007771314
   31      H      -8.6684139386     1.8399619468     0.1761957316
   32      H      -7.2053557685     2.4088065056    -0.6247336015
   33      H       0.1372667628    -1.5014441181    -1.9882363528
   34      H      -3.4161875826    -0.6571717825    -4.2527806677
   35      H      -4.7515500589    -0.5212754245    -2.1992032716
   36      H      -3.5655294711    -1.1922061482     3.1644951540
   37      H      -1.4985735788    -1.7585484271     4.3723913450
   38      H       0.7265692496    -1.8493497503     0.6927732754
 ----------------------------------------------------------------

   14   -5970.1705828536      4.12e-10  Convergence criterion met
 Total energy in the final basis set =    -5970.1705828536
 Final energy is   -5970.17058285355
 **  OPTIMIZATION CONVERGED  **

                    Orbital Energies (a.u.)
 --------------------------------------------------------------

 Alpha MOs
 -- Occupied --
*******-484.530 -63.191 -63.191 -56.896 -56.896 -56.893 -56.893
-56.893 -56.893 -14.703 -10.506 -10.506 -10.503 -10.501 -10.500
-10.469 -10.469 -10.468 -10.468 -10.466 -10.466 -10.465 -10.465
-10.463 -10.462 -10.456 -10.456 -10.451 -10.439 -10.438  -9.021
 -9.020  -6.795  -6.794  -6.783  -6.783  -6.783  -6.783  -2.808
 -2.808  -2.805  -2.805  -2.804  -2.804  -2.794  -2.794  -2.794
 -2.794  -1.124  -0.992  -0.979  -0.968  -0.918  -0.902  -0.888
 -0.878  -0.863  -0.841  -0.815  -0.803  -0.783  -0.780  -0.741
 -0.710  -0.685  -0.674  -0.660  -0.658  -0.606  -0.605  -0.576
 -0.565  -0.557  -0.545  -0.520  -0.515  -0.514  -0.512  -0.503
 -0.497  -0.491  -0.485  -0.478  -0.475  -0.459  -0.445  -0.444
 -0.439  -0.432  -0.423  -0.420  -0.412  -0.409  -0.408  -0.402
 -0.365  -0.357  -0.340  -0.340  -0.334  -0.302  -0.300  -0.292
 -0.267  -0.247

          Ground-State Mulliken Net Atomic Charges

     Atom                 Charge (a.u.)
  ----------------------------------------
      1 C                    -0.331948
      2 C                     0.082291
      3 C                     0.352923
      4 C                    -0.284631
      5 C                    -0.228994
      6 C                    -0.110727
      7 C                     0.103440
      8 C                     0.341052
      9 N                    -0.734273
     10 C                    -0.282993
     11 C                    -0.227851
     12 C                    -0.108593
     13 C                    -0.338189
     14 C                     0.316855
     15 C                    -0.338560
     16 C                     0.134791
     17 C                    -0.333974
     18 C                     0.133013
     19 C                    -0.341762
     20 C                    -0.714660
     21 C                    -0.713360
     22 Br                   -0.048313
     23 Br                   -0.047884
     24 H                     0.225274
     25 H                     0.249470
     26 H                     0.250164
     27 H                     0.245622
     28 H                     0.240588
     29 H                     0.239656
     30 H                     0.247455
     31 H                     0.238137
     32 H                     0.239559
     33 H                     0.250375
     34 H                     0.260986
     35 H                     0.262325
     36 H                     0.260345
     37 H                     0.261003
     38 H                     0.251386
  ----------------------------------------
  Sum of atomic charges =    -0.000000

                    Cartesian Multipole Moments
 -----------------------------------------------------------------
    Charge (ESU x 10^10)
                -0.0000
    Dipole Moment (Debye)
         X      -6.0636      Y       0.9703      Z       1.4151
       Tot       6.3017
    Quadrupole Moments (Debye-Ang)
        XX    -107.1522     XY       0.8706     YY    -158.3540
        XZ     -10.3467     YZ      -4.1316     ZZ    -163.6095

 Total job time:  9893.29s(wall), 36536.56s(cpu)
        *  Thank you very much for using Q-Chem.  Have a nice day.  *
