 Q-Chem 5.1, Q-Chem, Inc., Pleasanton, CA (2018)
 Q-Chem 5.1.1 for Intel X86 EM64T Linux

User input:
--------------------------------------------------------------
$rem
threads 4
jobtype	opt
method PBEh-3c
basis def2-mSVP
mem_static	1024
mem_total	3000
sym_ignore	true
scf_convergence	9
solvent_method	pcm
$end

$molecule
read Cz_DiBr_kat.mol
$end

$solvent
dielectric	2.38
$end

$pcm
theory iefpcm
$end

--------------------------------------------------------------

   24   -5969.9150881578      4.02e-10  Convergence criterion met
 Total energy in the final basis set =    -5969.9150881578
   21   -5969.9313386169      9.28e-10  Convergence criterion met
 Total energy in the final basis set =    -5969.9313386169
   21   -5969.9317684022      5.37e-10  Convergence criterion met
 Total energy in the final basis set =    -5969.9317684022
   19   -5969.9317940142      9.65e-10  Convergence criterion met
 Total energy in the final basis set =    -5969.9317940142
   20   -5969.9317957142      6.86e-10  Convergence criterion met
 Total energy in the final basis set =    -5969.9317957142
   20   -5969.9318188533      6.57e-10  Convergence criterion met
 Total energy in the final basis set =    -5969.9318188533
   19   -5969.9318244948      9.61e-10  Convergence criterion met
 Total energy in the final basis set =    -5969.9318244948
   20   -5969.9318275273      6.65e-10  Convergence criterion met
 Total energy in the final basis set =    -5969.9318275273
   20   -5969.9318321043      6.67e-10  Convergence criterion met
 Total energy in the final basis set =    -5969.9318321043
   20   -5969.9318415893      8.95e-10  Convergence criterion met
 Total energy in the final basis set =    -5969.9318415893
   20   -5969.9318489991      7.80e-10  Convergence criterion met
 Total energy in the final basis set =    -5969.9318489991
   20   -5969.9318437778      6.83e-10  Convergence criterion met
 Total energy in the final basis set =    -5969.9318437778
   20   -5969.9318313830      8.42e-10  Convergence criterion met
 Total energy in the final basis set =    -5969.9318313830

             Standard Nuclear Orientation (Angstroms)
    I     Atom           X                Y                Z
 ----------------------------------------------------------------
    1      C      -0.2282970608    -1.7683982717     1.2040227983
    2      C      -1.3702203125    -1.4208057685     0.5297951547
    3      C      -2.5895091995    -1.2852441585     1.2230625293
    4      C      -2.6846507046    -1.4591424813     2.5982260922
    5      C      -1.5327895929    -1.8199644098     3.2745143683
    6      C      -0.3289096134    -1.9804145641     2.5866634615
    7      C      -1.6594869304    -1.1460465381    -0.8689534108
    8      C      -3.0363855078    -0.8613285525    -0.9375212052
    9      N      -3.5750771290    -0.9456260546     0.3222511095
   10      C      -3.6906292863    -0.6324163281    -2.1458535555
   11      C      -2.9301228627    -0.6505790736    -3.2989803578
   12      C      -1.5610465286    -0.9135256537    -3.2360333817
   13      C      -0.9098859817    -1.1743660233    -2.0192670976
   14      C      -4.9424009488    -0.7556057715     0.6159125611
   15      C      -5.6399493610    -1.7674725272     1.2655928180
   16      C      -6.9954283274    -1.6067134671     1.5178601518
   17      C      -7.6092870919    -0.4226862742     1.1165917325
   18      C      -6.9169723840     0.5985227772     0.4698825496
   19      C      -5.5651763914     0.4209040234     0.2115996839
   20      C      -7.7888844853    -2.6802187427     2.1999785648
   21      C      -7.6212639793     1.8626820208     0.0813340107
   22      Br     -0.5754077169    -0.9496374930    -4.8153821784
   23      Br      1.1968512290    -2.4915427975     3.5216151438
   24      H      -8.6685449474    -0.2929436609     1.3110790346
   25      H      -5.1431031959    -2.6938032562     1.5269365491
   26      H      -4.9943201601     1.2048073773    -0.2712242360
   27      H      -8.0889548788    -2.3635522700     3.1999951847
   28      H      -7.2200255654    -3.6026251001     2.3014722203
   29      H      -8.6998987403    -2.9075913804     1.6467747491
   30      H      -7.9070235004     2.4342174389     0.9654535266
   31      H      -8.5350564086     1.6481397915    -0.4728301826
   32      H      -6.9950971115     2.5024307710    -0.5376997383
   33      H       0.1467310585    -1.4053960269    -1.9988261325
   34      H      -3.4092695313    -0.4748329634    -4.2521240724
   35      H      -4.7570778533    -0.4623099664    -2.2001635243
   36      H      -3.6157287407    -1.3200081131     3.1303057873
   37      H      -1.5742874965    -1.9751228007     4.3432881379
   38      H       0.7151952390    -1.8828367113     0.6872711533
 ----------------------------------------------------------------

   19   -5969.9318313365      8.88e-10  Convergence criterion met
 Total energy in the final basis set =    -5969.9318313365
 Final energy is   -5969.93183133652
 **  OPTIMIZATION CONVERGED  **

                    Orbital Energies (a.u.)
 --------------------------------------------------------------

 Alpha MOs
 -- Occupied --
*******-484.596 -63.258 -63.257 -56.963 -56.962 -56.960 -56.959
-56.959 -56.959 -14.836 -10.594 -10.593 -10.584 -10.584 -10.574
-10.555 -10.554 -10.549 -10.549 -10.548 -10.547 -10.536 -10.535
-10.525 -10.525 -10.522 -10.521 -10.510 -10.480 -10.480  -9.088
 -9.087  -6.862  -6.861  -6.850  -6.850  -6.849  -6.848  -2.876
 -2.875  -2.872  -2.872  -2.871  -2.870  -2.861  -2.861  -2.861
 -2.860  -1.232  -1.073  -1.062  -1.038  -0.997  -0.983  -0.957
 -0.944  -0.934  -0.922  -0.894  -0.875  -0.837  -0.833  -0.819
 -0.787  -0.771  -0.753  -0.733  -0.718  -0.685  -0.677  -0.645
 -0.639  -0.632  -0.618  -0.601  -0.596  -0.593  -0.592  -0.579
 -0.572  -0.540  -0.537  -0.536  -0.526  -0.519  -0.518  -0.513
 -0.508  -0.504  -0.492  -0.491  -0.482  -0.470  -0.467  -0.459
 -0.441  -0.440  -0.409  -0.402  -0.401  -0.375  -0.363  -0.352
 -0.344  -0.332

 Beta MOs
 -- Occupied --
*******-484.596 -63.258 -63.257 -56.963 -56.962 -56.959 -56.959
-56.959 -56.958 -14.826 -10.591 -10.590 -10.586 -10.586 -10.575
-10.553 -10.553 -10.548 -10.547 -10.547 -10.546 -10.537 -10.537
-10.526 -10.526 -10.520 -10.520 -10.509 -10.480 -10.480  -9.087
 -9.087  -6.862  -6.861  -6.849  -6.849  -6.849  -6.848  -2.875
 -2.875  -2.872  -2.871  -2.871  -2.870  -2.861  -2.861  -2.860
 -2.860  -1.218  -1.068  -1.058  -1.035  -0.992  -0.979  -0.953
 -0.943  -0.932  -0.920  -0.894  -0.869  -0.834  -0.832  -0.817
 -0.784  -0.766  -0.750  -0.731  -0.716  -0.683  -0.674  -0.642
 -0.630  -0.625  -0.616  -0.600  -0.592  -0.591  -0.588  -0.574
 -0.571  -0.539  -0.537  -0.535  -0.519  -0.514  -0.512  -0.507
 -0.503  -0.498  -0.491  -0.490  -0.480  -0.466  -0.463  -0.458
 -0.428  -0.424  -0.401  -0.400  -0.394  -0.363  -0.353  -0.350
 -0.339

          Ground-State Mulliken Net Atomic Charges

     Atom                 Charge (a.u.)    Spin (a.u.)
  --------------------------------------------------------
      1 C                    -0.320573      -0.029925
      2 C                     0.134102       0.088548
      3 C                     0.347706      -0.104335
      4 C                    -0.236799       0.195325
      5 C                    -0.217303      -0.129089
      6 C                    -0.097665       0.205945
      7 C                     0.149787       0.093646
      8 C                     0.338204      -0.103014
      9 N                    -0.659377       0.364035
     10 C                    -0.235804       0.200231
     11 C                    -0.215398      -0.132467
     12 C                    -0.096434       0.214015
     13 C                    -0.324529      -0.033459
     14 C                     0.325536      -0.037527
     15 C                    -0.343544       0.068001
     16 C                     0.134615      -0.045505
     17 C                    -0.304179       0.094548
     18 C                     0.134933      -0.044819
     19 C                    -0.350325       0.066189
     20 C                    -0.714559       0.004175
     21 C                    -0.714508       0.004126
     22 Br                    0.076967       0.043746
     23 Br                    0.075062       0.042438
     24 H                     0.253738      -0.005267
     25 H                     0.277434      -0.003658
     26 H                     0.280214      -0.003465
     27 H                     0.258874      -0.001284
     28 H                     0.246504      -0.000241
     29 H                     0.257301      -0.001366
     30 H                     0.261165      -0.001806
     31 H                     0.255653      -0.000850
     32 H                     0.245495      -0.000270
     33 H                     0.285559       0.001439
     34 H                     0.298426       0.005806
     35 H                     0.306086      -0.010535
     36 H                     0.303935      -0.010271
     37 H                     0.297935       0.005659
     38 H                     0.285770       0.001281
  --------------------------------------------------------
  Sum of atomic charges =     1.000000

                    Cartesian Multipole Moments
 -----------------------------------------------------------------
    Charge (ESU x 10^10)
                 4.8032
    Dipole Moment (Debye)
         X     -18.0792      Y      -4.7869      Z       1.4629
       Tot      18.7593
    Quadrupole Moments (Debye-Ang)
        XX     -35.8915     XY       8.2891     YY    -143.7568
        XZ     -11.1557     YZ     -10.7092     ZZ    -121.6009

 Total job time:  7268.18s(wall), 27805.95s(cpu)
        *  Thank you very much for using Q-Chem.  Have a nice day.  *
