 Q-Chem 5.1, Q-Chem, Inc., Pleasanton, CA (2018)
 Q-Chem 5.1.1 for Intel X86 EM64T Linux

User input:
--------------------------------------------------------------
$rem
threads 4
jobtype	opt
method PBEh-3c
basis def2-mSVP
mem_static	1024
mem_total	3000
sym_ignore	true
scf_convergence	9
solvent_method	pcm
$end

$molecule
read Cz_DiBu_kat.mol
$end

$solvent
dielectric	2.38
$end

$pcm
theory iefpcm
$end

--------------------------------------------------------------

   26   -1138.9096759113      7.82e-10  Convergence criterion met
 Total energy in the final basis set =    -1138.9096759113
   20   -1138.9523930747      7.57e-10  Convergence criterion met
 Total energy in the final basis set =    -1138.9523930747
   20   -1138.9620428557      8.07e-10  Convergence criterion met
 Total energy in the final basis set =    -1138.9620428557
   19   -1138.9625804234      9.81e-10  Convergence criterion met
 Total energy in the final basis set =    -1138.9625804234
   19   -1138.9626111671      7.77e-10  Convergence criterion met
 Total energy in the final basis set =    -1138.9626111671
   17   -1138.9626400337      9.47e-10  Convergence criterion met
 Total energy in the final basis set =    -1138.9626400337
   18   -1138.9626623885      8.96e-10  Convergence criterion met
 Total energy in the final basis set =    -1138.9626623885
   17   -1138.9626661120      9.52e-10  Convergence criterion met
   18   -1138.9626034803      6.98e-10  Convergence criterion met
 Total energy in the final basis set =    -1138.9626034803
   17   -1138.9626117617      7.37e-10  Convergence criterion met
 Total energy in the final basis set =    -1138.9626117617
   17   -1138.9626200704      9.09e-10  Convergence criterion met
 Total energy in the final basis set =    -1138.9626200704
   17   -1138.9626256167      8.11e-10  Convergence criterion met
 Total energy in the final basis set =    -1138.9626256167
   17   -1138.9626274123      7.35e-10  Convergence criterion met
 Total energy in the final basis set =    -1138.9626274123
   17   -1138.9626294393      7.73e-10  Convergence criterion met
 Total energy in the final basis set =    -1138.9626294393

             Standard Nuclear Orientation (Angstroms)
    I     Atom           X                Y                Z
 ----------------------------------------------------------------
    1      C       3.7335190294    -4.1083018398     3.9470189556
    2      C       2.8308256475    -3.0776491860     3.9163270653
    3      C       1.7551569532    -3.1252296478     3.0119636159
    4      C       1.5662619645    -4.1960423744     2.1495078652
    5      C       2.4992384205    -5.2211566688     2.1911369044
    6      C       3.5806804006    -5.2115993909     3.0732877274
    7      C       2.6389996754    -1.8742757556     4.7098713612
    8      C       1.4585608815    -1.2700319902     4.2388738620
    9      N       0.9426281444    -2.0343344646     3.2220791498
   10      C       0.9825405724    -0.0732027733     4.7685789051
   11      C       1.7003286771     0.4801047441     5.8075082359
   12      C       2.8713175705    -0.1084259236     6.3202226967
   13      C       3.3379281124    -1.3006681821     5.7417479457
   14      C      -0.2679691120    -1.7956418420     2.5348468277
   15      C      -0.2620342161    -1.7417260668     1.1464375193
   16      C      -1.4552877293    -1.5347053252     0.4668943140
   17      C      -2.6262816409    -1.3971527363     1.2065871778
   18      C      -2.6421632254    -1.4537390567     2.5976514256
   19      C      -1.4419579955    -1.6543170024     3.2655600913
   20      C      -1.4863938049    -1.4361623509    -1.0288696510
   21      C      -3.9321295201    -1.3076561762     3.3476017406
   22      C       3.5970994509     0.5615667049     7.4720558082
   23      C       4.5596291534    -6.3698995631     3.1613339027
   24      H      -3.5617794854    -1.2427583633     0.6794165347
   25      H       0.6679490063    -1.8309059254     0.5981673566
   26      H      -1.4270567759    -1.7424740391     4.3449235263
   27      H      -2.2940117320    -2.0366236240    -1.4471580757
   28      H      -0.5523404367    -1.7706270674    -1.4769558516
   29      H      -1.6533652663    -0.4054165688    -1.3452991459
   30      H      -4.6715016585    -2.0307452124     3.0027285597
   31      H      -4.3579059688    -0.3145687134     3.1978360502
   32      H      -3.7968657259    -1.4530288988     4.4178095865
   33      H       4.2416981764    -1.7724411607     6.1001760352
   34      H       1.3427478671     1.4071475090     6.2344490238
   35      H       0.0936003887     0.4087338241     4.3845389011
   36      H       0.7159913011    -4.2537564546     1.4834682937
   37      H       2.3539974372    -6.0584229119     1.5249909342
   38      H       4.5495740242    -4.0910348729     4.6579199511
   39      C       4.8551279458    -0.1998300701     7.8892275652
   40      C       2.6497645729     0.6313632874     8.6784071150
   41      C       4.0067169715     1.9782868481     7.0446524763
   42      C       4.2784971323    -7.4531076937     2.1201463822
   43      C       4.4445257645    -6.9978806696     4.5587856095
   44      C       5.9863675967    -5.8484112581     2.9427443297
   45      H       5.3357703749     0.3196242497     8.7184749671
   46      H       4.6322034208    -1.2116307698     8.2328538668
   47      H       5.5883815626    -0.2622268589     7.0830199107
   48      H       3.1568916362     1.1054410424     9.5200374229
   49      H       1.7515733131     1.2124387479     8.4683356186
   50      H       2.3374236746    -0.3652226368     8.9933543607
   51      H       4.5382118904     2.4713197003     7.8597455680
   52      H       4.6692997104     1.9536989150     6.1784549758
   53      H       3.1487480204     2.6011196348     6.7908790941
   54      H       6.6959866764    -6.6735904211     3.0195911498
   55      H       6.0965317324    -5.4027938046     1.9533375898
   56      H       6.2778620029    -5.1023744693     3.6826963707
   57      H       5.1463507858    -7.8281482037     4.6494277223
   58      H       4.6754864096    -6.2874255526     5.3533561064
   59      H       3.4407220324    -7.3862093747     4.7362916376
   60      H       5.0167346115    -8.2495189164     2.2168364106
   61      H       3.2963580663    -7.9101868048     2.2520281048
   62      H       4.3473655349    -7.0716625738     1.0999245192
 ----------------------------------------------------------------

   17   -1138.9626300666      5.83e-10  Convergence criterion met
 Total energy in the final basis set =    -1138.9626300666
 Final energy is   -1138.96263006659
 **  OPTIMIZATION CONVERGED  **

                    Orbital Energies (a.u.)
 --------------------------------------------------------------

 Alpha MOs
 -- Occupied --
-14.822 -10.568 -10.565 -10.565 -10.536 -10.535 -10.534 -10.533
-10.533 -10.532 -10.526 -10.521 -10.518 -10.518 -10.513 -10.513
-10.513 -10.511 -10.509 -10.509 -10.502 -10.476 -10.476 -10.466
-10.465 -10.465 -10.465 -10.465 -10.463  -1.218  -1.055  -1.038
 -1.024  -0.983  -0.973  -0.947  -0.937  -0.926  -0.910  -0.887
 -0.875  -0.830  -0.829  -0.820  -0.810  -0.810  -0.809  -0.802
 -0.777  -0.766  -0.730  -0.722  -0.712  -0.691  -0.679  -0.662
 -0.655  -0.629  -0.627  -0.607  -0.601  -0.589  -0.584  -0.579
 -0.576  -0.571  -0.557  -0.545  -0.543  -0.534  -0.534  -0.531
 -0.529  -0.527  -0.518  -0.514  -0.511  -0.502  -0.500  -0.499
 -0.485  -0.481  -0.476  -0.473  -0.471  -0.470  -0.469  -0.459
 -0.457  -0.457  -0.455  -0.448  -0.431  -0.430  -0.428  -0.427
 -0.416  -0.415  -0.404  -0.369  -0.357  -0.345  -0.329  -0.322

 Beta MOs
 -- Occupied --
-14.812 -10.569 -10.567 -10.566 -10.534 -10.532 -10.531 -10.530
-10.530 -10.529 -10.526 -10.522 -10.518 -10.518 -10.515 -10.513
-10.512 -10.512 -10.509 -10.509 -10.501 -10.475 -10.475 -10.465
-10.465 -10.465 -10.465 -10.464 -10.463  -1.203  -1.050  -1.034
 -1.021  -0.979  -0.970  -0.944  -0.936  -0.924  -0.907  -0.887
 -0.867  -0.828  -0.827  -0.819  -0.810  -0.809  -0.808  -0.799
 -0.773  -0.765  -0.727  -0.720  -0.710  -0.689  -0.677  -0.660
 -0.653  -0.625  -0.615  -0.606  -0.599  -0.585  -0.582  -0.577
 -0.570  -0.565  -0.556  -0.542  -0.540  -0.534  -0.533  -0.530
 -0.528  -0.527  -0.518  -0.514  -0.510  -0.500  -0.496  -0.491
 -0.484  -0.479  -0.475  -0.470  -0.469  -0.467  -0.466  -0.458
 -0.457  -0.456  -0.453  -0.435  -0.429  -0.429  -0.425  -0.418
 -0.416  -0.414  -0.394  -0.349  -0.347  -0.341  -0.329

          Ground-State Mulliken Net Atomic Charges

     Atom                 Charge (a.u.)    Spin (a.u.)
  --------------------------------------------------------
      1 C                    -0.422490       0.001738
      2 C                     0.177675       0.057346
      3 C                     0.311653      -0.102495
      4 C                    -0.219425       0.223270
      5 C                    -0.324779      -0.133309
      6 C                     0.231044       0.226674
      7 C                     0.176322       0.122972
      8 C                     0.321755      -0.096171
      9 N                    -0.656788       0.375203
     10 C                    -0.228545       0.195491
     11 C                    -0.295320      -0.140781
     12 C                     0.225678       0.259597
     13 C                    -0.453811      -0.056126
     14 C                     0.325891      -0.044886
     15 C                    -0.349160       0.062853
     16 C                     0.134167      -0.041117
     17 C                    -0.308823       0.080257
     18 C                     0.135308      -0.041894
     19 C                    -0.343226       0.064642
     20 C                    -0.714226       0.003776
     21 C                    -0.715463       0.003895
     22 C                    -0.195434      -0.018744
     23 C                    -0.193461      -0.016872
     24 H                     0.248867      -0.004509
     25 H                     0.275068      -0.003300
     26 H                     0.273633      -0.003462
     27 H                     0.252808      -0.000739
     28 H                     0.243899      -0.000269
     29 H                     0.259072      -0.001714
     30 H                     0.255870      -0.001372
     31 H                     0.255774      -0.001181
     32 H                     0.244688      -0.000203
     33 H                     0.258128       0.002275
     34 H                     0.262933       0.006231
     35 H                     0.290272      -0.010208
     36 H                     0.291692      -0.011675
     37 H                     0.269955       0.005547
     38 H                     0.253391      -0.000539
     39 C                    -0.662921       0.000649
     40 C                    -0.615957       0.008512
     41 C                    -0.616521       0.008503
     42 C                    -0.661382       0.000368
     43 C                    -0.616968       0.008063
     44 C                    -0.619492       0.007209
     45 H                     0.253209      -0.000382
     46 H                     0.230018       0.000051
     47 H                     0.231152       0.000052
     48 H                     0.240411       0.002210
     49 H                     0.227795      -0.000450
     50 H                     0.233794      -0.000315
     51 H                     0.240279       0.002057
     52 H                     0.234938      -0.000323
     53 H                     0.227727      -0.000464
     54 H                     0.241148       0.002620
     55 H                     0.237049      -0.000291
     56 H                     0.223734      -0.000353
     57 H                     0.240857       0.002906
     58 H                     0.224185      -0.000387
     59 H                     0.236402      -0.000365
     60 H                     0.250357      -0.000272
     61 H                     0.232033       0.000089
     62 H                     0.233562       0.000110
  --------------------------------------------------------
  Sum of atomic charges =     1.000000

                    Cartesian Multipole Moments
 -----------------------------------------------------------------
    Charge (ESU x 10^10)
                 4.8032
    Dipole Moment (Debye)
         X       6.7849      Y     -10.8197      Z      17.5755
       Tot      21.7256
    Quadrupole Moments (Debye-Ang)
        XX    -114.0986     XY     -32.3071     YY    -112.2001
        XZ      46.9340     YZ     -22.4970     ZZ     -69.7509

 Total job time:  17905.29s(wall), 66764.46s(cpu)
        *  Thank you very much for using Q-Chem.  Have a nice day.  *
