 Q-Chem 5.1, Q-Chem, Inc., Pleasanton, CA (2018)
 Q-Chem 5.1.1 for Intel X86 EM64T Linux

User input:
--------------------------------------------------------------

$molecule
read DiEt_ACR.mol
$end

$rem
threads 8
jobtype	opt
method PBEh-3c
basis def2-mSVP
mem_static	512
mem_total	6096
sym_ignore	true
$end

--------------------------------------------------------------

   14   -1021.4556992122      7.49e-09  Convergence criterion met
 Total energy in the final basis set =    -1021.4556992122
   12   -1021.4683100482      4.85e-09  Convergence criterion met
 Total energy in the final basis set =    -1021.4683100482
   11   -1021.4687544969      5.90e-09  Convergence criterion met
 Total energy in the final basis set =    -1021.4687544969
   10   -1021.4688177810      3.80e-09  Convergence criterion met
 Total energy in the final basis set =    -1021.4688177810
   10   -1021.4688327246      3.38e-09  Convergence criterion met
 Total energy in the final basis set =    -1021.4688327246
    9   -1021.4688520209      8.72e-09  Convergence criterion met
 Total energy in the final basis set =    -1021.4688520209
    9   -1021.4688604438      4.27e-09  Convergence criterion met
 Total energy in the final basis set =    -1021.4688604438
    8   -1021.4688636256      5.19e-09  Convergence criterion met
 Total energy in the final basis set =    -1021.4688636256
    8   -1021.4688650412      5.43e-09  Convergence criterion met
 Total energy in the final basis set =    -1021.4688650412

             Standard Nuclear Orientation (Angstroms)
    I     Atom           X                Y                Z
 ----------------------------------------------------------------
    1      H      -5.1371539601    -6.0638831643    -5.1505461878
    2      C      -5.8091651506    -6.4765758386    -5.8962018264
    3      C      -6.1395436109    -5.7087921406    -7.0077739677
    4      C      -7.0073831355    -6.2462649100    -7.9514962116
    5      H      -7.2951818070    -5.6725396345    -8.8251727106
    6      C      -7.5167573988    -7.5240950822    -7.7872328027
    7      C      -7.1699899583    -8.2791198355    -6.6783077723
    8      H      -7.5818137016    -9.2762543297    -6.5702500209
    9      C      -6.3144250009    -7.7599812077    -5.7145250595
   10      N      -8.4151695333    -8.0586022060    -8.7496742476
   11      C      -9.7811967431    -7.8829207355    -8.5604230004
   12      C     -10.7012487534    -8.4021793145    -9.4768781387
   13      C     -10.2826559401    -9.1713662271   -10.7183662273
   14      C     -12.0559830676    -8.1947321513    -9.2385464888
   15      H     -12.7770109541    -8.5916839173    -9.9425658216
   16      C     -12.5229515204    -7.4998236494    -8.1389418045
   17      H     -13.5848807079    -7.3596433912    -7.9900272712
   18      C     -11.6022078560    -6.9899394036    -7.2389913169
   19      H     -11.9321636371    -6.4399663493    -6.3673489697
   20      C     -10.2497800998    -7.1776766348    -7.4449083376
   21      H      -9.5515604217    -6.7689160204    -6.7291479807
   22      C      -7.9114064735    -8.7663010677    -9.8354247668
   23      C      -8.7717404464    -9.3119261048   -10.7939469045
   24      C      -8.2107162078   -10.0063684261   -11.8607851171
   25      H      -8.8662486718   -10.4322703969   -12.6107434329
   26      C      -6.8465940863   -10.1766319791   -12.0057012699
   27      H      -6.4500795769   -10.7232596704   -12.8503961045
   28      C      -6.0057050109    -9.6335570438   -11.0487325010
   29      H      -4.9328570494    -9.7489904714   -11.1304274773
   30      C      -6.5291714530    -8.9372705293    -9.9774105487
   31      H      -5.8544947119    -8.5212455018    -9.2432147533
   32      C      -5.9985527592    -8.5552343510    -4.4789470984
   33      H      -5.8487912623    -9.6043994098    -4.7450755525
   34      H      -5.0562731110    -8.2109237756    -4.0469962995
   35      C      -7.1105381077    -8.4485528005    -3.4375427803
   36      C      -5.5382144911    -4.3491134770    -7.2260126958
   37      H      -6.3001627457    -3.6685681659    -7.6139311063
   38      H      -5.2103759911    -3.9309845607    -6.2718130399
   39      C      -4.3595156596    -4.4000875427    -8.1958610385
   40      H      -3.5727210748    -5.0553546337    -7.8213641708
   41      H      -4.6673497466    -4.7813920777    -9.1700739562
   42      H      -3.9298779240    -3.4093075006    -8.3459395968
   43      H      -7.2631039358    -7.4131790257    -3.1321224510
   44      H      -6.8732948342    -9.0308164576    -2.5467433504
   45      H      -8.0574108637    -8.8160169280    -3.8345396159
   46      C     -10.7791450259    -8.4181677920   -11.9654684436
   47      C     -10.9187898412   -10.5716737063   -10.6803690211
   48      H     -10.3408437125    -7.4218637832   -12.0189635433
   49      H     -11.8642247319    -8.3066769405   -11.9561714321
   50      H     -10.5157094404    -8.9494463425   -12.8808993565
   51      H     -10.5847044741   -11.1271237221    -9.8045218428
   52      H     -10.6580938997   -11.1533890622   -11.5652068094
   53      H     -12.0070697216   -10.5123506099   -10.6445277585
 ----------------------------------------------------------------

    7   -1021.4688653237      7.02e-09  Convergence criterion met
 Total energy in the final basis set =    -1021.4688653237
 Final energy is   -1021.46886532371
 **  OPTIMIZATION CONVERGED  **

                    Orbital Energies (a.u.)
 --------------------------------------------------------------

 Alpha MOs
 -- Occupied --
-14.672 -10.488 -10.488 -10.488 -10.464 -10.460 -10.460 -10.448
-10.447 -10.447 -10.445 -10.445 -10.445 -10.445 -10.439 -10.438
-10.438 -10.438 -10.434 -10.434 -10.431 -10.431 -10.430 -10.430
-10.422 -10.422  -1.085  -0.974  -0.953  -0.950  -0.904  -0.900
 -0.873  -0.846  -0.830  -0.830  -0.812  -0.810  -0.790  -0.765
 -0.724  -0.720  -0.712  -0.703  -0.690  -0.665  -0.642  -0.638
 -0.611  -0.611  -0.588  -0.563  -0.563  -0.532  -0.529  -0.519
 -0.519  -0.509  -0.504  -0.495  -0.494  -0.492  -0.481  -0.479
 -0.474  -0.474  -0.461  -0.449  -0.447  -0.444  -0.433  -0.433
 -0.430  -0.423  -0.420  -0.410  -0.409  -0.406  -0.400  -0.394
 -0.393  -0.391  -0.382  -0.368  -0.365  -0.361  -0.295  -0.293
 -0.284  -0.280  -0.278  -0.217

          Ground-State Mulliken Net Atomic Charges

     Atom                 Charge (a.u.)
  ----------------------------------------
      1 H                     0.203975
      2 C                    -0.357686
      3 C                     0.172373
      4 C                    -0.297374
      5 H                     0.226854
      6 C                     0.211833
      7 C                    -0.295507
      8 H                     0.227441
      9 C                     0.172128
     10 N                    -0.722688
     11 C                     0.312354
     12 C                     0.142994
     13 C                    -0.211361
     14 C                    -0.290758
     15 H                     0.205561
     16 C                    -0.228116
     17 H                     0.210221
     18 C                    -0.231116
     19 H                     0.214469
     20 C                    -0.305923
     21 H                     0.251089
     22 C                     0.315519
     23 C                     0.142744
     24 C                    -0.291173
     25 H                     0.205723
     26 C                    -0.228049
     27 H                     0.210327
     28 C                    -0.231002
     29 H                     0.214589
     30 C                    -0.308446
     31 H                     0.250520
     32 C                    -0.501044
     33 H                     0.231305
     34 H                     0.225437
     35 C                    -0.634671
     36 C                    -0.501102
     37 H                     0.231298
     38 H                     0.225398
     39 C                    -0.634648
     40 H                     0.221833
     41 H                     0.223545
     42 H                     0.220547
     43 H                     0.221495
     44 H                     0.220479
     45 H                     0.224000
     46 C                    -0.595527
     47 C                    -0.597939
     48 H                     0.232992
     49 H                     0.215399
     50 H                     0.215241
     51 H                     0.233608
     52 H                     0.215475
     53 H                     0.215363
  ----------------------------------------
  Sum of atomic charges =     0.000000

                    Cartesian Multipole Moments
 -----------------------------------------------------------------
    Charge (ESU x 10^10)
                 0.0000
    Dipole Moment (Debye)
         X       1.1467      Y       0.7088      Z       1.2570
       Tot       1.8432
    Quadrupole Moments (Debye-Ang)
        XX    -164.6832     XY     -10.8584     YY    -162.7317
        XZ     -13.7384     YZ     -11.2575     ZZ    -166.3836

 Total job time:  1037.11s(wall), 8209.19s(cpu)
        *  Thank you very much for using Q-Chem.  Have a nice day.  *
