 Q-Chem 5.1, Q-Chem, Inc., Pleasanton, CA (2018)
 Q-Chem 5.1.1 for Intel X86 EM64T Linux

User input:
--------------------------------------------------------------

$molecule
read DiEt_OMe.mol
$end

$rem
threads 8
jobtype	opt
method PBEh-3c
basis def2-mSVP
mem_static	512
mem_total	6096
sym_ignore	true
$end

--------------------------------------------------------------

   14    -502.9230002158      3.91e-09  Convergence criterion met
 Total energy in the final basis set =     -502.9230002158
   12    -502.9308718426      5.81e-09  Convergence criterion met
 Total energy in the final basis set =     -502.9308718426
   11    -502.9312242968      5.81e-09  Convergence criterion met
 Total energy in the final basis set =     -502.9312242968
   10    -502.9312801380      8.30e-09  Convergence criterion met
 Total energy in the final basis set =     -502.9312801380
    9    -502.9312916888      6.27e-09  Convergence criterion met
 Total energy in the final basis set =     -502.9312916888
    9    -502.9312948603      2.55e-09  Convergence criterion met
 Total energy in the final basis set =     -502.9312948603
    8    -502.9312980363      5.24e-09  Convergence criterion met
 Total energy in the final basis set =     -502.9312980363
    8    -502.9312992979      6.70e-09  Convergence criterion met
 Total energy in the final basis set =     -502.9312992979

             Standard Nuclear Orientation (Angstroms)
    I     Atom           X                Y                Z
 ----------------------------------------------------------------
    1      H       2.1971231865    -3.1166688376     1.3440949541
    2      C       0.4315695791    -3.8405594726     4.1305432600
    3      C       1.5038154359    -3.4509972840     3.3478210670
    4      C       1.3586048948    -3.4211364126     1.9616450520
    5      C       0.1601461666    -3.7722685354     1.3625263031
    6      C      -0.9156706848    -4.1591581643     2.1603654965
    7      C      -0.7820777383    -4.1949707230     3.5422052301
    8      C       2.7891831307    -3.0027440203     3.9852173386
    9      C       0.0204484234    -3.7898765854    -0.1352013659
   10      O      -1.7672810471    -4.5542347758     4.3906627940
   11      C      -3.0153172600    -4.9081730635     3.8579809681
   12      H       0.5193529305    -3.8715372562     5.2102626674
   13      H      -1.8489498782    -4.4262748358     1.6798192271
   14      H       3.6348504513    -3.2986618924     3.3595303592
   15      H       2.9242686774    -3.5100018990     4.9432397944
   16      C       2.8175264820    -1.4912212524     4.1995758167
   17      H       0.7286706492    -3.0866487176    -0.5790327540
   18      H      -0.9752793713    -3.4389884114    -0.4185036547
   19      C       0.2543088997    -5.1817861958    -0.7186400281
   20      H      -3.6556975200    -5.1544003243     4.7024069054
   21      H      -3.4778688989    -4.0870423335     3.3002906977
   22      H      -2.9555956379    -5.7827713673     3.2017895074
   23      H       1.2524984699    -5.5446878685    -0.4732877941
   24      H       0.1553983868    -5.1764933658    -1.8047853993
   25      H      -0.4616477961    -5.9017090842    -0.3211365378
   26      H       2.7233690405    -0.9583061563     3.2529866955
   27      H       3.7494703285    -1.1766253026     4.6706757782
   28      H       1.9930806999    -1.1726558626     4.8377476214
 ----------------------------------------------------------------

    7    -502.9312996793      5.50e-09  Convergence criterion met
 Total energy in the final basis set =     -502.9312996793
 Final energy is   -502.931299679254
 **  OPTIMIZATION CONVERGED  **

                    Orbital Energies (a.u.)
 --------------------------------------------------------------

 Alpha MOs
 -- Occupied --
-19.524 -10.502 -10.489 -10.449 -10.448 -10.438 -10.436 -10.433
-10.429 -10.427 -10.425 -10.422  -1.182  -0.956  -0.890  -0.865
 -0.823  -0.803  -0.775  -0.713  -0.704  -0.654  -0.633  -0.585
 -0.562  -0.545  -0.534  -0.505  -0.501  -0.488  -0.486  -0.462
 -0.453  -0.440  -0.431  -0.420  -0.414  -0.407  -0.401  -0.385
 -0.383  -0.365  -0.358  -0.275  -0.254

          Ground-State Mulliken Net Atomic Charges

     Atom                 Charge (a.u.)
  ----------------------------------------
      1 H                     0.195690
      2 C                    -0.390422
      3 C                     0.192273
      4 C                    -0.375488
      5 C                     0.199415
      6 C                    -0.432899
      7 C                     0.432385
      8 C                    -0.500763
      9 C                    -0.501541
     10 O                    -0.452436
     11 C                    -0.406701
     12 H                     0.221392
     13 H                     0.222710
     14 H                     0.223953
     15 H                     0.225651
     16 C                    -0.631833
     17 H                     0.225133
     18 H                     0.222286
     19 C                    -0.631065
     20 H                     0.239670
     21 H                     0.204342
     22 H                     0.203737
     23 H                     0.223663
     24 H                     0.215583
     25 H                     0.217173
     26 H                     0.219716
     27 H                     0.215317
     28 H                     0.223058
  ----------------------------------------
  Sum of atomic charges =    -0.000000

                    Cartesian Multipole Moments
 -----------------------------------------------------------------
    Charge (ESU x 10^10)
                -0.0000
    Dipole Moment (Debye)
         X      -0.8508      Y      -0.1838      Z      -0.8917
       Tot       1.2461
    Quadrupole Moments (Debye-Ang)
        XX     -63.5061     XY       7.6469     YY     -74.4232
        XZ      -1.5343     YZ       3.1147     ZZ     -75.7958

 Total job time:  131.02s(wall), 1047.78s(cpu)
        *  Thank you very much for using Q-Chem.  Have a nice day.  *
