 Q-Chem 5.1, Q-Chem, Inc., Pleasanton, CA (2018)
 Q-Chem 5.1.1 for Intel X86 EM64T Linux

User input:
--------------------------------------------------------------
$rem
threads 4
jobtype opt
method PBEh-3c
basis def2-mSVP
mem_static      1024
mem_total       4000
sym_ignore      true
unrestricted true
scf_algorithm	diis
scf_max_cycles	250
solvent_method  pcm
geom_opt_tol_energy 25
geom_opt_tol_gradient 75
$end

$pcm
theory  iefpcm
$end

$solvent
dielectric      2.38
$end

$molecule
read DiEt_NPh3_kat.mol
$end
--------------------------------------------------------------

   20    -904.7480190175      7.34e-09  Convergence criterion met
 Total energy in the final basis set =     -904.7480190175
   15    -904.7573834343      5.43e-09  Convergence criterion met
 Total energy in the final basis set =     -904.7573834343
   15    -904.7570566375      6.52e-09  Convergence criterion met
 Total energy in the final basis set =     -904.7570566375
   14    -904.7577973168      7.23e-09  Convergence criterion met
 Total energy in the final basis set =     -904.7577973168
   14    -904.7578554025      7.37e-09  Convergence criterion met
 Total energy in the final basis set =     -904.7578554025
   14    -904.7578480846      7.02e-09  Convergence criterion met
 Total energy in the final basis set =     -904.7578480846
   13    -904.7578483410      7.08e-09  Convergence criterion met
 Total energy in the final basis set =     -904.7578483410
   12    -904.7578481940      9.11e-09  Convergence criterion met
 Total energy in the final basis set =     -904.7578481940
   12    -904.7578456576      9.44e-09  Convergence criterion met
 Total energy in the final basis set =     -904.7578456576

             Standard Nuclear Orientation (Angstroms)
    I     Atom           X                Y                Z
 ----------------------------------------------------------------
    1      N      -0.0562778716     0.1835342851     0.0888754376
    2      C      -0.0737928934     0.1492054747     1.4880528990
    3      C       1.1032191194     0.3966713535     2.2023087192
    4      H       2.0309633857     0.5844528099     1.6778715846
    5      C       1.0756255481     0.3547931224     3.5820355808
    6      H       1.9859077999     0.5268244740     4.1392949734
    7      C      -0.1119028539     0.0787300671     4.2516445160
    8      H      -0.1266315335     0.0511372405     5.3326713216
    9      C      -1.2810021980    -0.1591160980     3.5371932543
   10      H      -2.2069986244    -0.3554792920     4.0595953314
   11      C      -1.2706113882    -0.1287067365     2.1570322745
   12      H      -2.1846880024    -0.2826151134     1.5984409179
   13      C       0.6895331274     1.1688063325    -0.5695609303
   14      C       1.4299993833     0.8298077744    -1.7071236387
   15      H       1.4576015566    -0.1944561100    -2.0555000234
   16      C       2.1588040456     1.8070797980    -2.3549344916
   17      H       2.7463355119     1.5464788363    -3.2244334149
   18      C       2.1495634738     3.1153167355    -1.8835967139
   19      H       2.7197520259     3.8769652883    -2.3977679941
   20      C       1.4114007623     3.4474453125    -0.7526667264
   21      H       1.3941819745     4.4679839060    -0.3962234039
   22      C       0.6839373790     2.4808573480    -0.0869129440
   23      H       0.0870574959     2.7416461326     0.7771629998
   24      C      -0.7766128858    -0.7505716315    -0.6486467584
   25      C      -0.8668658973    -2.0735324212    -0.1953542497
   26      H      -0.3495490136    -2.3752830332     0.7070306924
   27      C      -1.5710809906    -3.0074925727    -0.9333310452
   28      C      -1.3974449828    -0.3590932068    -1.8430579840
   29      H      -1.3530582714     0.6738138149    -2.1649292511
   30      C      -2.1094877380    -1.2834601846    -2.5846017686
   31      C      -2.1853736879    -2.5968046425    -2.1173999409
   32      C      -2.7518573199    -0.9000931673    -3.8866667473
   33      H      -3.0244915884     0.1567665047    -3.8684593410
   34      H      -3.6815761246    -1.4582157801    -4.0145191370
   35      C      -1.8243421696    -1.1716263420    -5.0700584283
   36      C      -1.7054938054    -4.4251151355    -0.4556920895
   37      H      -0.8197935490    -4.7085233049     0.1160236824
   38      H      -1.7483990784    -5.0976356240    -1.3145734801
   39      C      -2.9547475236    -4.6100100052     0.4041854674
   40      H      -3.8588028604    -4.3574457200    -0.1505793535
   41      H      -3.0446961342    -5.6439546505     0.7355977448
   42      H      -2.9197111780    -3.9758558605     1.2905371769
   43      H      -2.7407645902    -3.3262356525    -2.6977955320
   44      H      -2.3080999331    -0.9006860861    -6.0079338353
   45      H      -1.5524075916    -2.2259756443    -5.1277413111
   46      H      -0.9029203101    -0.5942325954    -4.9893940402
 ----------------------------------------------------------------

   13    -904.7578462264      8.63e-09  Convergence criterion met
 Total energy in the final basis set =     -904.7578462264
 Final energy is   -904.757846226395
 **  OPTIMIZATION CONVERGED  **

                    Orbital Energies (a.u.)
 --------------------------------------------------------------

 Alpha MOs
 -- Occupied --
-14.821 -10.577 -10.576 -10.575 -10.529 -10.529 -10.529 -10.528
-10.523 -10.523 -10.521 -10.521 -10.521 -10.521 -10.517 -10.516
-10.516 -10.516 -10.516 -10.487 -10.487 -10.467 -10.467  -1.205
 -1.043  -1.041  -1.020  -0.955  -0.946  -0.933  -0.916  -0.915
 -0.890  -0.870  -0.869  -0.796  -0.795  -0.771  -0.761  -0.759
 -0.748  -0.713  -0.700  -0.684  -0.664  -0.641  -0.632  -0.625
 -0.623  -0.601  -0.588  -0.570  -0.569  -0.561  -0.558  -0.557
 -0.552  -0.538  -0.536  -0.526  -0.514  -0.508  -0.499  -0.499
 -0.490  -0.485  -0.478  -0.477  -0.470  -0.467  -0.453  -0.445
 -0.437  -0.437  -0.429  -0.382  -0.377  -0.376  -0.365  -0.352
 -0.321

 Beta MOs
 -- Occupied --
-14.809 -10.578 -10.577 -10.577 -10.527 -10.526 -10.526 -10.526
-10.523 -10.523 -10.520 -10.520 -10.519 -10.518 -10.517 -10.517
-10.517 -10.517 -10.513 -10.487 -10.487 -10.467 -10.467  -1.187
 -1.040  -1.038  -1.016  -0.955  -0.943  -0.930  -0.914  -0.913
 -0.887  -0.867  -0.861  -0.792  -0.791  -0.768  -0.760  -0.755
 -0.746  -0.710  -0.699  -0.682  -0.662  -0.638  -0.626  -0.620
 -0.616  -0.597  -0.586  -0.568  -0.567  -0.559  -0.557  -0.556
 -0.551  -0.537  -0.526  -0.524  -0.505  -0.503  -0.495  -0.492
 -0.489  -0.482  -0.478  -0.473  -0.469  -0.463  -0.453  -0.440
 -0.437  -0.429  -0.419  -0.373  -0.366  -0.365  -0.352  -0.345

          Ground-State Mulliken Net Atomic Charges

     Atom                 Charge (a.u.)    Spin (a.u.)
  --------------------------------------------------------
      1 N                    -0.556629       0.431733
      2 C                     0.262485      -0.075992
      3 C                    -0.254772       0.137742
      4 H                     0.291974      -0.007063
      5 C                    -0.225029      -0.096991
      6 H                     0.274450       0.004871
      7 C                    -0.213469       0.177095
      8 H                     0.275482      -0.009580
      9 C                    -0.225561      -0.098819
     10 H                     0.273886       0.005019
     11 C                    -0.254856       0.139996
     12 H                     0.292562      -0.007143
     13 C                     0.256210      -0.074753
     14 C                    -0.252872       0.136749
     15 H                     0.292232      -0.006961
     16 C                    -0.225749      -0.096395
     17 H                     0.273699       0.004918
     18 C                    -0.213551       0.172255
     19 H                     0.275284      -0.009320
     20 C                    -0.225687      -0.094454
     21 H                     0.274223       0.004785
     22 C                    -0.252560       0.134326
     23 H                     0.291052      -0.006905
     24 C                     0.322773      -0.068261
     25 C                    -0.347669       0.162547
     26 H                     0.284651      -0.008318
     27 C                     0.180795      -0.116899
     28 C                    -0.349097       0.162237
     29 H                     0.284615      -0.008265
     30 C                     0.181483      -0.116893
     31 C                    -0.331046       0.237265
     32 C                    -0.506159       0.008067
     33 H                     0.246339      -0.001142
     34 H                     0.250469      -0.001682
     35 C                    -0.643755      -0.002586
     36 C                    -0.506231       0.008053
     37 H                     0.246474      -0.001219
     38 H                     0.250510      -0.001557
     39 C                    -0.643550      -0.002563
     40 H                     0.229529       0.000103
     41 H                     0.244124      -0.000488
     42 H                     0.222309       0.000071
     43 H                     0.254536      -0.013307
     44 H                     0.244143      -0.000448
     45 H                     0.229137       0.000105
     46 H                     0.222818       0.000067
  --------------------------------------------------------
  Sum of atomic charges =     1.000000

                    Cartesian Multipole Moments
 -----------------------------------------------------------------
    Charge (ESU x 10^10)
                 4.8032
    Dipole Moment (Debye)
         X      -1.1228      Y      -0.2343      Z      -0.4860
       Tot       1.2458
    Quadrupole Moments (Debye-Ang)
        XX    -113.9832     XY      18.7482     YY    -102.0658
        XZ       2.2912     YZ       0.7548     ZZ     -89.9177

 Total job time:  3765.17s(wall), 13964.03s(cpu)
        *  Thank you very much for using Q-Chem.  Have a nice day.  *
