 Q-Chem 5.1, Q-Chem, Inc., Pleasanton, CA (2018)
 Q-Chem 5.1.1 for Intel X86 EM64T Linux

User input:
--------------------------------------------------------------
$rem
threads 4
jobtype opt
method PBEh-3c
basis def2-mSVP
mem_static      1024
mem_total       4000
sym_ignore      true
unrestricted true
scf_algorithm	diis
scf_max_cycles	250
solvent_method  pcm
geom_opt_tol_energy 25
geom_opt_tol_gradient 75
$end

$pcm
theory  iefpcm
$end

$solvent
dielectric      1.0001
$end

$molecule
read DiEt_ACR_kat.mol
$end
--------------------------------------------------------------

   20   -1021.2108515108      7.61e-09  Convergence criterion met
 Total energy in the final basis set =    -1021.2108515108
   15   -1021.2268193462      9.41e-09  Convergence criterion met
 Total energy in the final basis set =    -1021.2268193462
   14   -1021.2274919182      6.43e-09  Convergence criterion met
 Total energy in the final basis set =    -1021.2274919182
   13   -1021.2276065155      5.66e-09  Convergence criterion met
 Total energy in the final basis set =    -1021.2276065155
   11   -1021.2276341962      5.69e-09  Convergence criterion met
 Total energy in the final basis set =    -1021.2276341962
   11   -1021.2276601464      5.34e-09  Convergence criterion met
 Total energy in the final basis set =    -1021.2276601464
    9   -1021.2276813646      7.85e-09  Convergence criterion met
 Total energy in the final basis set =    -1021.2276813646
    8   -1021.2276894680      6.59e-09  Convergence criterion met
    8   -1021.2277105906      7.31e-09  Convergence criterion met
 Total energy in the final basis set =    -1021.2277105906
    8   -1021.2277185258      7.22e-09  Convergence criterion met
 Total energy in the final basis set =    -1021.2277185258
    9   -1021.2277302076      5.17e-09  Convergence criterion met
 Total energy in the final basis set =    -1021.2277302076
    7   -1021.2277282502      9.25e-09  Convergence criterion met
 Total energy in the final basis set =    -1021.2277282502
    7   -1021.2277286326      8.43e-09  Convergence criterion met
 Total energy in the final basis set =    -1021.2277286326
    7   -1021.2277273526      6.33e-09  Convergence criterion met
 Total energy in the final basis set =    -1021.2277273526

             Standard Nuclear Orientation (Angstroms)
    I     Atom           X                Y                Z
 ----------------------------------------------------------------
    1      H      -5.1677778453    -6.0571587643    -5.1843002317
    2      C      -5.8344744895    -6.4774024995    -5.9295016256
    3      C      -6.1714656442    -5.7069729790    -7.0385973032
    4      C      -7.0337413086    -6.2500274120    -7.9854899807
    5      H      -7.3270327092    -5.6772032155    -8.8576279703
    6      C      -7.5168519343    -7.5318904744    -7.7986143088
    7      C      -7.1751175856    -8.2999956870    -6.7018606780
    8      H      -7.5760785036    -9.3008583784    -6.5897062747
    9      C      -6.3202639658    -7.7677156712    -5.7422261989
   10      N      -8.4315384952    -8.0802132213    -8.7678328536
   11      C      -9.7799239122    -7.8895648690    -8.5691772532
   12      C     -10.7093693007    -8.4098047246    -9.4916290352
   13      C     -10.2931068115    -9.1788525243   -10.7206017030
   14      C     -12.0558084140    -8.1895828173    -9.2423511377
   15      H     -12.7949212294    -8.5757753171    -9.9309785091
   16      C     -12.4890731134    -7.4851522993    -8.1326772117
   17      H     -13.5475524303    -7.3331673049    -7.9721269595
   18      C     -11.5611784176    -6.9742750842    -7.2272810597
   19      H     -11.8917285376    -6.4227396772    -6.3586342190
   20      C     -10.2199621495    -7.1710782934    -7.4375737831
   21      H      -9.5073426005    -6.7724008517    -6.7319177771
   22      C      -7.9232185695    -8.7754477183    -9.8412659299
   23      C      -8.7938993216    -9.3221026888   -10.8050350744
   24      C      -8.2263014369   -10.0114763337   -11.8660726841
   25      H      -8.8658858265   -10.4430848845   -12.6241926891
   26      C      -6.8561962870   -10.1670782608   -11.9880256631
   27      H      -6.4504702013   -10.7115254048   -12.8295825420
   28      C      -6.0049877542    -9.6231833298   -11.0280600875
   29      H      -4.9344734092    -9.7417623619   -11.1166538928
   30      C      -6.5272126622    -8.9328937279    -9.9637657607
   31      H      -5.8641047974    -8.5123200716    -9.2229479847
   32      C      -5.9902364671    -8.5569556243    -4.5079965123
   33      H      -5.8471281465    -9.6078102726    -4.7693835330
   34      H      -5.0412487280    -8.2122495442    -4.0936662847
   35      C      -7.0881076955    -8.4358939504    -3.4525854982
   36      C      -5.5821633710    -4.3422557074    -7.2489200147
   37      H      -6.3188469528    -3.6911762297    -7.7246843748
   38      H      -5.3512427405    -3.8894662658    -6.2830639209
   39      C      -4.3190363169    -4.4017208505    -8.1058497341
   40      H      -3.5551569437    -5.0250682652    -7.6411401466
   41      H      -4.5277443995    -4.8146068354    -9.0935324997
   42      H      -3.8986256988    -3.4066019424    -8.2450374944
   43      H      -7.2350552416    -7.3984589171    -3.1525390759
   44      H      -6.8326312968    -9.0079447120    -2.5615761777
   45      H      -8.0416486250    -8.8119336788    -3.8253928407
   46      C     -10.7927061888    -8.4249735812   -11.9720402590
   47      C     -10.9303207358   -10.5832313822   -10.6722345895
   48      H     -10.3594547993    -7.4275965527   -12.0373314794
   49      H     -11.8769821807    -8.3215595856   -11.9573661323
   50      H     -10.5334232811    -8.9653309890   -12.8814999214
   51      H     -10.5988877271   -11.1418911208    -9.7979032483
   52      H     -10.6735013406   -11.1612972189   -11.5589089883
   53      H     -12.0167914591   -10.5166699260   -10.6382388919
 ----------------------------------------------------------------

    6   -1021.2277280292      4.75e-09  Convergence criterion met
 Total energy in the final basis set =    -1021.2277280292
 Final energy is   -1021.22772802923
 **  OPTIMIZATION CONVERGED  **

                    Orbital Energies (a.u.)
 --------------------------------------------------------------

 Alpha MOs
 -- Occupied --
-14.890 -10.647 -10.647 -10.621 -10.609 -10.609 -10.607 -10.592
-10.591 -10.589 -10.589 -10.581 -10.581 -10.580 -10.580 -10.573
-10.573 -10.571 -10.571 -10.558 -10.552 -10.552 -10.539 -10.539
-10.518 -10.517  -1.274  -1.115  -1.109  -1.085  -1.052  -1.005
 -1.003  -0.996  -0.983  -0.960  -0.945  -0.922  -0.920  -0.895
 -0.866  -0.865  -0.831  -0.830  -0.814  -0.806  -0.775  -0.765
 -0.759  -0.750  -0.720  -0.692  -0.686  -0.683  -0.671  -0.667
 -0.657  -0.643  -0.639  -0.629  -0.621  -0.614  -0.608  -0.605
 -0.599  -0.588  -0.585  -0.574  -0.574  -0.572  -0.563  -0.562
 -0.553  -0.548  -0.547  -0.540  -0.533  -0.529  -0.520  -0.517
 -0.507  -0.506  -0.501  -0.490  -0.488  -0.480  -0.445  -0.435
 -0.427  -0.411  -0.399  -0.390

 Beta MOs
 -- Occupied --
-14.878 -10.649 -10.649 -10.621 -10.607 -10.606 -10.606 -10.589
-10.589 -10.585 -10.585 -10.583 -10.583 -10.582 -10.582 -10.573
-10.573 -10.570 -10.570 -10.558 -10.551 -10.551 -10.539 -10.539
-10.518 -10.517  -1.255  -1.110  -1.105  -1.082  -1.049  -1.005
 -1.000  -0.995  -0.980  -0.957  -0.940  -0.919  -0.918  -0.893
 -0.865  -0.859  -0.829  -0.828  -0.812  -0.806  -0.773  -0.763
 -0.756  -0.747  -0.718  -0.685  -0.679  -0.679  -0.669  -0.666
 -0.655  -0.639  -0.629  -0.628  -0.620  -0.614  -0.607  -0.603
 -0.588  -0.587  -0.579  -0.573  -0.573  -0.569  -0.561  -0.561
 -0.548  -0.547  -0.546  -0.538  -0.528  -0.523  -0.515  -0.506
 -0.505  -0.504  -0.500  -0.489  -0.488  -0.480  -0.431  -0.421
 -0.420  -0.411  -0.398

          Ground-State Mulliken Net Atomic Charges

     Atom                 Charge (a.u.)    Spin (a.u.)
  --------------------------------------------------------
      1 H                     0.236174      -0.000229
      2 C                    -0.336901       0.003451
      3 C                     0.166640      -0.002489
      4 C                    -0.292285       0.015828
      5 H                     0.245773      -0.000812
      6 C                     0.153694      -0.031415
      7 C                    -0.290234       0.015945
      8 H                     0.246325      -0.000830
      9 C                     0.167046      -0.002434
     10 N                    -0.609973       0.432878
     11 C                     0.289241      -0.089605
     12 C                     0.196056       0.228579
     13 C                    -0.252295      -0.038014
     14 C                    -0.292636      -0.149817
     15 H                     0.249970       0.007060
     16 C                    -0.189064       0.252608
     17 H                     0.270109      -0.013474
     18 C                    -0.229106      -0.126207
     19 H                     0.268600       0.005687
     20 C                    -0.256737       0.175093
     21 H                     0.299613      -0.009591
     22 C                     0.292701      -0.089420
     23 C                     0.196105       0.228316
     24 C                    -0.292859      -0.149793
     25 H                     0.250191       0.007061
     26 C                    -0.189115       0.252961
     27 H                     0.270261      -0.013500
     28 C                    -0.228973      -0.126576
     29 H                     0.268805       0.005703
     30 C                    -0.260221       0.175421
     31 H                     0.299345      -0.009610
     32 C                    -0.507933       0.001050
     33 H                     0.241586      -0.000089
     34 H                     0.247910       0.000157
     35 C                    -0.637204      -0.000145
     36 C                    -0.508023       0.001042
     37 H                     0.240419      -0.000082
     38 H                     0.247913       0.000145
     39 C                    -0.636466      -0.000147
     40 H                     0.229738       0.000007
     41 H                     0.216591       0.000009
     42 H                     0.247130       0.000017
     43 H                     0.229717       0.000007
     44 H                     0.247573       0.000021
     45 H                     0.215308       0.000007
     46 C                    -0.595902       0.023389
     47 C                    -0.597487       0.022565
     48 H                     0.247226      -0.000861
     49 H                     0.244523       0.000263
     50 H                     0.244516       0.000274
     51 H                     0.247996      -0.000795
     52 H                     0.244439       0.000199
     53 H                     0.244180       0.000192
  --------------------------------------------------------
  Sum of atomic charges =     1.000000

                    Cartesian Multipole Moments
 -----------------------------------------------------------------
    Charge (ESU x 10^10)
                 4.8032
    Dipole Moment (Debye)
         X     -41.2418      Y     -39.1934      Z     -42.7470
       Tot      71.1640
    Quadrupole Moments (Debye-Ang)
        XX     246.8457     XY     340.9381     YY     186.3541
        XZ     375.0247     YZ     366.4085     ZZ     267.8672

 Total job time:  8441.60s(wall), 30461.65s(cpu)
        *  Thank you very much for using Q-Chem.  Have a nice day.  *
