 Q-Chem 5.1, Q-Chem, Inc., Pleasanton, CA (2018)
 Q-Chem 5.1.1 for Intel X86 EM64T Linux

User input:
--------------------------------------------------------------
$rem
threads 4
jobtype	opt
method PBEh-3c
basis def2-mSVP
mem_static	1024
mem_total	3000
sym_ignore	true
scf_convergence	9
solvent_method	pcm
$end

$molecule
read DiEt_PXZ.mol
$end

$solvent
dielectric	2.38
$end

$pcm
theory iefpcm
$end

--------------------------------------------------------------

   16    -978.8327769189      8.29e-10  Convergence criterion met
 Total energy in the final basis set =     -978.8327769189
   14    -978.8424975745      8.45e-10  Convergence criterion met
 Total energy in the final basis set =     -978.8424975745
   14    -978.8429561253      4.52e-10  Convergence criterion met
 Total energy in the final basis set =     -978.8429561253
   14    -978.8430096865      3.78e-10  Convergence criterion met
 Total energy in the final basis set =     -978.8430096865
   14    -978.8430212587      3.23e-10  Convergence criterion met
 Total energy in the final basis set =     -978.8430212587

             Standard Nuclear Orientation (Angstroms)
    I     Atom           X                Y                Z
 ----------------------------------------------------------------
    1      N       1.3358849909    -0.2377837948    -2.1381473314
    2      C       0.8864315083     0.9079937025    -1.4880202374
    3      C       1.8187364382     1.8663906929    -1.0777199998
    4      C       1.4162758817     3.0175206674    -0.4341502121
    5      H       2.1662953955     3.7381159246    -0.1340749197
    6      C       0.0679468095     3.2376254447    -0.1715347372
    7      H      -0.2402905217     4.1404066602     0.3375557797
    8      C      -0.8627096976     2.2953592979    -0.5659034205
    9      H      -1.9155413053     2.4476663584    -0.3692516756
   10      C      -0.4576265220     1.1388438659    -1.2220104014
   11      H      -1.1973018875     0.4105680185    -1.5257565232
   12      C       2.6782506870    -0.3388557206    -2.4922789785
   13      C       3.1763622710    -1.3843857048    -3.2598534027
   14      H       2.5078424569    -2.1606331781    -3.6068198410
   15      C       4.5264165135    -1.4463301719    -3.5851100229
   16      H       4.8863292331    -2.2744397624    -4.1809188390
   17      C       5.3955105157    -0.4627211636    -3.1532931266
   18      H       6.4465581654    -0.5030992831    -3.4038745711
   19      C       4.9067820868     0.5907562956    -2.3877677480
   20      H       5.5649812678     1.3745910788    -2.0351856257
   21      C       3.5693457875     0.6474198550    -2.0583714009
   22      C       0.4099048846    -1.2219527035    -2.5734029574
   23      C       0.1331829031    -2.3088250280    -1.7581165907
   24      H       0.6239424497    -2.3888551831    -0.7949874866
   25      C      -0.7624139068    -3.2878865170    -2.1759352377
   26      C      -0.2047593997    -1.0951305691    -3.8111450102
   27      H       0.0245960768    -0.2384555065    -4.4349905320
   28      C      -1.1058382364    -2.0595439311    -4.2480511982
   29      C      -1.3693694679    -3.1450977575    -3.4188780248
   30      C      -1.7365796582    -1.9656794900    -5.6097311265
   31      H      -2.7477872676    -2.3780307488    -5.5768900654
   32      H      -1.8407438700    -0.9168089764    -5.8963693492
   33      C      -0.9198077343    -2.7049813622    -6.6677494964
   34      C      -1.1050253399    -4.4496565102    -1.2855048478
   35      H      -0.2428174573    -4.7064304282    -0.6659306030
   36      H      -1.3180451750    -5.3293777002    -1.8975111821
   37      C      -2.3055559759    -4.1494107493    -0.3908096536
   38      H      -3.1889625336    -3.9129410317    -0.9850423827
   39      H      -2.5456548415    -5.0048567340     0.2413800820
   40      H      -2.1074368488    -3.2970489993     0.2599891628
   41      H      -2.0682609793    -3.9055557711    -3.7541127646
   42      H       0.0884296117    -2.2961448840    -6.7419182757
   43      H      -1.3871615389    -2.6254733115    -7.6498072852
   44      H      -0.8291625784    -3.7643832147    -6.4248200638
   45      O       3.1558468088     1.6914180242    -1.2829778760
 ----------------------------------------------------------------

   14    -978.8430213030      3.35e-10  Convergence criterion met
 Total energy in the final basis set =     -978.8430213030
 Final energy is   -978.843021303013
 **  OPTIMIZATION CONVERGED  **

                    Orbital Energies (a.u.)
 --------------------------------------------------------------

 Alpha MOs
 -- Occupied --
-19.547 -14.681 -10.513 -10.513 -10.499 -10.499 -10.492 -10.461
-10.461 -10.449 -10.449 -10.448 -10.446 -10.446 -10.446 -10.446
-10.444 -10.444 -10.443 -10.442 -10.442 -10.442 -10.428 -10.427
 -1.213  -1.088  -0.973  -0.972  -0.940  -0.899  -0.877  -0.864
 -0.855  -0.831  -0.825  -0.812  -0.792  -0.732  -0.732  -0.722
 -0.711  -0.680  -0.661  -0.650  -0.643  -0.638  -0.592  -0.570
 -0.566  -0.564  -0.540  -0.536  -0.536  -0.528  -0.508  -0.502
 -0.499  -0.495  -0.495  -0.491  -0.480  -0.461  -0.452  -0.448
 -0.441  -0.436  -0.434  -0.431  -0.427  -0.416  -0.413  -0.410
 -0.398  -0.397  -0.395  -0.384  -0.382  -0.371  -0.306  -0.302
 -0.295  -0.285  -0.272  -0.213

          Ground-State Mulliken Net Atomic Charges

     Atom                 Charge (a.u.)
  ----------------------------------------
      1 N                    -0.713030
      2 C                     0.335961
      3 C                     0.339848
      4 C                    -0.354889
      5 H                     0.249135
      6 C                    -0.252745
      7 H                     0.233205
      8 C                    -0.238109
      9 H                     0.233111
     10 C                    -0.340912
     11 H                     0.261690
     12 C                     0.336917
     13 C                    -0.340146
     14 H                     0.261522
     15 C                    -0.238115
     16 H                     0.233082
     17 C                    -0.252803
     18 H                     0.233240
     19 C                    -0.354929
     20 H                     0.249185
     21 C                     0.339066
     22 C                     0.242304
     23 C                    -0.320024
     24 H                     0.239698
     25 C                     0.165127
     26 C                    -0.316010
     27 H                     0.241271
     28 C                     0.164854
     29 C                    -0.355173
     30 C                    -0.503699
     31 H                     0.232943
     32 H                     0.236093
     33 C                    -0.642479
     34 C                    -0.503428
     35 H                     0.236270
     36 H                     0.232563
     37 C                    -0.642380
     38 H                     0.222325
     39 H                     0.225501
     40 H                     0.226015
     41 H                     0.220274
     42 H                     0.225852
     43 H                     0.225770
     44 H                     0.222148
     45 O                    -0.496099
  ----------------------------------------
  Sum of atomic charges =    -0.000000

                    Cartesian Multipole Moments
 -----------------------------------------------------------------
    Charge (ESU x 10^10)
                -0.0000
    Dipole Moment (Debye)
         X      -2.2853      Y      -2.3721      Z      -1.2059
       Tot       3.5077
    Quadrupole Moments (Debye-Ang)
        XX    -135.1653     XY       2.9649     YY    -128.0909
        XZ       4.4552     YZ      10.0141     ZZ    -131.1654

 Total job time:  2274.92s(wall), 8561.46s(cpu)
        *  Thank you very much for using Q-Chem.  Have a nice day.  *
