 Q-Chem 5.1, Q-Chem, Inc., Pleasanton, CA (2018)
 Q-Chem 5.1.1 for Intel X86 EM64T Linux

User input:
--------------------------------------------------------------
$rem
threads 4
jobtype	opt
method PBEh-3c
basis def2-mSVP
mem_static	1024
mem_total	3000
sym_ignore	true
scf_convergence	9
solvent_method	pcm
$end

$molecule
read DiEt_OMe.mol
$end

$solvent
dielectric	2.38
$end

$pcm
theory iefpcm
$end

--------------------------------------------------------------

   16    -502.9267817706      3.67e-10  Convergence criterion met
 Total energy in the final basis set =     -502.9267817706
   14    -502.9345564103      8.91e-10  Convergence criterion met
 Total energy in the final basis set =     -502.9345564103
   14    -502.9349080437      7.69e-10  Convergence criterion met
 Total energy in the final basis set =     -502.9349080437
   13    -502.9349641642      6.93e-10  Convergence criterion met
 Total energy in the final basis set =     -502.9349641642
   13    -502.9349751180      7.61e-10  Convergence criterion met
 Total energy in the final basis set =     -502.9349751180
   13    -502.9349778735      7.47e-10  Convergence criterion met
 Total energy in the final basis set =     -502.9349778735
   13    -502.9349807885      7.45e-10  Convergence criterion met
 Total energy in the final basis set =     -502.9349807885
   13    -502.9349819616      7.39e-10  Convergence criterion met
 Total energy in the final basis set =     -502.9349819616

             Standard Nuclear Orientation (Angstroms)
    I     Atom           X                Y                Z
 ----------------------------------------------------------------
    1      H       2.1976258688    -3.1148607523     1.3443501032
    2      C       0.4313148267    -3.8387349747     4.1319002468
    3      C       1.5041976169    -3.4486089537     3.3487270860
    4      C       1.3592547916    -3.4198333790     1.9619927009
    5      C       0.1603709201    -3.7728792746     1.3627480504
    6      C      -0.9158678170    -4.1605993403     2.1605978789
    7      C      -0.7825500804    -4.1949355532     3.5431597778
    8      C       2.7899830879    -3.0014242450     3.9865731214
    9      C       0.0203410661    -3.7899626409    -0.1351464217
   10      O      -1.7681967953    -4.5545556736     4.3907982467
   11      C      -3.0189705474    -4.9113997800     3.8553896674
   12      H       0.5211473857    -3.8678720359     5.2118526759
   13      H      -1.8486671993    -4.4298007967     1.6802376153
   14      H       3.6351632003    -3.2982623436     3.3607848727
   15      H       2.9230087037    -3.5074855773     4.9454723381
   16      C       2.8208523626    -1.4895622298     4.1998406278
   17      H       0.7302334341    -3.0883223228    -0.5786761357
   18      H      -0.9754684724    -3.4388685636    -0.4175072249
   19      C       0.2518440471    -5.1823975631    -0.7189580429
   20      H      -3.6595640953    -5.1573919980     4.6994653336
   21      H      -3.4794495391    -4.0904710150     3.2969692775
   22      H      -2.9551332206    -5.7859306159     3.2006175610
   23      H       1.2499869822    -5.5470598532    -0.4751128323
   24      H       0.1525144527    -5.1747677581    -1.8050790489
   25      H      -0.4662692761    -5.9010778492    -0.3226479582
   26      H       2.7298797803    -0.9567828495     3.2526554906
   27      H       3.7535440942    -1.1780991341     4.6716230963
   28      H       1.9971744220    -1.1686529268     4.8381718963
 ----------------------------------------------------------------

   13    -502.9349823102      7.62e-10  Convergence criterion met
 Total energy in the final basis set =     -502.9349823102
 Final energy is   -502.934982310160
 **  OPTIMIZATION CONVERGED  **

                    Orbital Energies (a.u.)
 --------------------------------------------------------------

 Alpha MOs
 -- Occupied --
-19.526 -10.504 -10.485 -10.451 -10.450 -10.437 -10.435 -10.435
-10.431 -10.429 -10.423 -10.422  -1.182  -0.958  -0.890  -0.865
 -0.822  -0.804  -0.775  -0.713  -0.704  -0.654  -0.633  -0.584
 -0.562  -0.545  -0.533  -0.505  -0.500  -0.487  -0.486  -0.461
 -0.454  -0.440  -0.432  -0.420  -0.414  -0.407  -0.400  -0.385
 -0.383  -0.366  -0.359  -0.277  -0.256

          Ground-State Mulliken Net Atomic Charges

     Atom                 Charge (a.u.)
  ----------------------------------------
      1 H                     0.209847
      2 C                    -0.403046
      3 C                     0.180892
      4 C                    -0.386276
      5 C                     0.187179
      6 C                    -0.442174
      7 C                     0.424416
      8 C                    -0.502542
      9 C                    -0.503155
     10 O                    -0.461276
     11 C                    -0.419060
     12 H                     0.231811
     13 H                     0.239288
     14 H                     0.229344
     15 H                     0.230902
     16 C                    -0.641126
     17 H                     0.230601
     18 H                     0.227936
     19 C                    -0.640678
     20 H                     0.247888
     21 H                     0.213140
     22 H                     0.212785
     23 H                     0.225040
     24 H                     0.221036
     25 H                     0.220051
     26 H                     0.221876
     27 H                     0.220705
     28 H                     0.224594
  ----------------------------------------
  Sum of atomic charges =     0.000000

                    Cartesian Multipole Moments
 -----------------------------------------------------------------
    Charge (ESU x 10^10)
                 0.0000
    Dipole Moment (Debye)
         X      -0.9445      Y      -0.2050      Z      -1.0710
       Tot       1.4426
    Quadrupole Moments (Debye-Ang)
        XX     -62.2424     XY       8.4535     YY     -74.1484
        XZ      -1.5991     YZ       3.8166     ZZ     -76.2537

 Total job time:  725.52s(wall), 2728.37s(cpu)
        *  Thank you very much for using Q-Chem.  Have a nice day.  *
