 Q-Chem 5.1, Q-Chem, Inc., Pleasanton, CA (2018)
 Q-Chem 5.1.1 for Intel X86 EM64T Linux

User input:
--------------------------------------------------------------

$molecule
read DiEt_NPh3.mol
$end

$rem
threads 8
jobtype	opt
method PBEh-3c
basis def2-mSVP
mem_static	512
mem_total	6096
sym_ignore	true
$end

--------------------------------------------------------------

   14    -904.9570929811      3.39e-09  Convergence criterion met
 Total energy in the final basis set =     -904.9570929811
   12    -904.9652169249      3.45e-09  Convergence criterion met
 Total energy in the final basis set =     -904.9652169249
   11    -904.9653675624      4.63e-09  Convergence criterion met
 Total energy in the final basis set =     -904.9653675624
   10    -904.9654299348      9.77e-09  Convergence criterion met
 Total energy in the final basis set =     -904.9654299348
   10    -904.9654626704      3.69e-09  Convergence criterion met
 Total energy in the final basis set =     -904.9654626704
    9    -904.9654592548      5.34e-09  Convergence criterion met
 Total energy in the final basis set =     -904.9654592548
    9    -904.9654637631      4.04e-09  Convergence criterion met
 Total energy in the final basis set =     -904.9654637631

             Standard Nuclear Orientation (Angstroms)
    I     Atom           X                Y                Z
 ----------------------------------------------------------------
    1      N      -0.0549060933     0.1883874495     0.0897207842
    2      C      -0.0992884351     0.1675255511     1.4937823275
    3      C       1.0574467586     0.3798830699     2.2422749946
    4      H       1.9981723889     0.5567930880     1.7369298066
    5      C       1.0048759151     0.3639564093     3.6261171598
    6      H       1.9117939224     0.5312049344     4.1925055139
    7      C      -0.1907473095     0.1178768388     4.2849318018
    8      H      -0.2264326486     0.0981764044     5.3658211741
    9      C      -1.3407699680    -0.1019649529     3.5408576248
   10      H      -2.2829293882    -0.2875020470     4.0403261530
   11      C      -1.3026010230    -0.0682244782     2.1573841608
   12      H      -2.2076334738    -0.2275126826     1.5851313090
   13      C       0.7173182180     1.1560902176    -0.5749416160
   14      C       1.4958553717     0.8024103110    -1.6763074859
   15      H       1.5119463689    -0.2264428123    -2.0127672393
   16      C       2.2405147500     1.7614436934    -2.3413300565
   17      H       2.8372935951     1.4705012399    -3.1961727274
   18      C       2.2394920805     3.0801066229    -1.9101368451
   19      H       2.8282755850     3.8253557154    -2.4278023713
   20      C       1.4746544029     3.4311666623    -0.8075279450
   21      H       1.4581311878     4.4572304270    -0.4637520468
   22      C       0.7108079751     2.4825315826    -0.1481310322
   23      H       0.1041669978     2.7684579557     0.7014167029
   24      C      -0.7820120809    -0.7569011986    -0.6559071230
   25      C      -0.8304096647    -2.0879979867    -0.2502144527
   26      H      -0.3004674963    -2.3952834106     0.6437938918
   27      C      -1.5501072976    -3.0255333592    -0.9788119810
   28      C      -1.4561368998    -0.3720561764    -1.8124787678
   29      H      -1.4269468380     0.6636662677    -2.1298040701
   30      C      -2.1592606137    -1.3017314511    -2.5660772515
   31      C      -2.2053316676    -2.6227154672    -2.1360239782
   32      C      -2.8235438966    -0.8951646928    -3.8523239173
   33      H      -3.1329490213     0.1510516072    -3.7966273749
   34      H      -3.7370929999    -1.4774435444    -3.9964731789
   35      C      -1.9021476520    -1.0895441228    -5.0546505502
   36      C      -1.6502530772    -4.4476082581    -0.5000499207
   37      H      -0.7371873583    -4.7255685919     0.0313892658
   38      H      -1.7223369861    -5.1213266116    -1.3573512480
   39      C      -2.8554802402    -4.6554823520     0.4144417952
   40      H      -3.7853882755    -4.4158946813    -0.1021231930
   41      H      -2.9182543419    -5.6890158369     0.7567168052
   42      H      -2.7936457068    -4.0137566044     1.2938059328
   43      H      -2.7612983601    -3.3530575934    -2.7155688488
   44      H      -2.3967430962    -0.7969824128    -5.9815816791
   45      H      -1.5977120533    -2.1320525247    -5.1518005599
   46      H      -0.9963315545    -0.4909521977    -4.9545097431
 ----------------------------------------------------------------

    8    -904.9654649765      4.93e-09  Convergence criterion met
 Total energy in the final basis set =     -904.9654649765
 Final energy is   -904.965464976485
 **  OPTIMIZATION CONVERGED  **

                    Orbital Energies (a.u.)
 --------------------------------------------------------------

 Alpha MOs
 -- Occupied --
-14.668 -10.489 -10.488 -10.485 -10.450 -10.450 -10.447 -10.447
-10.447 -10.446 -10.443 -10.443 -10.443 -10.443 -10.442 -10.441
-10.438 -10.438 -10.435 -10.435 -10.433 -10.425 -10.425  -1.078
 -0.962  -0.959  -0.940  -0.892  -0.868  -0.850  -0.839  -0.836
 -0.824  -0.803  -0.792  -0.719  -0.711  -0.701  -0.698  -0.680
 -0.673  -0.638  -0.635  -0.605  -0.586  -0.565  -0.554  -0.544
 -0.541  -0.522  -0.512  -0.504  -0.499  -0.496  -0.490  -0.486
 -0.483  -0.481  -0.470  -0.454  -0.443  -0.432  -0.430  -0.426
 -0.424  -0.418  -0.411  -0.405  -0.405  -0.399  -0.397  -0.390
 -0.384  -0.372  -0.353  -0.302  -0.298  -0.297  -0.287  -0.275
 -0.220

          Ground-State Mulliken Net Atomic Charges

     Atom                 Charge (a.u.)
  ----------------------------------------
      1 N                    -0.674452
      2 C                     0.292538
      3 C                    -0.278354
      4 H                     0.245118
      5 C                    -0.214551
      6 H                     0.220249
      7 C                    -0.237321
      8 H                     0.217472
      9 C                    -0.214732
     10 H                     0.219808
     11 C                    -0.277678
     12 H                     0.246039
     13 C                     0.286944
     14 C                    -0.274825
     15 H                     0.245589
     16 C                    -0.214965
     17 H                     0.220039
     18 C                    -0.236703
     19 H                     0.217823
     20 C                    -0.215064
     21 H                     0.220416
     22 C                    -0.275417
     23 H                     0.244850
     24 C                     0.336342
     25 C                    -0.366493
     26 H                     0.235283
     27 C                     0.191128
     28 C                    -0.367374
     29 H                     0.235179
     30 C                     0.191446
     31 C                    -0.369522
     32 C                    -0.500612
     33 H                     0.226862
     34 H                     0.223958
     35 C                    -0.632727
     36 C                    -0.500775
     37 H                     0.226978
     38 H                     0.223922
     39 C                    -0.632625
     40 H                     0.219630
     41 H                     0.216811
     42 H                     0.222772
     43 H                     0.197838
     44 H                     0.216748
     45 H                     0.219430
     46 H                     0.222979
  ----------------------------------------
  Sum of atomic charges =    -0.000000

                    Cartesian Multipole Moments
 -----------------------------------------------------------------
    Charge (ESU x 10^10)
                -0.0000
    Dipole Moment (Debye)
         X      -0.2089      Y      -0.2848      Z      -0.2762
       Tot       0.4484
    Quadrupole Moments (Debye-Ang)
        XX    -132.1952     XY       4.8027     YY    -129.3280
        XZ       0.3716     YZ       0.2252     ZZ    -126.3432

 Total job time:  624.76s(wall), 4940.26s(cpu)
        *  Thank you very much for using Q-Chem.  Have a nice day.  *
