 Q-Chem 5.1, Q-Chem, Inc., Pleasanton, CA (2018)
 Q-Chem 5.1.1 for Intel X86 EM64T Linux

User input:
--------------------------------------------------------------
$rem
threads 4
jobtype	opt
method PBEh-3c
basis def2-mSVP
mem_static	1024
mem_total	3000
sym_ignore	true
scf_convergence	9
solvent_method	pcm
$end

$molecule
read DiEt_ACR.mol
$end

$solvent
dielectric	2.38
$end

$pcm
theory iefpcm
$end

--------------------------------------------------------------

   16   -1021.4620332671      5.06e-10  Convergence criterion met
 Total energy in the final basis set =    -1021.4620332671
   14   -1021.4743060376      6.90e-10  Convergence criterion met
 Total energy in the final basis set =    -1021.4743060376
   14   -1021.4747416241      2.83e-10  Convergence criterion met
 Total energy in the final basis set =    -1021.4747416241
   13   -1021.4748032034      7.68e-10  Convergence criterion met
 Total energy in the final basis set =    -1021.4748032034
   13   -1021.4748164485      9.28e-10  Convergence criterion met
 Total energy in the final basis set =    -1021.4748164485
   13   -1021.4748348399      9.34e-10  Convergence criterion met
 Total energy in the final basis set =    -1021.4748348399
   13   -1021.4748434707      9.14e-10  Convergence criterion met
 Total energy in the final basis set =    -1021.4748434707
   13   -1021.4748466194      9.00e-10  Convergence criterion met
 Total energy in the final basis set =    -1021.4748466194
   13   -1021.4748480371      8.98e-10  Convergence criterion met
 Total energy in the final basis set =    -1021.4748480371

             Standard Nuclear Orientation (Angstroms)
    I     Atom           X                Y                Z
 ----------------------------------------------------------------
    1      H      -5.1353717061    -6.0668614981    -5.1486961660
    2      C      -5.8080162565    -6.4783376231    -5.8945129476
    3      C      -6.1363047377    -5.7098700242    -7.0069835252
    4      C      -7.0052010418    -6.2455913663    -7.9514558597
    5      H      -7.2899038070    -5.6705535500    -8.8255135335
    6      C      -7.5167010670    -7.5226554393    -7.7857121782
    7      C      -7.1730121586    -8.2791616344    -6.6766535072
    8      H      -7.5865197101    -9.2756095338    -6.5669102767
    9      C      -6.3163693314    -7.7610254908    -5.7124263655
   10      N      -8.4158605300    -8.0567474999    -8.7496716951
   11      C      -9.7815473747    -7.8796925793    -8.5623564586
   12      C     -10.7020368398    -8.3995104132    -9.4790293478
   13      C     -10.2839532087    -9.1744251384   -10.7172216932
   14      C     -12.0573871609    -8.1908055646    -9.2424555780
   15      H     -12.7780919951    -8.5889845014    -9.9462928878
   16      C     -12.5250064305    -7.4933038182    -8.1437633763
   17      H     -13.5871730201    -7.3521189210    -7.9959444682
   18      C     -11.6041282490    -6.9825589843    -7.2432492104
   19      H     -11.9340939656    -6.4309587850    -6.3724188826
   20      C     -10.2510566236    -7.1720650294    -7.4478744796
   21      H      -9.5537516245    -6.7630153374    -6.7311962872
   22      C      -7.9122077067    -8.7602335882    -9.8377104756
   23      C      -8.7723978550    -9.3063657778   -10.7970465121
   24      C      -8.2110662750    -9.9972686988   -11.8666888681
   25      H      -8.8665287037   -10.4240835466   -12.6162817472
   26      C      -6.8458965622   -10.1635460598   -12.0138711280
   27      H      -6.4490796266   -10.7074760398   -12.8604343459
   28      C      -6.0046719716    -9.6201527245   -11.0563015518
   29      H      -4.9314102051    -9.7322547793   -11.1394334178
   30      C      -6.5290693511    -8.9274006584    -9.9822534134
   31      H      -5.8536503274    -8.5112095107    -9.2486525654
   32      C      -6.0012538846    -8.5570872544    -4.4770232180
   33      H      -5.8517952239    -9.6060446706    -4.7439084278
   34      H      -5.0602677159    -8.2112484089    -4.0437322481
   35      C      -7.1149281994    -8.4519675748    -3.4369489226
   36      C      -5.5319483571    -4.3513386470    -7.2245021196
   37      H      -6.2912924339    -3.6703477858    -7.6165280914
   38      H      -5.2055137449    -3.9340949322    -6.2695544915
   39      C      -4.3504115048    -4.4057974092    -8.1910617559
   40      H      -3.5655652962    -5.0619852384    -7.8135090365
   41      H      -4.6568440328    -4.7861339561    -9.1662815864
   42      H      -3.9190953969    -3.4154217362    -8.3395158689
   43      H      -7.2687745550    -7.4168359856    -3.1306790763
   44      H      -6.8766077013    -9.0345953663    -2.5465847752
   45      H      -8.0605907921    -8.8217505918    -3.8351354285
   46      C     -10.7918260217    -8.4347004920   -11.9679825171
   47      C     -10.9107174939   -10.5787742561   -10.6662700677
   48      H     -10.3617664326    -7.4351571301   -12.0321421006
   49      H     -11.8778367724    -8.3330611744   -11.9537313055
   50      H     -10.5294529032    -8.9724015553   -12.8799727834
   51      H     -10.5681574832   -11.1267348074    -9.7886213981
   52      H     -10.6506873140   -11.1632227771   -11.5496446911
   53      H     -11.9992013169   -10.5248541345   -10.6248573400
 ----------------------------------------------------------------

   13   -1021.4748481286      9.03e-10  Convergence criterion met
 Total energy in the final basis set =    -1021.4748481286
 Final energy is   -1021.47484812857
 **  OPTIMIZATION CONVERGED  **

                    Orbital Energies (a.u.)
 --------------------------------------------------------------

 Alpha MOs
 -- Occupied --
-14.675 -10.491 -10.491 -10.487 -10.466 -10.459 -10.458 -10.449
-10.449 -10.446 -10.446 -10.446 -10.441 -10.441 -10.441 -10.441
-10.441 -10.441 -10.437 -10.437 -10.434 -10.434 -10.426 -10.426
-10.422 -10.422  -1.087  -0.974  -0.956  -0.952  -0.906  -0.897
 -0.871  -0.849  -0.833  -0.828  -0.813  -0.809  -0.791  -0.766
 -0.722  -0.721  -0.709  -0.706  -0.690  -0.667  -0.639  -0.639
 -0.614  -0.613  -0.587  -0.562  -0.561  -0.534  -0.530  -0.521
 -0.520  -0.506  -0.502  -0.496  -0.491  -0.491  -0.482  -0.477
 -0.476  -0.475  -0.459  -0.449  -0.445  -0.445  -0.435  -0.431
 -0.427  -0.424  -0.421  -0.413  -0.406  -0.405  -0.399  -0.393
 -0.390  -0.390  -0.379  -0.370  -0.367  -0.363  -0.298  -0.292
 -0.287  -0.281  -0.280  -0.221

          Ground-State Mulliken Net Atomic Charges

     Atom                 Charge (a.u.)
  ----------------------------------------
      1 H                     0.218853
      2 C                    -0.366043
      3 C                     0.162123
      4 C                    -0.305673
      5 H                     0.238867
      6 C                     0.210626
      7 C                    -0.303842
      8 H                     0.239221
      9 C                     0.161824
     10 N                    -0.719451
     11 C                     0.309847
     12 C                     0.135823
     13 C                    -0.205365
     14 C                    -0.303295
     15 H                     0.221700
     16 C                    -0.245808
     17 H                     0.224917
     18 C                    -0.245948
     19 H                     0.229978
     20 C                    -0.317612
     21 H                     0.259978
     22 C                     0.313025
     23 C                     0.135302
     24 C                    -0.303690
     25 H                     0.221879
     26 C                    -0.245644
     27 H                     0.225022
     28 C                    -0.245889
     29 H                     0.230121
     30 C                    -0.320203
     31 H                     0.259621
     32 C                    -0.502459
     33 H                     0.235910
     34 H                     0.231427
     35 C                    -0.643543
     36 C                    -0.502619
     37 H                     0.235922
     38 H                     0.231406
     39 C                    -0.643523
     40 H                     0.223610
     41 H                     0.225342
     42 H                     0.224939
     43 H                     0.223399
     44 H                     0.224847
     45 H                     0.225641
     46 C                    -0.607934
     47 C                    -0.609076
     48 H                     0.234640
     49 H                     0.221723
     50 H                     0.221621
     51 H                     0.234740
     52 H                     0.221886
     53 H                     0.221838
  ----------------------------------------
  Sum of atomic charges =     0.000000

                    Cartesian Multipole Moments
 -----------------------------------------------------------------
    Charge (ESU x 10^10)
                 0.0000
    Dipole Moment (Debye)
         X       1.2112      Y       0.7395      Z       1.3339
       Tot       1.9476
    Quadrupole Moments (Debye-Ang)
        XX    -164.1883     XY     -11.0492     YY    -162.2775
        XZ     -14.0013     YZ     -11.5278     ZZ    -166.0311

 Total job time:  5181.20s(wall), 19271.70s(cpu)
        *  Thank you very much for using Q-Chem.  Have a nice day.  *
