 Q-Chem 5.1, Q-Chem, Inc., Pleasanton, CA (2018)
 Q-Chem 5.1.1 for Intel X86 EM64T Linux

User input:
--------------------------------------------------------------
$rem
threads 4
jobtype opt
method PBEh-3c
basis def2-mSVP
mem_static      1024
mem_total       4000
sym_ignore      true
unrestricted true
scf_algorithm	diis
scf_max_cycles	250
solvent_method  pcm
geom_opt_tol_energy 25
geom_opt_tol_gradient 75
$end

$pcm
theory  iefpcm
$end

$solvent
dielectric      2.38
$end

$molecule
read DiEt_OMe_kat.mol
$end
--------------------------------------------------------------

   22    -502.6732001036      6.37e-09  Convergence criterion met
 Total energy in the final basis set =     -502.6732001036
   17    -502.6881972145      7.37e-09  Convergence criterion met
 Total energy in the final basis set =     -502.6881972145
   16    -502.6893683758      7.67e-09  Convergence criterion met
 Total energy in the final basis set =     -502.6893683758
   15    -502.6896198902      9.28e-09  Convergence criterion met
 Total energy in the final basis set =     -502.6896198902
   15    -502.6897235469      7.27e-09  Convergence criterion met
 Total energy in the final basis set =     -502.6897235469
   15    -502.6899226899      5.37e-09  Convergence criterion met
 Total energy in the final basis set =     -502.6899226899
   14    -502.6900242292      8.90e-09  Convergence criterion met
 Total energy in the final basis set =     -502.6900242292
   15    -502.6900648244      7.37e-09  Convergence criterion met
   15    -502.6900910820      6.70e-09  Convergence criterion met
 Total energy in the final basis set =     -502.6900910820
   15    -502.6900956686      6.70e-09  Convergence criterion met
 Total energy in the final basis set =     -502.6900956686
   15    -502.6900970829      6.76e-09  Convergence criterion met
 Total energy in the final basis set =     -502.6900970829
   15    -502.6900977369      6.90e-09  Convergence criterion met
 Total energy in the final basis set =     -502.6900977369
   15    -502.6900969946      6.83e-09  Convergence criterion met
 Total energy in the final basis set =     -502.6900969946
   15    -502.6900963205      6.68e-09  Convergence criterion met
 Total energy in the final basis set =     -502.6900963205

             Standard Nuclear Orientation (Angstroms)
    I     Atom           X                Y                Z
 ----------------------------------------------------------------
    1      H       2.0811191919    -3.1593729713     1.4029074708
    2      C       0.3603648629    -3.8778957974     4.1947667558
    3      C       1.4233239079    -3.4934149174     3.4282566344
    4      C       1.2455749169    -3.4579330641     2.0270766962
    5      C       0.0152042787    -3.7935930790     1.3912189736
    6      C      -1.0429054655    -4.1725559532     2.1672418786
    7      C      -0.8845013743    -4.2197095620     3.5765516513
    8      C       2.7346635850    -3.0797903291     4.0212221739
    9      C      -0.0702401004    -3.7607608203    -0.1010211715
   10      O      -1.8218316762    -4.5597600279     4.3979048220
   11      C      -3.1391505798    -4.9209864689     3.9542598598
   12      H       0.4271144384    -3.9319715936     5.2743685291
   13      H      -1.9877252696    -4.4286537178     1.7064388320
   14      H       3.5433760912    -3.5941766829     3.4967042796
   15      H       2.7829301424    -3.4012907737     5.0619826757
   16      C       2.9389462397    -1.5679995525     3.9306545690
   17      H       0.4186927268    -2.8563861139    -0.4706656158
   18      H      -1.1146969698    -3.7043485740    -0.4095671344
   19      C       0.5901708950    -4.9931091091    -0.7231213575
   20      H      -3.6972727205    -5.1484542908     4.8554361665
   21      H      -3.6058964311    -4.0874774613     3.4306740184
   22      H      -3.0975795114    -5.8004778665     3.3130873134
   23      H       1.6453075724    -5.0652689360    -0.4583455920
   24      H       0.5252591204    -4.9421210743    -1.8087526076
   25      H       0.0988534456    -5.9095996400    -0.3980424129
   26      H       2.9304248213    -1.2211371057     2.8967018038
   27      H       3.8993366638    -1.2910430306     4.3622843391
   28      H       2.1594371982    -1.0313114866     4.4705764490
 ----------------------------------------------------------------

   15    -502.6900962241      8.35e-09  Convergence criterion met
 Total energy in the final basis set =     -502.6900962241
 Final energy is   -502.690096224085
 **  OPTIMIZATION CONVERGED  **

                    Orbital Energies (a.u.)
 --------------------------------------------------------------

 Alpha MOs
 -- Occupied --
-19.673 -10.651 -10.575 -10.573 -10.568 -10.557 -10.556 -10.552
-10.512 -10.507 -10.485 -10.481  -1.331  -1.075  -0.989  -0.971
 -0.914  -0.899  -0.882  -0.804  -0.789  -0.752  -0.726  -0.688
 -0.674  -0.660  -0.658  -0.590  -0.585  -0.580  -0.561  -0.558
 -0.541  -0.534  -0.527  -0.515  -0.500  -0.497  -0.474  -0.468
 -0.458  -0.455  -0.451  -0.391  -0.384

 Beta MOs
 -- Occupied --
-19.666 -10.649 -10.573 -10.569 -10.566 -10.559 -10.552 -10.550
-10.512 -10.507 -10.485 -10.481  -1.317  -1.065  -0.988  -0.961
 -0.912  -0.894  -0.870  -0.800  -0.786  -0.748  -0.725  -0.684
 -0.670  -0.654  -0.629  -0.587  -0.583  -0.578  -0.559  -0.551
 -0.533  -0.531  -0.521  -0.506  -0.500  -0.491  -0.473  -0.458
 -0.454  -0.453  -0.435  -0.383

          Ground-State Mulliken Net Atomic Charges

     Atom                 Charge (a.u.)    Spin (a.u.)
  --------------------------------------------------------
      1 H                     0.292378      -0.031322
      2 C                    -0.361910       0.249078
      3 C                     0.209466      -0.188412
      4 C                    -0.276233       0.576469
      5 C                     0.221987      -0.077732
      6 C                    -0.411255       0.118705
      7 C                     0.505246       0.167206
      8 C                    -0.510504       0.012360
      9 C                    -0.514143       0.005402
     10 O                    -0.360287       0.189737
     11 C                    -0.452937      -0.017101
     12 H                     0.306818      -0.014454
     13 H                     0.303761      -0.008156
     14 H                     0.263143      -0.003193
     15 H                     0.263324      -0.001437
     16 C                    -0.650677      -0.003148
     17 H                     0.267195      -0.000088
     18 H                     0.263016      -0.001212
     19 C                    -0.650170       0.002360
     20 H                     0.301448       0.000051
     21 H                     0.268476       0.011659
     22 H                     0.268315       0.011656
     23 H                     0.233223      -0.000191
     24 H                     0.260228       0.001250
     25 H                     0.237465       0.000076
     26 H                     0.226965       0.000134
     27 H                     0.257947       0.000180
     28 H                     0.237714       0.000122
  --------------------------------------------------------
  Sum of atomic charges =     1.000000

                    Cartesian Multipole Moments
 -----------------------------------------------------------------
    Charge (ESU x 10^10)
                 4.8032
    Dipole Moment (Debye)
         X      -1.8515      Y     -19.2441      Z      12.8314
       Tot      23.2036
    Quadrupole Moments (Debye-Ang)
        XX     -41.2196     XY      17.6711     YY       8.8171
        XZ      -7.6530     YZ     -51.7409     ZZ     -19.0583

 Total job time:  1341.69s(wall), 5071.56s(cpu)
        *  Thank you very much for using Q-Chem.  Have a nice day.  *
