 Q-Chem 5.1, Q-Chem, Inc., Pleasanton, CA (2018)
 Q-Chem 5.1.1 for Intel X86 EM64T Linux

User input:
--------------------------------------------------------------

$molecule
read DiEt_PXZ.mol
$end

$rem
threads 8
jobtype	opt
method PBEh-3c
basis def2-mSVP
mem_static	512
mem_total	6096
sym_ignore	true
$end

--------------------------------------------------------------

   15    -978.8266649629      5.44e-09  Convergence criterion met
 Total energy in the final basis set =     -978.8266649629
   12    -978.8366282586      7.50e-09  Convergence criterion met
 Total energy in the final basis set =     -978.8366282586
   11    -978.8370797918      5.87e-09  Convergence criterion met
 Total energy in the final basis set =     -978.8370797918
   10    -978.8371298591      8.81e-09  Convergence criterion met
 Total energy in the final basis set =     -978.8371298591
   10    -978.8371403737      9.91e-09  Convergence criterion met
 Total energy in the final basis set =     -978.8371403737
   11    -978.8371409894      3.33e-09  Convergence criterion met
 Total energy in the final basis set =     -978.8371409894

             Standard Nuclear Orientation (Angstroms)
    I     Atom           X                Y                Z
 ----------------------------------------------------------------
    1      N       1.3361581661    -0.2407913412    -2.1320383490
    2      C       0.8856405890     0.9092329293    -1.4880023103
    3      C       1.8190868631     1.8669816428    -1.0803880621
    4      C       1.4158977024     3.0203357459    -0.4419081258
    5      H       2.1668825384     3.7401502734    -0.1436296249
    6      C       0.0681160936     3.2421718196    -0.1821859862
    7      H      -0.2403576016     4.1467795714     0.3231900604
    8      C      -0.8628327866     2.3000938962    -0.5739586031
    9      H      -1.9153934259     2.4547054265    -0.3786007879
   10      C      -0.4581031892     1.1414007742    -1.2251069566
   11      H      -1.1967331671     0.4115392180    -1.5270861008
   12      C       2.6790780997    -0.3416439793    -2.4883579860
   13      C       3.1761340809    -1.3871717004    -3.2553429858
   14      H       2.5068572202    -2.1635148077    -3.6001783452
   15      C       4.5254484447    -1.4487392701    -3.5811738751
   16      H       4.8862649813    -2.2766389308    -4.1764105972
   17      C       5.3934510455    -0.4646344894    -3.1504073406
   18      H       6.4442421514    -0.5052557160    -3.4013880541
   19      C       4.9052773118     0.5887780668    -2.3859454730
   20      H       5.5621010860     1.3734829616    -2.0338008185
   21      C       3.5683949744     0.6460144965    -2.0555080420
   22      C       0.4109673399    -1.2225884477    -2.5687705283
   23      C       0.1348166424    -2.3127872197    -1.7580058218
   24      H       0.6273034484    -2.3941744761    -0.7960645024
   25      C      -0.7601779138    -3.2910322579    -2.1772172554
   26      C      -0.2064665146    -1.0939469746    -3.8049175953
   27      H       0.0221495962    -0.2348234981    -4.4253910414
   28      C      -1.1068917656    -2.0571372436    -4.2440556271
   29      C      -1.3685220239    -3.1450815092    -3.4184158589
   30      C      -1.7379649772    -1.9600429241    -5.6053513279
   31      H      -2.7506072822    -2.3690865925    -5.5730207693
   32      H      -1.8413092286    -0.9106086646    -5.8901839488
   33      C      -0.9234212145    -2.6987347823    -6.6652737328
   34      C      -1.1019076897    -4.4547430827    -1.2889922657
   35      H      -0.2391723283    -4.7132447329    -0.6708723796
   36      H      -1.3137005924    -5.3341620192    -1.9019359061
   37      C      -2.3018684802    -4.1569481344    -0.3928863768
   38      H      -3.1855009074    -3.9190222406    -0.9857738220
   39      H      -2.5421677041    -5.0126141015     0.2387209250
   40      H      -2.1039830273    -3.3050762739     0.2582308855
   41      H      -2.0670672179    -3.9051834507    -3.7551769962
   42      H       0.0852584522    -2.2915512767    -6.7391593769
   43      H      -1.3904399263    -2.6179481399    -7.6472575341
   44      H      -0.8328533529    -3.7582536215    -6.4238427816
   45      O       3.1549154897     1.6894150769    -1.2819579985
 ----------------------------------------------------------------

    9    -978.8371416786      7.46e-09  Convergence criterion met
 Total energy in the final basis set =     -978.8371416786
 Final energy is   -978.837141678550
 **  OPTIMIZATION CONVERGED  **

                    Orbital Energies (a.u.)
 --------------------------------------------------------------

 Alpha MOs
 -- Occupied --
-19.542 -14.679 -10.508 -10.508 -10.495 -10.495 -10.493 -10.463
-10.463 -10.452 -10.451 -10.451 -10.448 -10.448 -10.443 -10.443
-10.443 -10.442 -10.441 -10.441 -10.439 -10.439 -10.433 -10.433
 -1.209  -1.086  -0.974  -0.970  -0.937  -0.903  -0.879  -0.860
 -0.851  -0.834  -0.822  -0.816  -0.791  -0.731  -0.729  -0.726
 -0.715  -0.677  -0.661  -0.647  -0.646  -0.636  -0.593  -0.571
 -0.567  -0.563  -0.539  -0.534  -0.533  -0.525  -0.512  -0.505
 -0.497  -0.496  -0.493  -0.492  -0.484  -0.464  -0.452  -0.449
 -0.442  -0.435  -0.431  -0.430  -0.430  -0.415  -0.414  -0.411
 -0.400  -0.400  -0.399  -0.386  -0.382  -0.369  -0.303  -0.298
 -0.297  -0.287  -0.268  -0.209

          Ground-State Mulliken Net Atomic Charges

     Atom                 Charge (a.u.)
  ----------------------------------------
      1 N                    -0.715787
      2 C                     0.336525
      3 C                     0.346214
      4 C                    -0.342991
      5 H                     0.235324
      6 C                    -0.236198
      7 H                     0.217193
      8 C                    -0.223049
      9 H                     0.216788
     10 C                    -0.330072
     11 H                     0.250516
     12 C                     0.337450
     13 C                    -0.329150
     14 H                     0.250297
     15 C                    -0.223181
     16 H                     0.216752
     17 C                    -0.236215
     18 H                     0.217224
     19 C                    -0.343019
     20 H                     0.235435
     21 C                     0.345436
     22 C                     0.245132
     23 C                    -0.312471
     24 H                     0.227618
     25 C                     0.175976
     26 C                    -0.308716
     27 H                     0.229398
     28 C                     0.175602
     29 C                    -0.348280
     30 C                    -0.502564
     31 H                     0.227370
     32 H                     0.231179
     33 C                    -0.633574
     34 C                    -0.502304
     35 H                     0.231339
     36 H                     0.226959
     37 C                    -0.633420
     38 H                     0.220080
     39 H                     0.221242
     40 H                     0.224593
     41 H                     0.205419
     42 H                     0.224608
     43 H                     0.221501
     44 H                     0.219700
     45 O                    -0.491880
  ----------------------------------------
  Sum of atomic charges =     0.000000

                    Cartesian Multipole Moments
 -----------------------------------------------------------------
    Charge (ESU x 10^10)
                 0.0000
    Dipole Moment (Debye)
         X      -2.0190      Y      -2.0954      Z      -1.0663
       Tot       3.0991
    Quadrupole Moments (Debye-Ang)
        XX    -135.9649     XY       2.9593     YY    -129.6153
        XZ       4.0365     YZ       8.9514     ZZ    -132.6268

 Total job time:  553.34s(wall), 4400.32s(cpu)
        *  Thank you very much for using Q-Chem.  Have a nice day.  *
