 Q-Chem 5.1, Q-Chem, Inc., Pleasanton, CA (2018)
 Q-Chem 5.1.1 for Intel X86 EM64T Linux

User input:
--------------------------------------------------------------
$rem
threads 4
jobtype opt
method PBEh-3c
basis def2-mSVP
mem_static      1024
mem_total       4000
sym_ignore      true
unrestricted true
scf_algorithm	diis
scf_max_cycles	250
solvent_method  pcm
geom_opt_tol_energy 25
geom_opt_tol_gradient 75
$end

$pcm
theory  iefpcm
$end

$solvent
dielectric      2.38
$end

$molecule
read DiEt_ACR_kat.mol
$end
--------------------------------------------------------------

   20   -1021.2473898901      6.63e-09  Convergence criterion met
 Total energy in the final basis set =    -1021.2473898901
   15   -1021.2632557714      7.78e-09  Convergence criterion met
 Total energy in the final basis set =    -1021.2632557714
   14   -1021.2639333037      8.81e-09  Convergence criterion met
 Total energy in the final basis set =    -1021.2639333037
   14   -1021.2640462959      5.17e-09  Convergence criterion met
 Total energy in the final basis set =    -1021.2640462959
   12   -1021.2640762459      7.81e-09  Convergence criterion met
 Total energy in the final basis set =    -1021.2640762459
   12   -1021.2640968763      9.24e-09  Convergence criterion met
 Total energy in the final basis set =    -1021.2640968763
   11   -1021.2641167534      8.52e-09  Convergence criterion met
 Total energy in the final basis set =    -1021.2641167534
   11   -1021.2641245218      7.46e-09  Convergence criterion met
   11   -1021.2641335551      8.53e-09  Convergence criterion met
 Total energy in the final basis set =    -1021.2641335551
   11   -1021.2641419475      8.63e-09  Convergence criterion met
 Total energy in the final basis set =    -1021.2641419475
   11   -1021.2641560154      8.27e-09  Convergence criterion met
 Total energy in the final basis set =    -1021.2641560154
   11   -1021.2641610064      8.54e-09  Convergence criterion met
 Total energy in the final basis set =    -1021.2641610064
   11   -1021.2641556919      8.30e-09  Convergence criterion met
 Total energy in the final basis set =    -1021.2641556919
   11   -1021.2641576945      8.44e-09  Convergence criterion met
 Total energy in the final basis set =    -1021.2641576945

             Standard Nuclear Orientation (Angstroms)
    I     Atom           X                Y                Z
 ----------------------------------------------------------------
    1      H      -5.1658822939    -6.0648219511    -5.1796112665
    2      C      -5.8329259045    -6.4799186899    -5.9275644897
    3      C      -6.1642531319    -5.7058479603    -7.0362152281
    4      C      -7.0268401040    -6.2411595415    -7.9867413068
    5      H      -7.3158557758    -5.6662156149    -8.8589942608
    6      C      -7.5165508287    -7.5209208803    -7.8033632899
    7      C      -7.1816981931    -8.2938078341    -6.7082602862
    8      H      -7.5889292937    -9.2926852098    -6.6010689411
    9      C      -6.3261942944    -7.7681401695    -5.7457342882
   10      N      -8.4307926591    -8.0636238521    -8.7749116191
   11      C      -9.7784290821    -7.8710039796    -8.5763611891
   12      C     -10.7084976453    -8.3990824150    -9.4934928663
   13      C     -10.2932850905    -9.1853376905   -10.7110533509
   14      C     -12.0554141003    -8.1796145578    -9.2446536009
   15      H     -12.7948200977    -8.5741783286    -9.9284606128
   16      C     -12.4877187403    -7.4666351195    -8.1399323014
   17      H     -13.5462641671    -7.3151174137    -7.9789047527
   18      C     -11.5590378317    -6.9469348973    -7.2398700996
   19      H     -11.8887889864    -6.3884236856    -6.3752658510
   20      C     -10.2175530293    -7.1440058360    -7.4498555330
   21      H      -9.5061816583    -6.7375193902    -6.7472578695
   22      C      -7.9225081334    -8.7567357487    -9.8492461732
   23      C      -8.7938724370    -9.3092651248   -10.8086449614
   24      C      -8.2277663476    -9.9959184824   -11.8725251722
   25      H      -8.8688591491   -10.4333925477   -12.6261131263
   26      C      -6.8571230187   -10.1417897306   -12.0012590002
   27      H      -6.4518516386   -10.6837925021   -12.8446639592
   28      C      -6.0046861185    -9.5919270645   -11.0453127409
   29      H      -4.9336911616    -9.7025848114   -11.1391754705
   30      C      -6.5260867262    -8.9053506159    -9.9779410622
   31      H      -5.8603979201    -8.4804658976    -9.2418456993
   32      C      -6.0014542327    -8.5646279121    -4.5144609666
   33      H      -5.8447245852    -9.6113196315    -4.7846222716
   34      H      -5.0622265037    -8.2111664117    -4.0854167970
   35      C      -7.1135839536    -8.4669726459    -3.4718850532
   36      C      -5.5664803216    -4.3440751349    -7.2415109729
   37      H      -6.2961187250    -3.6899409056    -7.7236873704
   38      H      -5.3383159548    -3.8940922732    -6.2735797526
   39      C      -4.2982178394    -4.4111148663    -8.0900046485
   40      H      -3.5412912071    -5.0377442539    -7.6178358014
   41      H      -4.5044458121    -4.8267495026    -9.0772024827
   42      H      -3.8720740090    -3.4179835703    -8.2292016168
   43      H      -7.2748394084    -7.4337027482    -3.1641228106
   44      H      -6.8632985907    -9.0462109483    -2.5835499181
   45      H      -8.0576063480    -8.8487242801    -3.8629660969
   46      C     -10.8227389059    -8.4713359027   -11.9728868496
   47      C     -10.9042005055   -10.5996402298   -10.6207556847
   48      H     -10.4086775268    -7.4678597064   -12.0645635847
   49      H     -11.9086652077    -8.3904913547   -11.9445723467
   50      H     -10.5643958338    -9.0287187706   -12.8723603760
   51      H     -10.5514263684   -11.1279916580    -9.7358267705
   52      H     -10.6432359041   -11.1920953131   -11.4968159907
   53      H     -11.9912266977   -10.5486244370   -10.5750714689
 ----------------------------------------------------------------

   12   -1021.2641585203      5.43e-09  Convergence criterion met
 Total energy in the final basis set =    -1021.2641585203
 Final energy is   -1021.26415852032
 **  OPTIMIZATION CONVERGED  **

                    Orbital Energies (a.u.)
 --------------------------------------------------------------

 Alpha MOs
 -- Occupied --
-14.826 -10.583 -10.583 -10.558 -10.545 -10.545 -10.542 -10.527
-10.527 -10.524 -10.524 -10.517 -10.516 -10.516 -10.516 -10.513
-10.513 -10.509 -10.509 -10.498 -10.487 -10.487 -10.482 -10.482
-10.463 -10.463  -1.210  -1.051  -1.045  -1.023  -0.988  -0.946
 -0.939  -0.935  -0.919  -0.896  -0.884  -0.861  -0.861  -0.830
 -0.802  -0.800  -0.772  -0.768  -0.750  -0.748  -0.712  -0.701
 -0.694  -0.691  -0.658  -0.630  -0.624  -0.618  -0.606  -0.603
 -0.593  -0.580  -0.575  -0.564  -0.557  -0.552  -0.547  -0.544
 -0.537  -0.531  -0.521  -0.513  -0.513  -0.509  -0.498  -0.497
 -0.490  -0.488  -0.485  -0.478  -0.471  -0.470  -0.456  -0.453
 -0.448  -0.446  -0.440  -0.434  -0.431  -0.422  -0.381  -0.371
 -0.363  -0.351  -0.339  -0.326

 Beta MOs
 -- Occupied --
-14.814 -10.585 -10.585 -10.559 -10.543 -10.541 -10.541 -10.525
-10.525 -10.521 -10.521 -10.519 -10.518 -10.517 -10.517 -10.513
-10.513 -10.508 -10.508 -10.498 -10.486 -10.486 -10.482 -10.482
-10.463 -10.463  -1.191  -1.046  -1.041  -1.021  -0.985  -0.946
 -0.936  -0.934  -0.916  -0.892  -0.880  -0.860  -0.857  -0.828
 -0.801  -0.795  -0.770  -0.766  -0.748  -0.747  -0.710  -0.699
 -0.691  -0.688  -0.656  -0.623  -0.618  -0.615  -0.604  -0.602
 -0.591  -0.574  -0.565  -0.563  -0.556  -0.552  -0.546  -0.543
 -0.531  -0.526  -0.514  -0.513  -0.508  -0.508  -0.496  -0.496
 -0.489  -0.485  -0.482  -0.477  -0.470  -0.459  -0.452  -0.447
 -0.446  -0.442  -0.438  -0.430  -0.430  -0.422  -0.367  -0.357
 -0.357  -0.351  -0.338

          Ground-State Mulliken Net Atomic Charges

     Atom                 Charge (a.u.)    Spin (a.u.)
  --------------------------------------------------------
      1 H                     0.242439      -0.000229
      2 C                    -0.343325       0.003480
      3 C                     0.156824      -0.002588
      4 C                    -0.290542       0.015864
      5 H                     0.257689      -0.000803
      6 C                     0.151539      -0.031589
      7 C                    -0.286408       0.016033
      8 H                     0.257776      -0.000841
      9 C                     0.157317      -0.002488
     10 N                    -0.609296       0.433664
     11 C                     0.296061      -0.090233
     12 C                     0.192698       0.229538
     13 C                    -0.242834      -0.038164
     14 C                    -0.300242      -0.150083
     15 H                     0.262238       0.007015
     16 C                    -0.198686       0.251725
     17 H                     0.276007      -0.013395
     18 C                    -0.239046      -0.125714
     19 H                     0.275165       0.005642
     20 C                    -0.263257       0.175099
     21 H                     0.305489      -0.009548
     22 C                     0.299431      -0.090012
     23 C                     0.192982       0.229165
     24 C                    -0.300582      -0.150011
     25 H                     0.262604       0.007014
     26 C                    -0.198717       0.251990
     27 H                     0.276122      -0.013416
     28 C                    -0.238859      -0.126033
     29 H                     0.275281       0.005656
     30 C                    -0.266493       0.175364
     31 H                     0.304957      -0.009566
     32 C                    -0.505022       0.001035
     33 H                     0.243050      -0.000091
     34 H                     0.247233       0.000155
     35 C                    -0.644539      -0.000148
     36 C                    -0.505462       0.001018
     37 H                     0.242278      -0.000080
     38 H                     0.247191       0.000133
     39 C                    -0.643882      -0.000148
     40 H                     0.229046       0.000007
     41 H                     0.220579       0.000008
     42 H                     0.240903       0.000013
     43 H                     0.229144       0.000007
     44 H                     0.241152       0.000017
     45 H                     0.219638       0.000006
     46 C                    -0.606662       0.022883
     47 C                    -0.605443       0.023400
     48 H                     0.248503      -0.000814
     49 H                     0.247460       0.000184
     50 H                     0.247449       0.000203
     51 H                     0.247602      -0.000858
     52 H                     0.247897       0.000264
     53 H                     0.247554       0.000268
  --------------------------------------------------------
  Sum of atomic charges =     1.000000

                    Cartesian Multipole Moments
 -----------------------------------------------------------------
    Charge (ESU x 10^10)
                 4.8032
    Dipole Moment (Debye)
         X     -41.5485      Y     -39.3579      Z     -43.0798
       Tot      71.6323
    Quadrupole Moments (Debye-Ang)
        XX     251.0142     XY     344.3170     YY     188.3317
        XZ     380.0197     YZ     370.5105     ZZ     272.1325

 Total job time:  8707.57s(wall), 32229.31s(cpu)
        *  Thank you very much for using Q-Chem.  Have a nice day.  *
