 Q-Chem 5.1, Q-Chem, Inc., Pleasanton, CA (2018)
 Q-Chem 5.1.1 for Intel X86 EM64T Linux

User input:
--------------------------------------------------------------
$rem
threads 4
jobtype opt
method PBEh-3c
basis def2-mSVP
mem_static      1024
mem_total       4000
sym_ignore      true
unrestricted true
scf_algorithm	diis
scf_max_cycles	250
solvent_method  pcm
geom_opt_tol_energy 25
geom_opt_tol_gradient 75
$end

$pcm
theory  iefpcm
$end

$solvent
dielectric      2.38
$end

$molecule
read DiEt_PXZ_kat.mol
$end
--------------------------------------------------------------

   19    -978.6253472310      7.62e-09  Convergence criterion met
 Total energy in the final basis set =     -978.6253472310
   16    -978.6383178059      6.68e-09  Convergence criterion met
 Total energy in the final basis set =     -978.6383178059
   15    -978.6393067782      6.97e-09  Convergence criterion met
 Total energy in the final basis set =     -978.6393067782
   13    -978.6394355441      8.88e-09  Convergence criterion met
 Total energy in the final basis set =     -978.6394355441
   13    -978.6394669849      7.36e-09  Convergence criterion met
 Total energy in the final basis set =     -978.6394669849
   11    -978.6394736480      8.28e-09  Convergence criterion met
 Total energy in the final basis set =     -978.6394736480
   11    -978.6394739049      7.60e-09  Convergence criterion met
 Total energy in the final basis set =     -978.6394739049
   11    -978.6394728845      7.52e-09  Convergence criterion met
 Total energy in the final basis set =     -978.6394728845

             Standard Nuclear Orientation (Angstroms)
    I     Atom           X                Y                Z
 ----------------------------------------------------------------
    1      N       1.3303810233    -0.1777269284    -2.2179022250
    2      C       0.8832171290     0.9216682947    -1.5294636405
    3      C       1.8177616476     1.8929722918    -1.1262759917
    4      C       1.4185353005     3.0244139274    -0.4313065083
    5      H       2.1579264724     3.7560001135    -0.1348256259
    6      C       0.0827854215     3.1892024783    -0.1354949676
    7      H      -0.2392688480     4.0682009028     0.4049214197
    8      C      -0.8584911736     2.2289890993    -0.5279196905
    9      H      -1.9028000716     2.3703725892    -0.2878560675
   10      C      -0.4711628213     1.1061939836    -1.2157136905
   11      H      -1.2021914946     0.3687690546    -1.5150781961
   12      C       2.6631586490    -0.3189274727    -2.5135069808
   13      C       3.1598915912    -1.4184195894    -3.2280411075
   14      H       2.4867121725    -2.1927999022    -3.5671480741
   15      C       4.5042628915    -1.5016107018    -3.4923954409
   16      H       4.8849559316    -2.3496067924    -4.0438079619
   17      C       5.3835239348    -0.5022885369    -3.0567385852
   18      H       6.4394362802    -0.5828390319    -3.2731466715
   19      C       4.9143942323     0.5865455728    -2.3549500131
   20      H       5.5788469204     1.3684877778    -2.0129855743
   21      C       3.5576134348     0.6781611372    -2.0853836408
   22      C       0.3983068572    -1.1889269032    -2.6337147839
   23      C       0.1590255558    -2.2608177370    -1.7919780562
   24      H       0.6620544176    -2.3277039297    -0.8344116606
   25      C      -0.7317612896    -3.2511073752    -2.1932179344
   26      C      -0.2213784928    -1.0614088568    -3.8644251793
   27      H      -0.0103419370    -0.2083797343    -4.4989968082
   28      C      -1.1174041174    -2.0427370982    -4.2760490111
   29      C      -1.3542882261    -3.1216312964    -3.4304840571
   30      C      -1.7697357042    -1.9698320625    -5.6277124819
   31      H      -2.7763864620    -2.3885706353    -5.5703337724
   32      H      -1.8852117651    -0.9260859197    -5.9266212143
   33      C      -0.9639005754    -2.7208984368    -6.6860909346
   34      C      -1.0502098580    -4.4091825062    -1.2909291487
   35      H      -0.1846134576    -4.6404713295    -0.6669003998
   36      H      -1.2427584533    -5.2978000119    -1.8954106060
   37      C      -2.2604309398    -4.1222183071    -0.4044942534
   38      H      -3.1478886515    -3.9151848376    -1.0030065047
   39      H      -2.4806567306    -4.9761158232     0.2354916017
   40      H      -2.0839038170    -3.2594147018     0.2385504682
   41      H      -2.0487263503    -3.8921018390    -3.7495992441
   42      H       0.0390852564    -2.3053415879    -6.7880480128
   43      H      -1.4513621871    -2.6595143578    -7.6586723750
   44      H      -0.8622197169    -3.7756981540    -6.4296477506
   45      O       3.1222180209     1.7492851739    -1.4040786466
 ----------------------------------------------------------------

   11    -978.6394726345      7.70e-09  Convergence criterion met
 Total energy in the final basis set =     -978.6394726345
 Final energy is   -978.639472634492
 **  OPTIMIZATION CONVERGED  **

                    Orbital Energies (a.u.)
 --------------------------------------------------------------

 Alpha MOs
 -- Occupied --
-19.668 -14.826 -10.616 -10.616 -10.596 -10.596 -10.562 -10.533
-10.533 -10.531 -10.531 -10.527 -10.527 -10.526 -10.526 -10.514
-10.514 -10.512 -10.511 -10.499 -10.483 -10.483 -10.463 -10.463
 -1.339  -1.212  -1.068  -1.039  -1.023  -0.960  -0.947  -0.947
 -0.945  -0.914  -0.890  -0.864  -0.863  -0.833  -0.816  -0.772
 -0.767  -0.757  -0.753  -0.733  -0.722  -0.693  -0.669  -0.658
 -0.653  -0.640  -0.621  -0.621  -0.618  -0.612  -0.586  -0.579
 -0.577  -0.563  -0.553  -0.544  -0.542  -0.533  -0.525  -0.519
 -0.516  -0.512  -0.497  -0.495  -0.493  -0.483  -0.481  -0.469
 -0.468  -0.451  -0.448  -0.434  -0.432  -0.424  -0.392  -0.391
 -0.361  -0.353  -0.342  -0.318

 Beta MOs
 -- Occupied --
-19.662 -14.816 -10.613 -10.613 -10.597 -10.596 -10.562 -10.532
-10.532 -10.529 -10.529 -10.528 -10.528 -10.526 -10.526 -10.514
-10.514 -10.511 -10.511 -10.499 -10.483 -10.483 -10.463 -10.463
 -1.328  -1.195  -1.063  -1.036  -1.020  -0.958  -0.947  -0.943
 -0.942  -0.913  -0.885  -0.862  -0.860  -0.831  -0.813  -0.770
 -0.765  -0.757  -0.749  -0.731  -0.719  -0.691  -0.667  -0.655
 -0.638  -0.630  -0.620  -0.616  -0.609  -0.608  -0.585  -0.579
 -0.577  -0.552  -0.546  -0.539  -0.533  -0.532  -0.515  -0.514
 -0.511  -0.508  -0.496  -0.494  -0.493  -0.483  -0.480  -0.467
 -0.451  -0.448  -0.448  -0.433  -0.431  -0.424  -0.387  -0.367
 -0.353  -0.350  -0.341

          Ground-State Mulliken Net Atomic Charges

     Atom                 Charge (a.u.)    Spin (a.u.)
  --------------------------------------------------------
      1 N                    -0.615692       0.375997
      2 C                     0.336174      -0.000965
      3 C                     0.377865       0.155980
      4 C                    -0.326707      -0.098871
      5 H                     0.294556       0.003889
      6 C                    -0.219792       0.157960
      7 H                     0.284980      -0.008754
      8 C                    -0.219830      -0.020872
      9 H                     0.281833       0.000391
     10 C                    -0.294651       0.058659
     11 H                     0.307109      -0.004029
     12 C                     0.337426      -0.001409
     13 C                    -0.293520       0.058288
     14 H                     0.306650      -0.004013
     15 C                    -0.220135      -0.020575
     16 H                     0.281717       0.000378
     17 C                    -0.219828       0.156883
     18 H                     0.284919      -0.008692
     19 C                    -0.326699      -0.098222
     20 H                     0.294477       0.003860
     21 C                     0.376623       0.155370
     22 C                     0.190074      -0.026876
     23 C                    -0.301940       0.014392
     24 H                     0.257716      -0.000832
     25 C                     0.160826      -0.002354
     26 C                    -0.303396       0.014355
     27 H                     0.257835      -0.000821
     28 C                     0.160711      -0.002390
     29 C                    -0.335945       0.003195
     30 C                    -0.506313       0.000912
     31 H                     0.248140       0.000085
     32 H                     0.242003      -0.000062
     33 C                    -0.643097      -0.000132
     34 C                    -0.505860       0.000921
     35 H                     0.242002      -0.000064
     36 H                     0.247705       0.000095
     37 C                    -0.643058      -0.000136
     38 H                     0.228296       0.000006
     39 H                     0.240955       0.000009
     40 H                     0.221547       0.000012
     41 H                     0.243839      -0.000208
     42 H                     0.221261       0.000010
     43 H                     0.241197       0.000010
     44 H                     0.228218       0.000005
     45 O                    -0.420189       0.138614
  --------------------------------------------------------
  Sum of atomic charges =     1.000000

                    Cartesian Multipole Moments
 -----------------------------------------------------------------
    Charge (ESU x 10^10)
                 4.8032
    Dipole Moment (Debye)
         X       6.3899      Y      -0.8909      Z     -10.6931
       Tot      12.4887
    Quadrupole Moments (Debye-Ang)
        XX     -86.9670     XY       4.5025     YY    -101.9132
        XZ     -17.3058     YZ      17.9153     ZZ     -97.8198

 Total job time:  3071.77s(wall), 11517.12s(cpu)
        *  Thank you very much for using Q-Chem.  Have a nice day.  *
