 Q-Chem 5.1, Q-Chem, Inc., Pleasanton, CA (2018)
 Q-Chem 5.1.1 for Intel X86 EM64T Linux

User input:
--------------------------------------------------------------
$rem
threads 4
jobtype	opt
method PBEh-3c
basis def2-mSVP
mem_static	1024
mem_total	3000
sym_ignore	true
scf_convergence	9
solvent_method	pcm
$end

$molecule
read DiEt_NPh3.mol
$end

$solvent
dielectric	2.38
$end

$pcm
theory iefpcm
$end

--------------------------------------------------------------

   16    -904.9629226973      3.21e-10  Convergence criterion met
 Total energy in the final basis set =     -904.9629226973
   14    -904.9707474107      4.79e-10  Convergence criterion met
 Total energy in the final basis set =     -904.9707474107
   13    -904.9708886307      7.77e-10  Convergence criterion met
 Total energy in the final basis set =     -904.9708886307
   13    -904.9709393975      9.75e-10  Convergence criterion met
 Total energy in the final basis set =     -904.9709393975
   13    -904.9709677054      6.65e-10  Convergence criterion met
 Total energy in the final basis set =     -904.9709677054
   13    -904.9709647749      6.57e-10  Convergence criterion met
 Total energy in the final basis set =     -904.9709647749
   13    -904.9709688597      7.00e-10  Convergence criterion met
 Total energy in the final basis set =     -904.9709688597

             Standard Nuclear Orientation (Angstroms)
    I     Atom           X                Y                Z
 ----------------------------------------------------------------
    1      N      -0.0546858659     0.1889838675     0.0898258148
    2      C      -0.0997831852     0.1686784422     1.4941588449
    3      C       1.0579029259     0.3767982796     2.2431306641
    4      H       2.0005709606     0.5491877647     1.7394855030
    5      C       1.0050436417     0.3616596678     3.6276230180
    6      H       1.9127270265     0.5254257098     4.1940943678
    7      C      -0.1924086915     0.1206812300     4.2864726572
    8      H      -0.2285666811     0.1016341028     5.3675524187
    9      C      -1.3436103114    -0.0950270340     3.5417105130
   10      H      -2.2869255227    -0.2767566919     4.0407031930
   11      C      -1.3045971702    -0.0621925209     2.1575856299
   12      H      -2.2111718368    -0.2181985090     1.5865747843
   13      C       0.7186548914     1.1564905444    -0.5745647624
   14      C       1.5006901142     0.8016587976    -1.6735402433
   15      H       1.5201317057    -0.2274541495    -2.0095237695
   16      C       2.2468220870     1.7606649058    -2.3382877665
   17      H       2.8460722535     1.4686510847    -3.1912257406
   18      C       2.2435481761     3.0805974640    -1.9088439396
   19      H       2.8332376625     3.8256926322    -2.4260955171
   20      C       1.4748783464     3.4328629440    -0.8083804376
   21      H       1.4562058073     4.4595355917    -0.4660424512
   22      C       0.7096931859     2.4839369840    -0.1496126377
   23      H       0.1002187373     2.7724691171     0.6972523389
   24      C      -0.7818042186    -0.7566867266    -0.6560850624
   25      C      -0.8290823145    -2.0882815165    -0.2505905930
   26      H      -0.2986323968    -2.3972256492     0.6426882404
   27      C      -1.5490698595    -3.0264156106    -0.9793457680
   28      C      -1.4569409959    -0.3714108309    -1.8124006865
   29      H      -1.4297675074     0.6642708884    -2.1304403034
   30      C      -2.1602744804    -1.3016347257    -2.5662852776
   31      C      -2.2054858420    -2.6234256425    -2.1365967976
   32      C      -2.8271514410    -0.8945301752    -3.8512426029
   33      H      -3.1339004113     0.1523977306    -3.7952636723
   34      H      -3.7410531631    -1.4766729711    -3.9931734381
   35      C      -1.9087690675    -1.0906908379    -5.0559030654
   36      C      -1.6470843829    -4.4492005614    -0.5016774424
   37      H      -0.7343052816    -4.7253392892     0.0310940252
   38      H      -1.7185859986    -5.1218620377    -1.3597587741
   39      C      -2.8528943337    -4.6597129997     0.4118708831
   40      H      -3.7832239539    -4.4230938673    -0.1056857538
   41      H      -2.9123657609    -5.6938771270     0.7529930017
   42      H      -2.7928861797    -4.0187247957     1.2921192003
   43      H      -2.7614343349    -3.3538615301    -2.7161369312
   44      H      -2.4063605578    -0.7964410028    -5.9807489673
   45      H      -1.6075304289    -2.1341419185    -5.1549171933
   46      H      -1.0016453464    -0.4933190284    -4.9584655036
 ----------------------------------------------------------------

   13    -904.9709700933      6.96e-10  Convergence criterion met
 Total energy in the final basis set =     -904.9709700933
 Final energy is   -904.970970093320
 **  OPTIMIZATION CONVERGED  **

                    Orbital Energies (a.u.)
 --------------------------------------------------------------

 Alpha MOs
 -- Occupied --
-14.670 -10.490 -10.490 -10.487 -10.451 -10.451 -10.448 -10.448
-10.447 -10.447 -10.444 -10.444 -10.444 -10.444 -10.443 -10.442
-10.436 -10.436 -10.436 -10.436 -10.434 -10.423 -10.423  -1.079
 -0.963  -0.960  -0.941  -0.891  -0.868  -0.851  -0.840  -0.837
 -0.824  -0.803  -0.792  -0.718  -0.712  -0.701  -0.699  -0.681
 -0.673  -0.638  -0.634  -0.605  -0.586  -0.565  -0.554  -0.545
 -0.542  -0.523  -0.512  -0.503  -0.499  -0.496  -0.490  -0.485
 -0.483  -0.481  -0.470  -0.454  -0.442  -0.434  -0.429  -0.428
 -0.424  -0.418  -0.412  -0.405  -0.404  -0.399  -0.396  -0.389
 -0.383  -0.372  -0.354  -0.304  -0.300  -0.299  -0.289  -0.276
 -0.222

          Ground-State Mulliken Net Atomic Charges

     Atom                 Charge (a.u.)
  ----------------------------------------
      1 N                    -0.673590
      2 C                     0.292591
      3 C                    -0.288345
      4 H                     0.254161
      5 C                    -0.229324
      6 H                     0.235439
      7 C                    -0.252607
      8 H                     0.232297
      9 C                    -0.229412
     10 H                     0.235181
     11 C                    -0.287204
     12 H                     0.255078
     13 C                     0.287332
     14 C                    -0.284544
     15 H                     0.254735
     16 C                    -0.229505
     17 H                     0.235368
     18 C                    -0.251867
     19 H                     0.232635
     20 C                    -0.229779
     21 H                     0.235556
     22 C                    -0.285392
     23 H                     0.253943
     24 C                     0.335640
     25 C                    -0.373704
     26 H                     0.243568
     27 C                     0.179648
     28 C                    -0.374840
     29 H                     0.243518
     30 C                     0.180154
     31 C                    -0.379043
     32 C                    -0.502406
     33 H                     0.232013
     34 H                     0.229252
     35 C                    -0.641849
     36 C                    -0.502531
     37 H                     0.232074
     38 H                     0.229326
     39 C                    -0.641767
     40 H                     0.221751
     41 H                     0.221833
     42 H                     0.224555
     43 H                     0.211954
     44 H                     0.221780
     45 H                     0.221574
     46 H                     0.224753
  ----------------------------------------
  Sum of atomic charges =    -0.000000

                    Cartesian Multipole Moments
 -----------------------------------------------------------------
    Charge (ESU x 10^10)
                -0.0000
    Dipole Moment (Debye)
         X      -0.2444      Y      -0.3337      Z      -0.3204
       Tot       0.5232
    Quadrupole Moments (Debye-Ang)
        XX    -131.3058     XY       5.2865     YY    -128.0467
        XZ       0.5096     YZ       0.2255     ZZ    -124.8313

 Total job time:  3014.06s(wall), 11130.69s(cpu)
        *  Thank you very much for using Q-Chem.  Have a nice day.  *
