 Q-Chem 5.1, Q-Chem, Inc., Pleasanton, CA (2018)
 Q-Chem 5.1.1 for Intel X86 EM64T Linux

User input:
--------------------------------------------------------------
$rem
threads 4
jobtype	opt
method PBEh-3c
basis def2-mSVP
mem_static	1024
mem_total	3000
sym_ignore	true
scf_convergence	9
solvent_method	pcm
$end

$molecule
read DiMe_PPZ.mol
$end

$solvent
dielectric	2.38
$end

$pcm
theory iefpcm
$end

--------------------------------------------------------------

   17   -1111.0366314121      4.82e-10  Convergence criterion met
 Total energy in the final basis set =    -1111.0366314121
   15   -1111.0619173268      4.42e-10  Convergence criterion met
 Total energy in the final basis set =    -1111.0619173268
   15   -1111.0719485501      4.54e-10  Convergence criterion met
 Total energy in the final basis set =    -1111.0719485501
   15   -1111.0797429389      3.64e-10  Convergence criterion met
 Total energy in the final basis set =    -1111.0797429389
   14   -1111.0854888465      8.89e-10  Convergence criterion met
 Total energy in the final basis set =    -1111.0854888465
   14   -1111.0893586097      8.89e-10  Convergence criterion met
 Total energy in the final basis set =    -1111.0893586097
   14   -1111.0917427679      9.96e-10  Convergence criterion met
 Total energy in the final basis set =    -1111.0917427679
   14   -1111.0931409870      9.12e-10  Convergence criterion met
   14   -1111.0933967733      5.12e-10  Convergence criterion met
 Total energy in the final basis set =    -1111.0933967733
   14   -1111.0933982242      5.04e-10  Convergence criterion met
 Total energy in the final basis set =    -1111.0933982242
   14   -1111.0933794326      5.29e-10  Convergence criterion met
 Total energy in the final basis set =    -1111.0933794326
   14   -1111.0933892325      4.92e-10  Convergence criterion met
 Total energy in the final basis set =    -1111.0933892325
   14   -1111.0933855910      5.03e-10  Convergence criterion met
 Total energy in the final basis set =    -1111.0933855910
   14   -1111.0933920279      4.82e-10  Convergence criterion met
 Total energy in the final basis set =    -1111.0933920279

             Standard Nuclear Orientation (Angstroms)
    I     Atom           X                Y                Z
 ----------------------------------------------------------------
    1      C      -4.4421288445    -0.2514333185     4.3149118610
    2      C      -4.6123459418    -0.4502187269     2.9501023665
    3      C      -3.5082305233    -0.3041976933     2.1143950375
    4      C      -2.2507058560     0.0279301191     2.6039266081
    5      C      -2.1001363490     0.2072106936     3.9755384438
    6      C      -3.1889152984     0.0685862829     4.8206142296
    7      N      -2.9860887464     0.2551818562     6.2117694444
    8      C      -5.9480885275    -0.8349599200     2.3825717019
    9      C      -1.0870875417     0.2139201240     1.6750014107
   10      C      -2.8857994553    -0.8343118347     7.0743055081
   11      C      -2.3255047616    -0.5890745911     8.3316890237
   12      C      -3.8837779168     2.5410264681     6.2137520322
   13      C      -3.1435329392     1.5135982056     6.7901545525
   14      C      -4.0676316998     3.7217324168     6.9172129656
   15      C      -3.5425313446     3.8846604869     8.1923742211
   16      C      -2.7865026175     2.8668788203     8.7575103502
   17      C      -2.5594965710     1.7053358243     8.0446206587
   18      C      -3.3270181234    -2.1182242084     6.7639833075
   19      C      -3.2599801985    -3.1141139393     7.7267704684
   20      C      -2.7801722878    -2.8468470238     9.0014120457
   21      C      -2.3110882885    -1.5748379059     9.3009521061
   22      H      -3.6346228517    -0.4562975001     1.0471935820
   23      H      -5.2832850592    -0.3524778994     4.9912098053
   24      H      -1.1328459776     0.4518825322     4.3985734675
   25      H      -5.9467620410    -1.8746241670     2.0497153975
   26      H      -6.2064957464    -0.2218145122     1.5186694464
   27      H      -6.7443744004    -0.7277662909     3.1178427682
   28      H      -1.1830303639    -0.4031866295     0.7820942565
   29      H      -0.1442048438    -0.0385965859     2.1587866047
   30      H      -1.0147787981     1.2527137918     1.3464506791
   31      H      -4.3236765576     2.4162804214     5.2328969841
   32      H      -4.6481795745     4.5162552431     6.4667600940
   33      H      -3.7112361302     4.8028254620     8.7382814568
   34      H      -2.3394060201     2.9775315859     9.7370191776
   35      H      -3.7209816474    -2.3441915293     5.7823070211
   36      H      -3.6029844411    -4.1097704273     7.4765044705
   37      H      -2.7500956957    -3.6276992364     9.7492034402
   38      H      -1.8872451799    -1.3502919518    10.2714561688
   39      N      -1.6956273703     0.6736762336     8.5059747586
   40      C      -0.3629958143     0.7374797596     8.0257392939
   41      C       0.1781177511     1.9410831686     7.5695055862
   42      C       1.4863258085     1.9984259950     7.1148963251
   43      C       2.2871235437     0.8671204744     7.0983985471
   44      C       1.7520409299    -0.3295564084     7.5506569770
   45      C       0.4465217736    -0.4011845136     8.0089776062
   46      H      -0.4201413726     2.8412116121     7.5572280406
   47      H       1.8753387312     2.9455795085     6.7632026583
   48      H       3.3062499119     0.9163887281     6.7392916920
   49      H       2.3532580097    -1.2299066017     7.5456683998
   50      H       0.0642172588    -1.3541923988     8.3460269514
 ----------------------------------------------------------------

   14   -1111.0933902867      4.80e-10  Convergence criterion met
 Total energy in the final basis set =    -1111.0933902867
 Final energy is   -1111.09339028667
 **  OPTIMIZATION CONVERGED  **

                    Orbital Energies (a.u.)
 --------------------------------------------------------------

 Alpha MOs
 -- Occupied --
-14.681 -14.664 -10.495 -10.495 -10.490 -10.487 -10.481 -10.480
-10.463 -10.462 -10.450 -10.449 -10.449 -10.449 -10.449 -10.447
-10.447 -10.446 -10.446 -10.443 -10.442 -10.442 -10.442 -10.436
-10.436 -10.435 -10.434 -10.433  -1.111  -1.056  -0.969  -0.967
 -0.949  -0.934  -0.882  -0.867  -0.855  -0.849  -0.842  -0.829
 -0.818  -0.787  -0.776  -0.773  -0.726  -0.717  -0.689  -0.684
 -0.673  -0.659  -0.653  -0.635  -0.620  -0.602  -0.589  -0.566
 -0.559  -0.558  -0.546  -0.533  -0.528  -0.520  -0.511  -0.500
 -0.499  -0.495  -0.486  -0.483  -0.480  -0.475  -0.472  -0.470
 -0.463  -0.454  -0.445  -0.434  -0.427  -0.425  -0.420  -0.415
 -0.413  -0.409  -0.403  -0.402  -0.400  -0.386  -0.371  -0.356
 -0.304  -0.298  -0.293  -0.292  -0.285  -0.282  -0.252  -0.234

          Ground-State Mulliken Net Atomic Charges

     Atom                 Charge (a.u.)
  ----------------------------------------
      1 C                    -0.338942
      2 C                     0.128061
      3 C                    -0.328271
      4 C                     0.130535
      5 C                    -0.313169
      6 C                     0.272781
      7 N                    -0.717249
      8 C                    -0.716854
      9 C                    -0.714506
     10 C                     0.391313
     11 C                     0.150456
     12 C                    -0.314726
     13 C                     0.384756
     14 C                    -0.232429
     15 C                    -0.261237
     16 C                    -0.290641
     17 C                     0.155904
     18 C                    -0.319643
     19 C                    -0.228608
     20 C                    -0.263179
     21 C                    -0.297226
     22 H                     0.221424
     23 H                     0.248331
     24 H                     0.249054
     25 H                     0.242919
     26 H                     0.239089
     27 H                     0.238321
     28 H                     0.234944
     29 H                     0.242309
     30 H                     0.244545
     31 H                     0.257559
     32 H                     0.235814
     33 H                     0.233912
     34 H                     0.245852
     35 H                     0.259720
     36 H                     0.235267
     37 H                     0.233485
     38 H                     0.247233
     39 N                    -0.579301
     40 C                     0.303253
     41 C                    -0.300537
     42 C                    -0.228841
     43 C                    -0.262000
     44 C                    -0.227103
     45 C                    -0.292799
     46 H                     0.256331
     47 H                     0.230656
     48 H                     0.226159
     49 H                     0.230774
     50 H                     0.256506
  ----------------------------------------
  Sum of atomic charges =     0.000000

                    Cartesian Multipole Moments
 -----------------------------------------------------------------
    Charge (ESU x 10^10)
                 0.0000
    Dipole Moment (Debye)
         X      -1.3645      Y      -0.5016      Z      -3.2814
       Tot       3.5890
    Quadrupole Moments (Debye-Ang)
        XX    -149.3158     XY       1.1977     YY    -149.7998
        XZ       1.9446     YZ      -4.3764     ZZ    -189.8508

 Total job time:  24141.29s(wall), 91468.05s(cpu)
        *  Thank you very much for using Q-Chem.  Have a nice day.  *
