 Q-Chem 5.1, Q-Chem, Inc., Pleasanton, CA (2018)
 Q-Chem 5.1.1 for Intel X86 EM64T Linux

User input:
--------------------------------------------------------------
$rem
threads 4
jobtype opt
method PBEh-3c
basis def2-mSVP
mem_static      1024
mem_total       4000
sym_ignore      true
unrestricted true
scf_algorithm	diis
scf_max_cycles	250
solvent_method  pcm
geom_opt_tol_energy 25
geom_opt_tol_gradient 75
$end

$pcm
theory  iefpcm
$end

$solvent
dielectric      2.38
$end

$molecule
read DiMe_PI_kat.mol
$end
--------------------------------------------------------------

   23    -841.0989991160      9.32e-09  Convergence criterion met
 Total energy in the final basis set =     -841.0989991160
   19    -841.1139445986      7.86e-09  Convergence criterion met
 Total energy in the final basis set =     -841.1139445986
   19    -841.1157827661      8.67e-09  Convergence criterion met
 Total energy in the final basis set =     -841.1157827661
   19    -841.1168522546      7.70e-09  Convergence criterion met
 Total energy in the final basis set =     -841.1168522546
   17    -841.1170902375      9.24e-09  Convergence criterion met
 Total energy in the final basis set =     -841.1170902375
   15    -841.1171705944      9.14e-09  Convergence criterion met
 Total energy in the final basis set =     -841.1171705944
   15    -841.1171671728      8.41e-09  Convergence criterion met
 Total energy in the final basis set =     -841.1171671728
   15    -841.1171724590      9.26e-09  Convergence criterion met
 Total energy in the final basis set =     -841.1171724590
   14    -841.1171754125      7.46e-09  Convergence criterion met
 Total energy in the final basis set =     -841.1171754125
   15    -841.1171774659      6.37e-09  Convergence criterion met
 Total energy in the final basis set =     -841.1171774659
   15    -841.1171788038      7.16e-09  Convergence criterion met
 Total energy in the final basis set =     -841.1171788038
   15    -841.1171797183      6.06e-09  Convergence criterion met
 Total energy in the final basis set =     -841.1171797183
   15    -841.1171797595      7.01e-09  Convergence criterion met
 Total energy in the final basis set =     -841.1171797595

             Standard Nuclear Orientation (Angstroms)
    I     Atom           X                Y                Z
 ----------------------------------------------------------------
    1      C      -0.2178227472    -1.9395244345     1.2549844379
    2      C      -1.3684302208    -1.6700461397     0.5416602882
    3      C      -2.5266769630    -1.3416330710     1.2519598137
    4      C      -2.5581906542    -1.2605432675     2.6466771765
    5      C      -1.3956710386    -1.5100069534     3.3502792262
    6      C      -0.2320669441    -1.8670931285     2.6561753118
    7      N       0.9259931225    -2.1616554325     3.3560130258
    8      C      -1.3886302965    -1.7084318642    -0.9556127350
    9      C      -3.8375412165    -0.9237798918     3.3490270420
   10      C       1.8205090543    -3.1695395435     3.0603400073
   11      C       2.9201916958    -3.0879381162     3.9390019527
   12      C       2.6556987561    -1.9750782537     4.8305605450
   13      C       1.4200110995    -1.4408804892     4.4587296910
   14      C       3.3107295077    -1.3739970130     5.8855184287
   15      C       2.6778340863    -0.2903870490     6.4852175486
   16      C       1.4451593576     0.1525568741     6.0080531751
   17      N       0.8114833972    -0.4120702141     4.9875229369
   18      C       1.6801506311    -4.2129887892     2.1447905269
   19      C       2.7092105357    -5.1386451678     2.0709143366
   20      C       3.8182356315    -5.0417376551     2.9042079888
   21      C       3.9242886741    -4.0217868400     3.8585807828
   22      H      -3.4362796926    -1.1361080606     0.6975912035
   23      H       0.7065151310    -2.1426750202     0.7294766887
   24      H      -1.3989536226    -1.4786607856     4.4292620863
   25      H      -2.1184481339    -2.4352599445    -1.3144601141
   26      H      -0.4180383629    -1.9780911697    -1.3676161913
   27      H      -1.6692824232    -0.7390127354    -1.3681739941
   28      H      -4.6057326248    -1.6682813426     3.1371423024
   29      H      -4.2214134688     0.0406791039     3.0147686558
   30      H      -3.7060376181    -0.8752636470     4.4279523957
   31      H       4.2732639813    -1.7240466487     6.2334648244
   32      H       3.1383720689     0.2216346715     7.3178139862
   33      H       0.9550659778     1.0018874172     6.4658076371
   34      H       0.7954191958    -4.3276833811     1.5344261830
   35      H       2.6352267879    -5.9578586661     1.3695874814
   36      H       4.6026422764    -5.7826096283     2.8330061462
   37      H       4.7751950593    -3.9888937228     4.5254092014
 ----------------------------------------------------------------

   15    -841.1171796839      8.36e-09  Convergence criterion met
 Total energy in the final basis set =     -841.1171796839
 Final energy is   -841.117179683946
 **  OPTIMIZATION CONVERGED  **

                    Orbital Energies (a.u.)
 --------------------------------------------------------------

 Alpha MOs
 -- Occupied --
-14.833 -14.724 -10.600 -10.584 -10.581 -10.552 -10.547 -10.545
-10.544 -10.540 -10.534 -10.534 -10.529 -10.528 -10.528 -10.527
-10.525 -10.524 -10.523 -10.483 -10.480  -1.233  -1.135  -1.063
 -1.034  -1.002  -0.963  -0.949  -0.939  -0.910  -0.900  -0.841
 -0.839  -0.828  -0.796  -0.788  -0.746  -0.733  -0.720  -0.683
 -0.675  -0.663  -0.640  -0.637  -0.622  -0.607  -0.594  -0.588
 -0.580  -0.567  -0.548  -0.543  -0.539  -0.536  -0.524  -0.520
 -0.516  -0.509  -0.507  -0.501  -0.484  -0.481  -0.473  -0.464
 -0.458  -0.435  -0.403  -0.397  -0.378  -0.356  -0.344  -0.340

 Beta MOs
 -- Occupied --
-14.823 -14.722 -10.602 -10.585 -10.583 -10.553 -10.545 -10.544
-10.541 -10.541 -10.535 -10.531 -10.531 -10.529 -10.526 -10.526
-10.525 -10.522 -10.519 -10.483 -10.480  -1.219  -1.130  -1.059
 -1.029  -0.998  -0.960  -0.949  -0.935  -0.909  -0.891  -0.838
 -0.837  -0.824  -0.793  -0.785  -0.745  -0.730  -0.718  -0.681
 -0.673  -0.660  -0.636  -0.625  -0.620  -0.600  -0.590  -0.586
 -0.576  -0.566  -0.546  -0.541  -0.538  -0.535  -0.521  -0.515
 -0.515  -0.507  -0.500  -0.492  -0.482  -0.479  -0.471  -0.461
 -0.440  -0.424  -0.400  -0.382  -0.352  -0.350  -0.345

          Ground-State Mulliken Net Atomic Charges

     Atom                 Charge (a.u.)    Spin (a.u.)
  --------------------------------------------------------
      1 C                    -0.366965       0.134798
      2 C                     0.142713      -0.099804
      3 C                    -0.291767       0.248969
      4 C                     0.140227      -0.101790
      5 C                    -0.311469       0.135113
      6 C                     0.386268      -0.015123
      7 N                    -0.654699       0.366008
      8 C                    -0.714978       0.008432
      9 C                    -0.713236       0.008415
     10 C                     0.364447      -0.105529
     11 C                     0.077793       0.096981
     12 C                     0.077868       0.090329
     13 C                     0.467447      -0.093498
     14 C                    -0.210502      -0.058661
     15 C                    -0.303365       0.143247
     16 C                    -0.043211      -0.073820
     17 N                    -0.385065       0.096146
     18 C                    -0.240968       0.227287
     19 C                    -0.237344      -0.137039
     20 C                    -0.204349       0.234933
     21 C                    -0.337587      -0.046329
     22 H                     0.262436      -0.013735
     23 H                     0.295159      -0.007406
     24 H                     0.282090      -0.007378
     25 H                     0.258608      -0.002231
     26 H                     0.247832      -0.000558
     27 H                     0.262623      -0.003367
     28 H                     0.258178      -0.003433
     29 H                     0.260044      -0.002333
     30 H                     0.251383      -0.000548
     31 H                     0.273795       0.002851
     32 H                     0.287432      -0.007756
     33 H                     0.280065       0.003244
     34 H                     0.305706      -0.012007
     35 H                     0.280874       0.006054
     36 H                     0.284653      -0.012749
     37 H                     0.267864       0.002285
  --------------------------------------------------------
  Sum of atomic charges =     1.000000

                    Cartesian Multipole Moments
 -----------------------------------------------------------------
    Charge (ESU x 10^10)
                 4.8032
    Dipole Moment (Debye)
         X       5.1087      Y     -11.6872      Z      15.3554
       Tot      19.9619
    Quadrupole Moments (Debye-Ang)
        XX     -66.6364     XY     -27.3458     YY     -72.8691
        XZ      37.4056     YZ     -24.3432     ZZ     -34.7596

 Total job time:  4781.95s(wall), 17826.82s(cpu)
        *  Thank you very much for using Q-Chem.  Have a nice day.  *
