 Q-Chem 5.1, Q-Chem, Inc., Pleasanton, CA (2018)
 Q-Chem 5.1.1 for Intel X86 EM64T Linux

User input:
--------------------------------------------------------------
$rem
threads 4
jobtype opt
method PBEh-3c
basis def2-mSVP
mem_static      1024
mem_total       4000
sym_ignore      true
unrestricted true
scf_algorithm	diis
scf_max_cycles	250
solvent_method  pcm
geom_opt_tol_energy 25
geom_opt_tol_gradient 75
$end

$pcm
theory  iefpcm
$end

$solvent
dielectric      2.38
$end

$molecule
read DiMe_PPZ_kat.mol
$end
--------------------------------------------------------------

   19   -1110.8463665701      7.98e-09  Convergence criterion met
 Total energy in the final basis set =    -1110.8463665701
   16   -1110.8691427934      8.59e-09  Convergence criterion met
 Total energy in the final basis set =    -1110.8691427934
   17   -1110.8763731275      7.98e-09  Convergence criterion met
 Total energy in the final basis set =    -1110.8763731275
   16   -1110.8821627171      9.08e-09  Convergence criterion met
 Total energy in the final basis set =    -1110.8821627171
   17   -1110.8862285167      7.14e-09  Convergence criterion met
 Total energy in the final basis set =    -1110.8862285167
   16   -1110.8879298801      9.60e-09  Convergence criterion met
 Total energy in the final basis set =    -1110.8879298801
   16   -1110.8881738648      9.24e-09  Convergence criterion met
 Total energy in the final basis set =    -1110.8881738648
   16   -1110.8881170354      7.09e-09  Convergence criterion met
   14   -1110.9168612457      5.05e-09  Convergence criterion met
 Total energy in the final basis set =    -1110.9168612457
   14   -1110.9168845335      5.01e-09  Convergence criterion met
 Total energy in the final basis set =    -1110.9168845335
   12   -1110.9169058914      8.51e-09  Convergence criterion met
 Total energy in the final basis set =    -1110.9169058914
   12   -1110.9169291885      8.14e-09  Convergence criterion met
 Total energy in the final basis set =    -1110.9169291885
   13   -1110.9169345147      8.23e-09  Convergence criterion met
 Total energy in the final basis set =    -1110.9169345147
   13   -1110.9169351183      9.10e-09  Convergence criterion met
 Total energy in the final basis set =    -1110.9169351183

             Standard Nuclear Orientation (Angstroms)
    I     Atom           X                Y                Z
 ----------------------------------------------------------------
    1      C      -4.9035534703    -0.1416746524     4.4940772511
    2      C      -5.6866498945    -0.4237218523     3.3799535931
    3      C      -5.0550518479    -0.5817685041     2.1494491587
    4      C      -3.6777530411    -0.4659698912     1.9964785603
    5      C      -2.9082147843    -0.1867880811     3.1216611103
    6      C      -3.5323019033    -0.0303401956     4.3460110105
    7      N      -2.7254719752     0.2187400010     5.5037308137
    8      C      -7.1747980920    -0.5702132787     3.4927408747
    9      C      -3.0426715758    -0.6237985740     0.6472177750
   10      C      -2.2532635919    -0.8522295443     6.2217817664
   11      C      -1.4184334274    -0.6213478016     7.3355504227
   12      C      -2.9314403976     2.5971188731     5.1302152462
   13      C      -2.4255188499     1.5118123720     5.8560095259
   14      C      -2.6090627618     3.8795398249     5.4997641031
   15      C      -1.7747711187     4.1106285309     6.5976552427
   16      C      -1.2673687324     3.0598809703     7.3229111521
   17      C      -1.5865468002     1.7441740840     6.9671621891
   18      C      -2.5785466648    -2.1678039602     5.8632128229
   19      C      -2.0884174299    -3.2218331024     6.5935911346
   20      C      -1.2629868153    -2.9935971783     7.6985615157
   21      C      -0.9301454435    -1.7127752133     8.0663462868
   22      H      -5.6596846018    -0.8072072872     1.2771521145
   23      H      -5.3562723595    -0.0208554239     5.4705884069
   24      H      -1.8310349801    -0.1015022586     3.0444042043
   25      H      -7.4908604725    -1.5746642690     3.2081963135
   26      H      -7.6900429324     0.1277485728     2.8321760172
   27      H      -7.5241312830    -0.3884609415     4.5076311034
   28      H      -3.4979980014    -1.4400743585     0.0873731086
   29      H      -1.9751167979    -0.8234870179     0.7240071185
   30      H      -3.1652345360     0.2832477740     0.0526864837
   31      H      -3.5744506738     2.4223346467     4.2799338508
   32      H      -3.0048929438     4.7113874566     4.9344138926
   33      H      -1.5235020955     5.1225587299     6.8823101891
   34      H      -0.6225616661     3.2497193802     8.1682473893
   35      H      -3.2146938005    -2.3549399181     5.0107601127
   36      H      -2.3453013066    -4.2322845177     6.3078277715
   37      H      -0.8803491736    -3.8272910387     8.2704313908
   38      H      -0.2896509489    -1.5486520815     8.9200755893
   39      N      -1.0958779057     0.6703968528     7.6718435178
   40      C      -0.2100577330     0.8989982442     8.7734821898
   41      C      -0.7364299329     1.0739434372    10.0422984064
   42      C       0.1316346425     1.2904209373    11.1017420097
   43      C       1.5017199540     1.3282934587    10.8824353858
   44      C       2.0127259541     1.1485197503     9.6044031295
   45      C       1.1542970520     0.9321659838     8.5375143510
   46      H      -1.8074314207     1.0405361395    10.1969413933
   47      H      -0.2643389977     1.4295389375    12.0983841571
   48      H       2.1743476210     1.4983848779    11.7121798104
   49      H       3.0804464911     1.1776778918     9.4356926102
   50      H       1.5371714665     0.7902532147     7.5348864266
 ----------------------------------------------------------------

   13   -1110.9169334869      8.92e-09  Convergence criterion met
 Total energy in the final basis set =    -1110.9169334869
 Final energy is   -1110.91693348688
 **  OPTIMIZATION CONVERGED  **

                    Orbital Energies (a.u.)
 --------------------------------------------------------------

 Alpha MOs
 -- Occupied --
-14.799 -14.799 -10.585 -10.585 -10.584 -10.584 -10.555 -10.551
-10.519 -10.519 -10.519 -10.518 -10.517 -10.517 -10.516 -10.516
-10.513 -10.513 -10.512 -10.511 -10.505 -10.505 -10.504 -10.503
-10.503 -10.493 -10.472 -10.471  -1.219  -1.173  -1.051  -1.032
 -1.018  -1.009  -0.941  -0.938  -0.933  -0.930  -0.909  -0.903
 -0.895  -0.858  -0.823  -0.823  -0.812  -0.806  -0.758  -0.754
 -0.753  -0.730  -0.715  -0.708  -0.707  -0.676  -0.652  -0.639
 -0.629  -0.622  -0.608  -0.608  -0.608  -0.605  -0.573  -0.573
 -0.570  -0.569  -0.565  -0.551  -0.544  -0.528  -0.525  -0.521
 -0.516  -0.512  -0.510  -0.506  -0.494  -0.493  -0.485  -0.484
 -0.476  -0.474  -0.467  -0.461  -0.452  -0.451  -0.450  -0.443
 -0.382  -0.381  -0.359  -0.355  -0.345  -0.345  -0.336  -0.289

 Beta MOs
 -- Occupied --
-14.791 -14.791 -10.584 -10.584 -10.583 -10.583 -10.556 -10.552
-10.519 -10.519 -10.519 -10.518 -10.516 -10.516 -10.515 -10.515
-10.512 -10.512 -10.512 -10.511 -10.505 -10.505 -10.504 -10.503
-10.503 -10.493 -10.471 -10.471  -1.207  -1.159  -1.047  -1.030
 -1.017  -1.005  -0.939  -0.936  -0.929  -0.929  -0.908  -0.903
 -0.893  -0.851  -0.822  -0.822  -0.810  -0.804  -0.756  -0.752
 -0.751  -0.726  -0.713  -0.705  -0.704  -0.675  -0.650  -0.636
 -0.621  -0.615  -0.607  -0.607  -0.603  -0.599  -0.573  -0.571
 -0.568  -0.565  -0.560  -0.550  -0.543  -0.528  -0.525  -0.521
 -0.510  -0.505  -0.499  -0.494  -0.492  -0.491  -0.484  -0.483
 -0.476  -0.469  -0.466  -0.455  -0.452  -0.450  -0.444  -0.432
 -0.378  -0.359  -0.359  -0.354  -0.345  -0.335  -0.330

          Ground-State Mulliken Net Atomic Charges

     Atom                 Charge (a.u.)    Spin (a.u.)
  --------------------------------------------------------
      1 C                    -0.295139       0.010584
      2 C                     0.125756      -0.002007
      3 C                    -0.312819       0.002406
      4 C                     0.125683      -0.001921
      5 C                    -0.289545       0.010743
      6 C                     0.177857      -0.020542
      7 N                    -0.635776       0.284618
      8 C                    -0.715650       0.000639
      9 C                    -0.713374       0.000673
     10 C                     0.347110       0.057549
     11 C                     0.351617       0.063744
     12 C                    -0.301996      -0.005432
     13 C                     0.351973       0.056557
     14 C                    -0.227045       0.059673
     15 C                    -0.225911       0.069675
     16 C                    -0.303292      -0.014356
     17 C                     0.351327       0.063342
     18 C                    -0.298881      -0.006413
     19 C                    -0.226718       0.060757
     20 C                    -0.225675       0.069364
     21 C                    -0.302320      -0.013958
     22 H                     0.242995      -0.000152
     23 H                     0.255002      -0.000657
     24 H                     0.253519      -0.000715
     25 H                     0.253045      -0.000071
     26 H                     0.252867      -0.000060
     27 H                     0.243370      -0.000021
     28 H                     0.249991       0.000016
     29 H                     0.243096      -0.000033
     30 H                     0.255256      -0.000121
     31 H                     0.299676      -0.000747
     32 H                     0.273864      -0.003785
     33 H                     0.274116      -0.004314
     34 H                     0.298702      -0.000286
     35 H                     0.300461      -0.000688
     36 H                     0.273710      -0.003844
     37 H                     0.274011      -0.004294
     38 H                     0.298632      -0.000310
     39 N                    -0.636824       0.275585
     40 C                     0.142150      -0.019922
     41 C                    -0.219029       0.010348
     42 C                    -0.239925      -0.002094
     43 C                    -0.217093       0.002204
     44 C                    -0.240127      -0.002033
     45 C                    -0.215171       0.010523
     46 H                     0.266670      -0.000646
     47 H                     0.265106       0.000606
     48 H                     0.264205      -0.000141
     49 H                     0.264958       0.000654
     50 H                     0.265583      -0.000695
  --------------------------------------------------------
  Sum of atomic charges =     1.000000

                    Cartesian Multipole Moments
 -----------------------------------------------------------------
    Charge (ESU x 10^10)
                 4.8032
    Dipole Moment (Debye)
         X      -9.5657      Y       1.8454      Z      30.7110
       Tot      32.2191
    Quadrupole Moments (Debye-Ang)
        XX    -105.6470     XY       1.8277     YY    -127.0823
        XZ     -30.0811     YZ      18.0928     ZZ      90.2196

 Total job time:  24480.26s(wall), 91906.82s(cpu)
        *  Thank you very much for using Q-Chem.  Have a nice day.  *
