 Q-Chem 5.1, Q-Chem, Inc., Pleasanton, CA (2018)
 Q-Chem 5.1.1 for Intel X86 EM64T Linux

User input:
--------------------------------------------------------------
$rem
threads 4
jobtype	opt
method PBEh-3c
basis def2-mSVP
mem_static	1024
mem_total	3000
sym_ignore	true
scf_convergence	9
solvent_method	pcm
$end

$molecule
read DiMe_PI.mol
$end

$solvent
dielectric	2.38
$end

$pcm
theory iefpcm
$end

--------------------------------------------------------------

   17    -841.3445949445      4.03e-10  Convergence criterion met
 Total energy in the final basis set =     -841.3445949445
   14    -841.3553883240      9.91e-10  Convergence criterion met
 Total energy in the final basis set =     -841.3553883240
   14    -841.3559188932      8.18e-10  Convergence criterion met
 Total energy in the final basis set =     -841.3559188932
   14    -841.3559548506      6.11e-10  Convergence criterion met
 Total energy in the final basis set =     -841.3559548506
   14    -841.3559766789      6.02e-10  Convergence criterion met
 Total energy in the final basis set =     -841.3559766789
   14    -841.3559967099      5.89e-10  Convergence criterion met
 Total energy in the final basis set =     -841.3559967099
   14    -841.3560141734      5.77e-10  Convergence criterion met
 Total energy in the final basis set =     -841.3560141734
   14    -841.3560191420      5.56e-10  Convergence criterion met
   14    -841.3560648050      6.70e-10  Convergence criterion met
 Total energy in the final basis set =     -841.3560648050
   14    -841.3560590159      7.08e-10  Convergence criterion met
 Total energy in the final basis set =     -841.3560590159
   14    -841.3559534842      9.51e-10  Convergence criterion met
 Total energy in the final basis set =     -841.3559534842
   14    -841.3560656474      8.40e-10  Convergence criterion met
 Total energy in the final basis set =     -841.3560656474
   14    -841.3560678724      5.59e-10  Convergence criterion met
 Total energy in the final basis set =     -841.3560678724
   14    -841.3560701694      5.71e-10  Convergence criterion met
 Total energy in the final basis set =     -841.3560701694

             Standard Nuclear Orientation (Angstroms)
    I     Atom           X                Y                Z
 ----------------------------------------------------------------
    1      C      -0.1871842013    -1.6894130033     1.2357988871
    2      C      -1.3645714678    -1.4659555327     0.5295914760
    3      C      -2.5521845537    -1.3427328236     1.2394391075
    4      C      -2.5935457725    -1.4493992742     2.6267541933
    5      C      -1.4118747767    -1.6959253051     3.3121338801
    6      C      -0.2163235931    -1.8131354396     2.6165279760
    7      N       0.9795786226    -2.0844723995     3.3146469285
    8      C      -1.3563660062    -1.3779818055    -0.9691992873
    9      C      -3.8973866781    -1.3059986979     3.3566825489
   10      C       1.7900144937    -3.1851226893     3.1136462306
   11      C       2.8764812468    -3.1355268123     4.0052400390
   12      C       2.6990391254    -1.9459553946     4.7905773292
   13      C       1.5142293756    -1.3321132296     4.3347260081
   14      C       3.3739391943    -1.3291023618     5.8293105191
   15      C       2.8348799154    -0.1572207557     6.3384957804
   16      C       1.6559155343     0.3491244093     5.7939949536
   17      N       0.9868829656    -0.2200523656     4.8000079480
   18      C       1.6146465468    -4.2506570232     2.2363512428
   19      C       2.5600513224    -5.2602121013     2.2557839855
   20      C       3.6536070574    -5.2196703574     3.1258256163
   21      C       3.8143846694    -4.1638558980     4.0040263219
   22      H      -3.4740378857    -1.1581040403     0.6971985398
   23      H       0.7559632915    -1.7647153059     0.7074726284
   24      H      -1.4200936553    -1.8013567928     4.3890823763
   25      H      -1.6035521824    -2.3424563747    -1.4179155628
   26      H      -0.3796274161    -1.0831232027    -1.3509526085
   27      H      -2.0889810867    -0.6569593756    -1.3312054264
   28      H      -4.6365459355    -2.0207512624     2.9919834124
   29      H      -4.3173664466    -0.3086091339     3.2175834213
   30      H      -3.7788640760    -1.4671209434     4.4270167926
   31      H       4.2876987673    -1.7463853165     6.2334603344
   32      H       3.3158405449     0.3675959740     7.1517057423
   33      H       1.2304237996     1.2654195611     6.1869802628
   34      H       0.7646956470    -4.3003549165     1.5687908021
   35      H       2.4443406714    -6.1025347974     1.5859558345
   36      H       4.3737131785    -6.0269344096     3.1154805490
   37      H       4.6541597638    -4.1436808024     4.6870612170
 ----------------------------------------------------------------

   14    -841.3560699712      5.67e-10  Convergence criterion met
 Total energy in the final basis set =     -841.3560699712
 Final energy is   -841.356069971153
 **  OPTIMIZATION CONVERGED  **

                    Orbital Energies (a.u.)
 --------------------------------------------------------------

 Alpha MOs
 -- Occupied --
-14.694 -14.639 -10.516 -10.493 -10.492 -10.481 -10.467 -10.460
-10.459 -10.457 -10.455 -10.453 -10.450 -10.450 -10.447 -10.446
-10.445 -10.443 -10.442 -10.433 -10.431  -1.125  -1.045  -0.977
 -0.952  -0.918  -0.883  -0.880  -0.855  -0.826  -0.818  -0.778
 -0.772  -0.746  -0.713  -0.700  -0.664  -0.655  -0.651  -0.602
 -0.597  -0.582  -0.563  -0.556  -0.540  -0.523  -0.509  -0.504
 -0.501  -0.489  -0.484  -0.477  -0.470  -0.469  -0.466  -0.453
 -0.442  -0.441  -0.432  -0.425  -0.409  -0.409  -0.398  -0.397
 -0.381  -0.354  -0.323  -0.315  -0.295  -0.283  -0.263  -0.248

          Ground-State Mulliken Net Atomic Charges

     Atom                 Charge (a.u.)
  ----------------------------------------
      1 C                    -0.352926
      2 C                     0.136264
      3 C                    -0.336105
      4 C                     0.136511
      5 C                    -0.330881
      6 C                     0.358044
      7 N                    -0.726016
      8 C                    -0.715348
      9 C                    -0.716950
     10 C                     0.358929
     11 C                     0.046254
     12 C                     0.033221
     13 C                     0.457386
     14 C                    -0.231018
     15 C                    -0.329724
     16 C                    -0.067337
     17 N                    -0.404833
     18 C                    -0.285063
     19 C                    -0.247734
     20 C                    -0.244848
     21 C                    -0.353701
     22 H                     0.219901
     23 H                     0.247820
     24 H                     0.241354
     25 H                     0.241627
     26 H                     0.238320
     27 H                     0.237670
     28 H                     0.237656
     29 H                     0.242341
     30 H                     0.238895
     31 H                     0.238079
     32 H                     0.243588
     33 H                     0.239387
     34 H                     0.255441
     35 H                     0.236305
     36 H                     0.232749
     37 H                     0.224739
  ----------------------------------------
  Sum of atomic charges =     0.000000

                    Cartesian Multipole Moments
 -----------------------------------------------------------------
    Charge (ESU x 10^10)
                 0.0000
    Dipole Moment (Debye)
         X      -0.3643      Y      -0.7125      Z      -0.5168
       Tot       0.9526
    Quadrupole Moments (Debye-Ang)
        XX    -105.7542     XY      -3.2848     YY    -117.3979
        XZ       8.4759     YZ       3.7572     ZZ    -110.5370

 Total job time:  5111.88s(wall), 19282.34s(cpu)
        *  Thank you very much for using Q-Chem.  Have a nice day.  *
