 Q-Chem 5.1, Q-Chem, Inc., Pleasanton, CA (2018)
 Q-Chem 5.1.1 for Intel X86 EM64T Linux

User input:
--------------------------------------------------------------

$molecule
read MeEt_DPTZ.mol
$end

$rem
threads 8
jobtype	opt
method PBEh-3c
basis def2-mSVP
mem_static	512
mem_total	6096
sym_ignore	true
$end

--------------------------------------------------------------

   15   -1262.2744162691      5.20e-09  Convergence criterion met
 Total energy in the final basis set =    -1262.2744162691
   12   -1262.2853864276      8.41e-09  Convergence criterion met
 Total energy in the final basis set =    -1262.2853864276
   12   -1262.2862792735      4.21e-09  Convergence criterion met
 Total energy in the final basis set =    -1262.2862792735
   11   -1262.2865382220      7.93e-09  Convergence criterion met
 Total energy in the final basis set =    -1262.2865382220
   11   -1262.2865910018      5.70e-09  Convergence criterion met
 Total energy in the final basis set =    -1262.2865910018
   10   -1262.2866401218      3.42e-09  Convergence criterion met
 Total energy in the final basis set =    -1262.2866401218
   10   -1262.2866726230      4.19e-09  Convergence criterion met
 Total energy in the final basis set =    -1262.2866726230
   10   -1262.2867141395      6.69e-09  Convergence criterion met
 Total energy in the final basis set =    -1262.2867141395
   10   -1262.2867636583      5.39e-09  Convergence criterion met
 Total energy in the final basis set =    -1262.2867636583
   10   -1262.2868200684      7.07e-09  Convergence criterion met
 Total energy in the final basis set =    -1262.2868200684
   10   -1262.2867998745      4.50e-09  Convergence criterion met
 Total energy in the final basis set =    -1262.2867998745
    9   -1262.2867988468      5.94e-09  Convergence criterion met
 Total energy in the final basis set =    -1262.2867988468

             Standard Nuclear Orientation (Angstroms)
    I     Atom           X                Y                Z
 ----------------------------------------------------------------
    1      C      -4.7834494791    -0.2286779230     4.2776527387
    2      C      -5.4576973718    -0.5150133168     3.0993580074
    3      C      -4.7271478568    -0.5686381889     1.9150847744
    4      C      -3.3581471193    -0.3433120433     1.8850408987
    5      C      -2.7037287876    -0.0565991158     3.0801940636
    6      C      -3.4115139447    -0.0015691657     4.2667567282
    7      N      -2.7088089993     0.2650658875     5.4742273552
    8      C      -6.9371029184    -0.7718747134     3.0916834071
    9      C      -2.6102465097    -0.3598434204     0.5809420313
   10      C      -2.3736929961    -0.8348001647     6.2792042917
   11      C      -1.4834159384    -0.6791266003     7.3443043331
   12      C      -3.6772316934     2.5109736099     5.5178904873
   13      C      -2.7780562646     1.5629143460     6.0030346390
   14      C      -3.7286624448     3.7829123926     6.0669679686
   15      C      -2.9097416342     4.1294793729     7.1271225581
   16      C      -2.0127825625     3.1936304405     7.6178619172
   17      C      -1.9252267088     1.9354813559     7.0448496907
   18      C      -2.8970796837    -2.1061412141     6.0432772716
   19      C      -2.5503473644    -3.1769867855     6.8524326363
   20      C      -1.7001754872    -3.0034664341     7.9301336371
   21      C      -1.1756137699    -1.7441311186     8.1755938926
   22      H      -5.2433818045    -0.7973398040     0.9878131572
   23      H      -5.3219628121    -0.1905425254     5.2178043608
   24      H      -1.6345209846     0.1170615427     3.0954241147
   25      H      -7.1634105223    -1.7708041662     2.7157814698
   26      H      -7.4601951628    -0.0609541796     2.4503414487
   27      H      -7.3646652957    -0.6909500031     4.0898634803
   28      H      -3.0537785018    -1.1017381822    -0.0874322669
   29      H      -1.5792814452    -0.6781861586     0.7505727543
   30      C      -2.6184686506     1.0075676454    -0.0985660439
   31      H      -4.3358187439     2.2677276259     4.6964473877
   32      H      -4.4292523845     4.5004624823     5.6609216759
   33      H      -2.9601899940     5.1163659787     7.5658920524
   34      H      -1.3568481381     3.4423935804     8.4422581862
   35      H      -3.5680904560    -2.2761054604     5.2140562465
   36      H      -2.9628050582    -4.1533420469     6.6345410841
   37      H      -1.4397018803    -3.8356134307     8.5696694149
   38      H      -0.5012154584    -1.5843282110     9.0070808148
   39      H      -2.0715333394     0.9803649856    -1.0413557647
   40      H      -2.1565873226     1.7643324688     0.5358577439
   41      H      -3.6368155022     1.3344437510    -0.3110264067
   42      S      -0.6357070079     0.8470069067     7.5380417621
 ----------------------------------------------------------------

    9   -1262.2867990309      2.93e-09  Convergence criterion met
 Total energy in the final basis set =    -1262.2867990309
 Final energy is   -1262.28679903095
 **  OPTIMIZATION CONVERGED  **

                    Orbital Energies (a.u.)
 --------------------------------------------------------------

 Alpha MOs
 -- Occupied --
-89.591 -14.680 -10.498 -10.498 -10.491 -10.476 -10.476 -10.467
-10.463 -10.452 -10.450 -10.450 -10.450 -10.450 -10.447 -10.446
-10.446 -10.445 -10.444 -10.442 -10.442 -10.441 -10.432  -8.230
 -6.121  -6.118  -6.113  -1.090  -0.978  -0.965  -0.954  -0.899
 -0.895  -0.864  -0.855  -0.842  -0.825  -0.812  -0.782  -0.764
 -0.723  -0.718  -0.708  -0.679  -0.656  -0.654  -0.632  -0.615
 -0.591  -0.568  -0.564  -0.543  -0.536  -0.523  -0.522  -0.506
 -0.499  -0.497  -0.489  -0.486  -0.479  -0.478  -0.473  -0.458
 -0.450  -0.443  -0.433  -0.428  -0.427  -0.417  -0.416  -0.405
 -0.397  -0.393  -0.392  -0.376  -0.370  -0.342  -0.303  -0.296
 -0.293  -0.287  -0.264  -0.221

          Ground-State Mulliken Net Atomic Charges

     Atom                 Charge (a.u.)
  ----------------------------------------
      1 C                    -0.319003
      2 C                     0.142494
      3 C                    -0.332055
      4 C                     0.172728
      5 C                    -0.311407
      6 C                     0.234337
      7 N                    -0.706000
      8 C                    -0.711332
      9 C                    -0.502343
     10 C                     0.420547
     11 C                    -0.189455
     12 C                    -0.298076
     13 C                     0.423186
     14 C                    -0.223024
     15 C                    -0.231993
     16 C                    -0.247613
     17 C                    -0.192532
     18 C                    -0.295687
     19 C                    -0.222923
     20 C                    -0.231814
     21 C                    -0.248552
     22 H                     0.206392
     23 H                     0.240931
     24 H                     0.227918
     25 H                     0.236113
     26 H                     0.235571
     27 H                     0.233495
     28 H                     0.226950
     29 H                     0.231971
     30 C                    -0.633332
     31 H                     0.256928
     32 H                     0.219955
     33 H                     0.218682
     34 H                     0.231513
     35 H                     0.257739
     36 H                     0.219879
     37 H                     0.218606
     38 H                     0.231163
     39 H                     0.220968
     40 H                     0.226092
     41 H                     0.219030
     42 S                     0.143953
  ----------------------------------------
  Sum of atomic charges =     0.000000

                    Cartesian Multipole Moments
 -----------------------------------------------------------------
    Charge (ESU x 10^10)
                 0.0000
    Dipole Moment (Debye)
         X      -2.2205      Y      -0.5838      Z      -2.3335
       Tot       3.2736
    Quadrupole Moments (Debye-Ang)
        XX    -124.1890     XY       1.2416     YY    -133.3500
        XZ       0.8253     YZ      -2.3645     ZZ    -155.6369

 Total job time:  919.62s(wall), 7322.31s(cpu)
        *  Thank you very much for using Q-Chem.  Have a nice day.  *
