 Q-Chem 5.1, Q-Chem, Inc., Pleasanton, CA (2018)
 Q-Chem 5.1.1 for Intel X86 EM64T Linux

User input:
--------------------------------------------------------------
$rem
threads 4
jobtype	opt
method PBEh-3c
basis def2-mSVP
mem_static	1024
mem_total	3000
sym_ignore	true
scf_convergence	9
solvent_method	pcm
$end

$molecule
read MeEt_NPh3.mol
$end

$solvent
dielectric	2.38
$end

$pcm
theory iefpcm
$end

--------------------------------------------------------------

   16    -865.7349107996      4.62e-10  Convergence criterion met
 Total energy in the final basis set =     -865.7349107996
   14    -865.7418130373      4.86e-10  Convergence criterion met
 Total energy in the final basis set =     -865.7418130373
   13    -865.7419311816      9.88e-10  Convergence criterion met
 Total energy in the final basis set =     -865.7419311816
   14    -865.7420217059      3.17e-10  Convergence criterion met
 Total energy in the final basis set =     -865.7420217059

             Standard Nuclear Orientation (Angstroms)
    I     Atom           X                Y                Z
 ----------------------------------------------------------------
    1      C      -4.7540843635    -0.1879089231     4.4157683634
    2      C      -5.4062019241    -0.7847425019     3.3457591797
    3      C      -4.6777979090    -1.0816045364     2.1975399113
    4      C      -3.3236318845    -0.7842869616     2.1022811183
    5      C      -2.6916539150    -0.1705376422     3.1769497579
    6      C      -3.3995651624     0.1259302862     4.3363297156
    7      N      -2.7494666556     0.7325227791     5.4284676868
    8      C      -6.8671228901    -1.1238964970     3.4247376421
    9      C      -2.5733282696    -1.0612603756     0.8283929329
   10      C      -1.5301555021     0.2105146875     5.8857360413
   11      C      -0.5203555642     1.0570773905     6.3425919169
   12      C      -4.0336859868     2.7875196269     5.3779767641
   13      C      -3.3802630809     1.7905772007     6.1020204515
   14      C      -4.6836597845     3.8177965521     6.0365504363
   15      C      -4.6785698524     3.8836649109     7.4230688480
   16      C      -4.0213873152     2.8970100817     8.1445639609
   17      C      -3.3845223874     1.8519045681     7.4949068385
   18      C      -1.3094333020    -1.1671023953     5.8828283857
   19      C      -0.0997101970    -1.6819021267     6.3179608227
   20      C       0.9013544963    -0.8394761949     6.7804796252
   21      C       0.6790667230     0.5304836500     6.7935689560
   22      H      -5.1771480313    -1.5572581534     1.3590906393
   23      H      -5.3024299778     0.0329648991     5.3236434475
   24      H      -1.6382108651     0.0764639883     3.1138730250
   25      H      -7.0363609236    -2.1883478533     3.2559446606
   26      H      -7.4386534954    -0.5840113256     2.6678795146
   27      H      -7.2869551042    -0.8710298675     4.3972931193
   28      H      -2.9294217058    -1.9962992393     0.3891138113
   29      H      -1.5133809665    -1.2069793443     1.0480359146
   30      C      -2.7329530545     0.0692438308    -0.1862809209
   31      H      -0.6746356357     2.1285011977     6.3412147522
   32      H      -4.0359187678     2.7501268129     4.2959914292
   33      H      -5.1880651100     4.5811003111     5.4580620143
   34      H      -5.1822140886     4.6927411323     7.9349573439
   35      H      -4.0168251974     2.9284411738     9.2265344359
   36      H      -2.8943184504     1.0767224806     8.0699581888
   37      H      -2.0870355649    -1.8368283690     5.5383484012
   38      H       0.0536362001    -2.7534766885     6.3071665953
   39      H       1.8426860307    -1.2453349245     7.1261851135
   40      H       1.4523842642     1.2015185429     7.1447318913
   41      H      -2.1839119095    -0.1457981447    -1.1038054247
   42      H      -2.3593626123     1.0116664319     0.2154329122
   43      H      -3.7810303072     0.2158895297    -0.4498502194
 ----------------------------------------------------------------

   13    -865.7420226868      6.98e-10  Convergence criterion met
 Total energy in the final basis set =     -865.7420226868
 Final energy is   -865.742022686768
 **  OPTIMIZATION CONVERGED  **

                    Orbital Energies (a.u.)
 --------------------------------------------------------------

 Alpha MOs
 -- Occupied --
-14.669 -10.490 -10.490 -10.486 -10.455 -10.452 -10.447 -10.447
-10.447 -10.447 -10.444 -10.444 -10.443 -10.443 -10.442 -10.441
-10.438 -10.438 -10.437 -10.435 -10.430 -10.424  -1.080  -0.963
 -0.960  -0.940  -0.886  -0.862  -0.850  -0.838  -0.836  -0.817
 -0.794  -0.769  -0.715  -0.707  -0.700  -0.680  -0.674  -0.643
 -0.637  -0.606  -0.587  -0.565  -0.553  -0.545  -0.541  -0.521
 -0.510  -0.501  -0.496  -0.493  -0.484  -0.481  -0.480  -0.475
 -0.466  -0.449  -0.441  -0.433  -0.427  -0.423  -0.421  -0.411
 -0.410  -0.402  -0.400  -0.395  -0.385  -0.380  -0.355  -0.303
 -0.300  -0.298  -0.289  -0.277  -0.222

          Ground-State Mulliken Net Atomic Charges

     Atom                 Charge (a.u.)
  ----------------------------------------
      1 C                    -0.358205
      2 C                     0.148119
      3 C                    -0.360022
      4 C                     0.175332
      5 C                    -0.365623
      6 C                     0.318122
      7 N                    -0.672387
      8 C                    -0.717825
      9 C                    -0.503226
     10 C                     0.299580
     11 C                    -0.289832
     12 C                    -0.286154
     13 C                     0.294436
     14 C                    -0.228502
     15 C                    -0.253287
     16 C                    -0.229397
     17 C                    -0.290386
     18 C                    -0.291610
     19 C                    -0.228509
     20 C                    -0.254064
     21 C                    -0.229260
     22 H                     0.213929
     23 H                     0.243774
     24 H                     0.241457
     25 H                     0.237269
     26 H                     0.238172
     27 H                     0.237111
     28 H                     0.230354
     29 H                     0.233088
     30 C                    -0.641496
     31 H                     0.254349
     32 H                     0.253537
     33 H                     0.234926
     34 H                     0.232060
     35 H                     0.235180
     36 H                     0.254776
     37 H                     0.255428
     38 H                     0.234710
     39 H                     0.231544
     40 H                     0.234724
     41 H                     0.222323
     42 H                     0.224208
     43 H                     0.221278
  ----------------------------------------
  Sum of atomic charges =     0.000000

                    Cartesian Multipole Moments
 -----------------------------------------------------------------
    Charge (ESU x 10^10)
                 0.0000
    Dipole Moment (Debye)
         X      -0.4874      Y      -0.2886      Z      -0.6536
       Tot       0.8648
    Quadrupole Moments (Debye-Ang)
        XX    -117.7620     XY      -1.1995     YY    -123.6509
        XZ       2.4962     YZ       2.4631     ZZ    -127.2134

 Total job time:  2699.41s(wall), 10207.85s(cpu)
        *  Thank you very much for using Q-Chem.  Have a nice day.  *
