 Q-Chem 5.1, Q-Chem, Inc., Pleasanton, CA (2018)
 Q-Chem 5.1.1 for Intel X86 EM64T Linux

User input:
--------------------------------------------------------------
$rem
threads 4
jobtype opt
method PBEh-3c
basis def2-mSVP
mem_static      1024
mem_total       4000
sym_ignore      true
unrestricted true
scf_algorithm	diis
scf_max_cycles	250
solvent_method  pcm
geom_opt_tol_energy 25
geom_opt_tol_gradient 75
$end

$pcm
theory  iefpcm
$end

$solvent
dielectric      1.0001
$end

$molecule
read MeEt_NPh3_kat.mol
$end
--------------------------------------------------------------

   19    -865.4823423754      8.45e-09  Convergence criterion met
 Total energy in the final basis set =     -865.4823423754
   15    -865.4910714650      9.89e-09  Convergence criterion met
 Total energy in the final basis set =     -865.4910714650
   15    -865.4911517993      5.99e-09  Convergence criterion met
 Total energy in the final basis set =     -865.4911517993
   14    -865.4917459743      9.83e-09  Convergence criterion met
 Total energy in the final basis set =     -865.4917459743
   12    -865.4917773119      7.37e-09  Convergence criterion met
 Total energy in the final basis set =     -865.4917773119
   13    -865.4917716802      5.98e-09  Convergence criterion met
 Total energy in the final basis set =     -865.4917716802
   12    -865.4917952952      9.35e-09  Convergence criterion met
 Total energy in the final basis set =     -865.4917952952
   12    -865.4917971400      7.90e-09  Convergence criterion met
 Total energy in the final basis set =     -865.4917971400
   11    -865.4917967712      7.28e-09  Convergence criterion met
 Total energy in the final basis set =     -865.4917967712
    9    -865.4917944847      7.76e-09  Convergence criterion met
 Total energy in the final basis set =     -865.4917944847
   10    -865.4917890493      7.33e-09  Convergence criterion met
 Total energy in the final basis set =     -865.4917890493

             Standard Nuclear Orientation (Angstroms)
    I     Atom           X                Y                Z
 ----------------------------------------------------------------
    1      C      -4.8062235295    -0.0707133465     4.3869129220
    2      C      -5.4453511499    -0.6590897738     3.3119129264
    3      C      -4.6764919306    -1.0293553202     2.2057180784
    4      C      -3.2963477322    -0.8326496277     2.1471102922
    5      C      -2.6664746936    -0.2556470494     3.2352884993
    6      C      -3.4193806524     0.1273993589     4.3519262672
    7      N      -2.7845525721     0.7064379023     5.4470641657
    8      C      -6.9219186481    -0.9133417142     3.3238512612
    9      C      -2.5336471820    -1.1817292625     0.9012835636
   10      C      -1.5350768463     0.2336468406     5.8593031972
   11      C      -0.5625071307     1.1304154679     6.3140998803
   12      C      -4.1088903301     2.7297072369     5.4387979720
   13      C      -3.4125231623     1.7435181699     6.1463249471
   14      C      -4.7410109258     3.7415540727     6.1327189801
   15      C      -4.6905868875     3.7747060657     7.5219276216
   16      C      -3.9988518883     2.7916371922     8.2215127071
   17      C      -3.3544746365     1.7765375072     7.5432787450
   18      C      -1.2730842979    -1.1410339665     5.8161254954
   19      C      -0.0406799373    -1.6081762838     6.2243465231
   20      C       0.9312916574    -0.7195583382     6.6705123619
   21      C       0.6667435354     0.6454755409     6.7129345207
   22      H      -5.1727508577    -1.4901610471     1.3579453156
   23      H      -5.3689640233     0.1953398836     5.2726391250
   24      H      -1.6009622803    -0.0645258616     3.2070760038
   25      H      -7.1394725988    -1.9733715205     3.1913894995
   26      H      -7.4152667419    -0.3789418858     2.5111289404
   27      H      -7.3826275432    -0.5941666571     4.2567123164
   28      H      -2.8983600824    -2.1330772210     0.5075225111
   29      H      -1.4799965889    -1.3340656511     1.1423951915
   30      C      -2.6668070962    -0.0994098816    -0.1686720293
   31      H      -0.7612187376     2.1939510129     6.3199385232
   32      H      -4.1262074943     2.7135685055     4.3569435283
   33      H      -5.2660407055     4.5146043886     5.5891390921
   34      H      -5.1912999643     4.5674709978     8.0605071587
   35      H      -3.9751806536     2.8100510091     9.3021378315
   36      H      -2.8433902114     0.9932440852     8.0872391512
   37      H      -2.0419105591    -1.8329880036     5.4983240441
   38      H       0.1592049755    -2.6705768724     6.2097141403
   39      H       1.8958030883    -1.0913106572     6.9880446263
   40      H       1.4291302959     1.3348696526     7.0476795426
   41      H      -2.1131648544    -0.3761197102    -1.0647641076
   42      H      -2.2774579694     0.8560171171     0.1827995627
   43      H      -3.7073204570     0.0521576446    -0.4567908950
 ----------------------------------------------------------------

   10    -865.4917881471      7.34e-09  Convergence criterion met
 Total energy in the final basis set =     -865.4917881471
 Final energy is   -865.491788147096
 **  OPTIMIZATION CONVERGED  **

                    Orbital Energies (a.u.)
 --------------------------------------------------------------

 Alpha MOs
 -- Occupied --
-14.886 -10.642 -10.642 -10.641 -10.595 -10.595 -10.595 -10.594
-10.589 -10.588 -10.588 -10.587 -10.586 -10.586 -10.581 -10.581
-10.581 -10.581 -10.581 -10.549 -10.543 -10.524  -1.272  -1.108
 -1.107  -1.085  -1.016  -1.008  -0.998  -0.981  -0.981  -0.950
 -0.932  -0.900  -0.861  -0.856  -0.829  -0.824  -0.816  -0.781
 -0.771  -0.751  -0.730  -0.707  -0.698  -0.691  -0.689  -0.665
 -0.653  -0.636  -0.634  -0.628  -0.623  -0.618  -0.606  -0.600
 -0.594  -0.589  -0.575  -0.569  -0.560  -0.555  -0.551  -0.550
 -0.542  -0.540  -0.534  -0.532  -0.509  -0.498  -0.496  -0.446
 -0.442  -0.440  -0.430  -0.417  -0.385

 Beta MOs
 -- Occupied --
-14.875 -10.643 -10.643 -10.643 -10.593 -10.593 -10.592 -10.592
-10.591 -10.588 -10.586 -10.585 -10.584 -10.584 -10.583 -10.583
-10.582 -10.582 -10.578 -10.549 -10.543 -10.524  -1.254  -1.105
 -1.104  -1.081  -1.015  -1.005  -0.995  -0.979  -0.978  -0.944
 -0.926  -0.897  -0.857  -0.853  -0.827  -0.821  -0.814  -0.779
 -0.769  -0.749  -0.728  -0.704  -0.691  -0.686  -0.681  -0.662
 -0.652  -0.634  -0.632  -0.626  -0.622  -0.617  -0.603  -0.596
 -0.592  -0.576  -0.572  -0.562  -0.558  -0.553  -0.548  -0.543
 -0.540  -0.538  -0.533  -0.528  -0.501  -0.495  -0.484  -0.438
 -0.431  -0.430  -0.416  -0.410

          Ground-State Mulliken Net Atomic Charges

     Atom                 Charge (a.u.)    Spin (a.u.)
  --------------------------------------------------------
      1 C                    -0.336630       0.151822
      2 C                     0.156680      -0.111276
      3 C                    -0.311342       0.235435
      4 C                     0.191437      -0.113292
      5 C                    -0.348741       0.156531
      6 C                     0.309619      -0.063849
      7 N                    -0.557473       0.426239
      8 C                    -0.710489       0.008759
      9 C                    -0.511139       0.008268
     10 C                     0.261624      -0.075292
     11 C                    -0.253231       0.139013
     12 C                    -0.250194       0.138083
     13 C                     0.257674      -0.074560
     14 C                    -0.213902      -0.097772
     15 C                    -0.204874       0.176391
     16 C                    -0.214222      -0.095805
     17 C                    -0.251945       0.135722
     18 C                    -0.251121       0.143141
     19 C                    -0.214016      -0.101285
     20 C                    -0.204507       0.182796
     21 C                    -0.214044      -0.098511
     22 H                     0.249535      -0.013224
     23 H                     0.274914      -0.007862
     24 H                     0.273634      -0.008104
     25 H                     0.260167      -0.003661
     26 H                     0.258757      -0.003122
     27 H                     0.245490      -0.000523
     28 H                     0.251607      -0.001505
     29 H                     0.242445      -0.000911
     30 C                    -0.636767      -0.002974
     31 H                     0.282505      -0.007206
     32 H                     0.282103      -0.007086
     33 H                     0.268229       0.004941
     34 H                     0.271204      -0.009549
     35 H                     0.269058       0.004846
     36 H                     0.281956      -0.007049
     37 H                     0.284330      -0.007339
     38 H                     0.268564       0.005140
     39 H                     0.271408      -0.009892
     40 H                     0.269198       0.004898
     41 H                     0.250560      -0.000663
     42 H                     0.225001       0.000168
     43 H                     0.226939       0.000119
  --------------------------------------------------------
  Sum of atomic charges =     1.000000

                    Cartesian Multipole Moments
 -----------------------------------------------------------------
    Charge (ESU x 10^10)
                 4.8032
    Dipole Moment (Debye)
         X     -14.1495      Y       2.7254      Z      24.5953
       Tot      28.5056
    Quadrupole Moments (Debye-Ang)
        XX     -48.7741     XY     -17.0956     YY    -100.5908
        XZ     -62.3595     YZ      29.7562     ZZ      33.8341

 Total job time:  3456.75s(wall), 12844.28s(cpu)
        *  Thank you very much for using Q-Chem.  Have a nice day.  *
