 Q-Chem 5.1, Q-Chem, Inc., Pleasanton, CA (2018)
 Q-Chem 5.1.1 for Intel X86 EM64T Linux

User input:
--------------------------------------------------------------
$rem
threads 4
jobtype	opt
method PBEh-3c
basis def2-mSVP
mem_static	1024
mem_total	3000
sym_ignore	true
scf_convergence	9
solvent_method	pcm
$end

$molecule
read MeEt_DPTZ.mol
$end

$solvent
dielectric	2.38
$end

$pcm
theory iefpcm
$end

--------------------------------------------------------------

   17   -1262.2809127721      2.22e-10  Convergence criterion met
 Total energy in the final basis set =    -1262.2809127721
   14   -1262.2915779418      9.11e-10  Convergence criterion met
 Total energy in the final basis set =    -1262.2915779418
   14   -1262.2924517321      9.03e-10  Convergence criterion met
 Total energy in the final basis set =    -1262.2924517321
   14   -1262.2927111998      8.45e-10  Convergence criterion met
 Total energy in the final basis set =    -1262.2927111998
   14   -1262.2927622941      8.00e-10  Convergence criterion met
 Total energy in the final basis set =    -1262.2927622941
   14   -1262.2928098030      5.98e-10  Convergence criterion met
 Total energy in the final basis set =    -1262.2928098030
   14   -1262.2928390713      6.32e-10  Convergence criterion met
 Total energy in the final basis set =    -1262.2928390713
   14   -1262.2928714636      6.56e-10  Convergence criterion met
 Total energy in the final basis set =    -1262.2928714636
   14   -1262.2929069915      6.43e-10  Convergence criterion met
 Total energy in the final basis set =    -1262.2929069915
   14   -1262.2929647170      6.99e-10  Convergence criterion met
 Total energy in the final basis set =    -1262.2929647170
   14   -1262.2929570277      5.94e-10  Convergence criterion met
 Total energy in the final basis set =    -1262.2929570277

             Standard Nuclear Orientation (Angstroms)
    I     Atom           X                Y                Z
 ----------------------------------------------------------------
    1      C      -4.7835552342    -0.2318115876     4.2777623006
    2      C      -5.4571767890    -0.5170698091     3.0982122443
    3      C      -4.7258862176    -0.5678016278     1.9136177946
    4      C      -3.3566249603    -0.3407498842     1.8840538070
    5      C      -2.7021883895    -0.0552539226     3.0801639631
    6      C      -3.4118265673    -0.0033488564     4.2661392628
    7      N      -2.7089667559     0.2633512845     5.4753952685
    8      C      -6.9363174181    -0.7752593647     3.0896392950
    9      C      -2.6085244703    -0.3553846989     0.5799222274
   10      C      -2.3746398475    -0.8354953197     6.2811504007
   11      C      -1.4836933575    -0.6811583076     7.3464752585
   12      C      -3.6767863073     2.5096235156     5.5180955800
   13      C      -2.7770093342     1.5611574829     6.0032759058
   14      C      -3.7272883221     3.7825299299     6.0659694981
   15      C      -2.9065195594     4.1308815020     7.1252536898
   16      C      -2.0087698984     3.1953131931     7.6164349340
   17      C      -1.9236745349     1.9358773674     7.0444283418
   18      C      -2.8996111543    -2.1072435561     6.0469120865
   19      C      -2.5538896334    -3.1779133196     6.8574334643
   20      C      -1.7023304250    -3.0047896938     7.9351967353
   21      C      -1.1754834345    -1.7456004237     8.1793154160
   22      H      -5.2417357047    -0.7954088100     0.9858576386
   23      H      -5.3238727098    -0.1958226451     5.2170934931
   24      H      -1.6329928886     0.1198130790     3.0938076990
   25      H      -7.1607594851    -1.7724626588     2.7079785003
   26      H      -7.4589816988    -0.0620614324     2.4504149846
   27      H      -7.3633081959    -0.6991576742     4.0884514328
   28      H      -3.0502876053    -1.0989736877    -0.0876192084
   29      H      -1.5760295919    -0.6680662945     0.7503301911
   30      C      -2.6230097687     1.0115410828    -0.1009814062
   31      H      -4.3377522229     2.2659902298     4.6985599792
   32      H      -4.4286494568     4.4994704234     5.6598125410
   33      H      -2.9558420847     5.1186170838     7.5625854732
   34      H      -1.3510146162     3.4465031631     8.4389239312
   35      H      -3.5726294460    -2.2777795523     5.2193035815
   36      H      -2.9682744206    -4.1538497960     6.6406629739
   37      H      -1.4422672311    -3.8368606781     8.5752377868
   38      H      -0.4990922089    -1.5871649413     9.0097210076
   39      H      -2.0760437345     0.9840741017    -1.0438426220
   40      H      -2.1630748348     1.7708518468     0.5321455581
   41      H      -3.6429905639     1.3333912964    -0.3142573613
   42      S      -0.6347289203     0.8456019601     7.5385663513
 ----------------------------------------------------------------

   14   -1262.2929569369      5.91e-10  Convergence criterion met
 Total energy in the final basis set =    -1262.2929569369
 Final energy is   -1262.29295693686
 **  OPTIMIZATION CONVERGED  **

                    Orbital Energies (a.u.)
 --------------------------------------------------------------

 Alpha MOs
 -- Occupied --
-89.596 -14.683 -10.502 -10.502 -10.490 -10.481 -10.480 -10.464
-10.460 -10.453 -10.453 -10.449 -10.449 -10.448 -10.448 -10.447
-10.447 -10.447 -10.444 -10.444 -10.442 -10.436 -10.427  -8.236
 -6.127  -6.123  -6.118  -1.092  -0.978  -0.968  -0.955  -0.902
 -0.892  -0.863  -0.857  -0.844  -0.823  -0.813  -0.778  -0.767
 -0.722  -0.716  -0.711  -0.681  -0.656  -0.650  -0.634  -0.617
 -0.590  -0.566  -0.561  -0.545  -0.537  -0.526  -0.522  -0.504
 -0.500  -0.497  -0.488  -0.484  -0.479  -0.478  -0.472  -0.454
 -0.447  -0.442  -0.431  -0.430  -0.427  -0.417  -0.415  -0.404
 -0.394  -0.393  -0.388  -0.379  -0.372  -0.347  -0.305  -0.299
 -0.293  -0.285  -0.268  -0.225

          Ground-State Mulliken Net Atomic Charges

     Atom                 Charge (a.u.)
  ----------------------------------------
      1 C                    -0.324003
      2 C                     0.133051
      3 C                    -0.339363
      4 C                     0.161849
      5 C                    -0.320817
      6 C                     0.231507
      7 N                    -0.703727
      8 C                    -0.717563
      9 C                    -0.503360
     10 C                     0.417994
     11 C                    -0.195213
     12 C                    -0.306963
     13 C                     0.420321
     14 C                    -0.236789
     15 C                    -0.247898
     16 C                    -0.258140
     17 C                    -0.197975
     18 C                    -0.305170
     19 C                    -0.236597
     20 C                    -0.247837
     21 C                    -0.259047
     22 H                     0.220931
     23 H                     0.251986
     24 H                     0.239173
     25 H                     0.241125
     26 H                     0.240795
     27 H                     0.239193
     28 H                     0.232415
     29 H                     0.236773
     30 C                    -0.642338
     31 H                     0.267471
     32 H                     0.236871
     33 H                     0.235057
     34 H                     0.246532
     35 H                     0.268115
     36 H                     0.236730
     37 H                     0.234992
     38 H                     0.246264
     39 H                     0.225180
     40 H                     0.227402
     41 H                     0.221450
     42 S                     0.129624
  ----------------------------------------
  Sum of atomic charges =     0.000000

                    Cartesian Multipole Moments
 -----------------------------------------------------------------
    Charge (ESU x 10^10)
                 0.0000
    Dipole Moment (Debye)
         X      -2.5906      Y      -0.6786      Z      -2.5995
       Tot       3.7322
    Quadrupole Moments (Debye-Ang)
        XX    -121.2247     XY       1.3547     YY    -131.6133
        XZ       0.0465     YZ      -2.8496     ZZ    -157.0138

 Total job time:  4124.00s(wall), 15101.24s(cpu)
        *  Thank you very much for using Q-Chem.  Have a nice day.  *
