 Q-Chem 5.1, Q-Chem, Inc., Pleasanton, CA (2018)
 Q-Chem 5.1.1 for Intel X86 EM64T Linux

User input:
--------------------------------------------------------------
$rem
threads 4
jobtype opt
method PBEh-3c
basis def2-mSVP
mem_static      1024
mem_total       4000
sym_ignore      true
unrestricted true
scf_algorithm	diis
scf_max_cycles	250
solvent_method  pcm
geom_opt_tol_energy 25
geom_opt_tol_gradient 75
$end

$pcm
theory  iefpcm
$end

$solvent
dielectric      2.38
$end

$molecule
read MeEt_NPh3_kat.mol
$end
--------------------------------------------------------------

   18    -865.5195575788      6.85e-09  Convergence criterion met
 Total energy in the final basis set =     -865.5195575788
   15    -865.5282549646      7.26e-09  Convergence criterion met
 Total energy in the final basis set =     -865.5282549646
   15    -865.5283274554      6.00e-09  Convergence criterion met
 Total energy in the final basis set =     -865.5283274554
   14    -865.5289410959      8.09e-09  Convergence criterion met
 Total energy in the final basis set =     -865.5289410959
   13    -865.5289578532      4.49e-09  Convergence criterion met
 Total energy in the final basis set =     -865.5289578532
   14    -865.5289564789      6.30e-09  Convergence criterion met
 Total energy in the final basis set =     -865.5289564789
   14    -865.5289775680      6.45e-09  Convergence criterion met
 Total energy in the final basis set =     -865.5289775680
   14    -865.5289806169      6.31e-09  Convergence criterion met
 Total energy in the final basis set =     -865.5289806169

             Standard Nuclear Orientation (Angstroms)
    I     Atom           X                Y                Z
 ----------------------------------------------------------------
    1      C      -4.8063998254    -0.0786945668     4.3923382983
    2      C      -5.4461332160    -0.6671034500     3.3175774372
    3      C      -4.6799298712    -1.0354879548     2.2090378812
    4      C      -3.3007100737    -0.8357735681     2.1493301423
    5      C      -2.6683427935    -0.2591749141     3.2366398372
    6      C      -3.4202857529     0.1214096060     4.3540173181
    7      N      -2.7849225650     0.7026075427     5.4476552262
    8      C      -6.9226448135    -0.9216352135     3.3319409101
    9      C      -2.5391049322    -1.1786576711     0.9010729473
   10      C      -1.5364309894     0.2298100442     5.8601033407
   11      C      -0.5635120935     1.1276039947     6.3119723306
   12      C      -4.1079906347     2.7256202438     5.4290666391
   13      C      -3.4116283123     1.7429713982     6.1415103909
   14      C      -4.7408379220     3.7399241632     6.1191377810
   15      C      -4.6906817555     3.7788467999     7.5084526072
   16      C      -3.9985957007     2.7988426840     8.2123751224
   17      C      -3.3537382553     1.7810661842     7.5382572263
   18      C      -1.2758201605    -1.1451904169     5.8182582934
   19      C      -0.0419892588    -1.6117730701     6.2234013793
   20      C       0.9314729586    -0.7224546385     6.6657878218
   21      C       0.6668942308     0.6427908827     6.7081510676
   22      H      -5.1772427573    -1.4958135949     1.3615844842
   23      H      -5.3685289284     0.1858064531     5.2791090063
   24      H      -1.6030111238    -0.0668647059     3.2058826097
   25      H      -7.1395281549    -1.9809517668     3.1921636873
   26      H      -7.4166745347    -0.3820219500     2.5229380622
   27      H      -7.3786812899    -0.6073604201     4.2687741840
   28      H      -2.9176005050    -2.1178067007     0.4916759284
   29      H      -1.4882640763    -1.3471107119     1.1434662582
   30      C      -2.6553853970    -0.0780294256    -0.1517774965
   31      H      -0.7620403906     2.1912007320     6.3172803079
   32      H      -4.1252701625     2.7059916182     4.3472442804
   33      H      -5.2667857609     4.5098530981     5.5718984175
   34      H      -5.1922096463     4.5735366523     8.0436691407
   35      H      -3.9749456275     2.8211220900     9.2930048180
   36      H      -2.8441532402     0.9992942966     8.0857592525
   37      H      -2.0454326268    -1.8380998635     5.5045041891
   38      H       0.1577217441    -2.6742770822     6.2086596176
   39      H       1.8972229117    -1.0939159335     6.9803104070
   40      H       1.4298552622     1.3328790528     7.0403930497
   41      H      -2.1043974363    -0.3478176284    -1.0521252135
   42      H      -2.2531952402     0.8656384711     0.2173764651
   43      H      -3.6944212826     0.0914992396    -0.4358754540
 ----------------------------------------------------------------

   14    -865.5289833623      6.07e-09  Convergence criterion met
 Total energy in the final basis set =     -865.5289833623
 Final energy is   -865.528983362316
 **  OPTIMIZATION CONVERGED  **

                    Orbital Energies (a.u.)
 --------------------------------------------------------------

 Alpha MOs
 -- Occupied --
-14.821 -10.576 -10.576 -10.576 -10.529 -10.529 -10.529 -10.529
-10.525 -10.523 -10.522 -10.522 -10.521 -10.521 -10.516 -10.516
-10.516 -10.516 -10.516 -10.487 -10.480 -10.466  -1.206  -1.043
 -1.041  -1.020  -0.952  -0.943  -0.933  -0.916  -0.915  -0.886
 -0.869  -0.836  -0.796  -0.791  -0.767  -0.758  -0.751  -0.716
 -0.707  -0.685  -0.665  -0.641  -0.632  -0.625  -0.623  -0.600
 -0.587  -0.570  -0.568  -0.563  -0.557  -0.555  -0.541  -0.536
 -0.531  -0.525  -0.511  -0.505  -0.495  -0.491  -0.487  -0.484
 -0.479  -0.475  -0.470  -0.467  -0.446  -0.437  -0.435  -0.381
 -0.377  -0.375  -0.365  -0.352  -0.320

 Beta MOs
 -- Occupied --
-14.809 -10.578 -10.577 -10.577 -10.527 -10.527 -10.526 -10.526
-10.526 -10.523 -10.520 -10.520 -10.519 -10.519 -10.517 -10.517
-10.517 -10.517 -10.513 -10.487 -10.480 -10.466  -1.188  -1.040
 -1.038  -1.016  -0.951  -0.940  -0.930  -0.914  -0.913  -0.880
 -0.863  -0.833  -0.792  -0.787  -0.764  -0.755  -0.749  -0.713
 -0.706  -0.683  -0.663  -0.638  -0.625  -0.620  -0.616  -0.597
 -0.586  -0.568  -0.566  -0.560  -0.556  -0.554  -0.539  -0.534
 -0.530  -0.511  -0.508  -0.497  -0.493  -0.490  -0.483  -0.479
 -0.476  -0.473  -0.468  -0.465  -0.440  -0.435  -0.420  -0.373
 -0.366  -0.365  -0.352  -0.346

          Ground-State Mulliken Net Atomic Charges

     Atom                 Charge (a.u.)    Spin (a.u.)
  --------------------------------------------------------
      1 C                    -0.337753       0.151845
      2 C                     0.148656      -0.110982
      3 C                    -0.314963       0.229812
      4 C                     0.179733      -0.113079
      5 C                    -0.347687       0.157641
      6 C                     0.311582      -0.067433
      7 N                    -0.556043       0.430844
      8 C                    -0.714837       0.008742
      9 C                    -0.507574       0.008233
     10 C                     0.266072      -0.076836
     11 C                    -0.256635       0.141482
     12 C                    -0.254109       0.140046
     13 C                     0.262314      -0.076058
     14 C                    -0.224546      -0.098868
     15 C                    -0.213913       0.177250
     16 C                    -0.225191      -0.097212
     17 C                    -0.255186       0.138069
     18 C                    -0.254869       0.145265
     19 C                    -0.224661      -0.102506
     20 C                    -0.213452       0.183855
     21 C                    -0.224928      -0.100037
     22 H                     0.255787      -0.012869
     23 H                     0.285517      -0.007761
     24 H                     0.283882      -0.008069
     25 H                     0.257908      -0.003626
     26 H                     0.257496      -0.003160
     27 H                     0.248423      -0.000512
     28 H                     0.250618      -0.001451
     29 H                     0.245521      -0.000932
     30 C                    -0.643865      -0.002958
     31 H                     0.292766      -0.007257
     32 H                     0.292352      -0.007113
     33 H                     0.273891       0.004986
     34 H                     0.275417      -0.009589
     35 H                     0.274384       0.004916
     36 H                     0.291902      -0.007103
     37 H                     0.294251      -0.007373
     38 H                     0.274248       0.005187
     39 H                     0.275681      -0.009942
     40 H                     0.274547       0.004970
     41 H                     0.243703      -0.000696
     42 H                     0.225640       0.000161
     43 H                     0.227922       0.000116
  --------------------------------------------------------
  Sum of atomic charges =     1.000000

                    Cartesian Multipole Moments
 -----------------------------------------------------------------
    Charge (ESU x 10^10)
                 4.8032
    Dipole Moment (Debye)
         X     -14.0997      Y       2.7681      Z      24.8190
       Tot      28.6783
    Quadrupole Moments (Debye-Ang)
        XX     -49.9993     XY     -17.0265     YY    -100.8983
        XZ     -62.9590     YZ      29.5029     ZZ      34.1770

 Total job time:  2777.23s(wall), 10461.84s(cpu)
        *  Thank you very much for using Q-Chem.  Have a nice day.  *
