 Q-Chem 5.1, Q-Chem, Inc., Pleasanton, CA (2018)
 Q-Chem 5.1.1 for Intel X86 EM64T Linux

User input:
--------------------------------------------------------------

$molecule
read MeEt_OMe.mol
$end

$rem
threads 8
jobtype	opt
method PBEh-3c
basis def2-mSVP
mem_static	512
mem_total	6096
sym_ignore	true
$end

--------------------------------------------------------------

   14    -463.6953283456      5.92e-09  Convergence criterion met
 Total energy in the final basis set =     -463.6953283456
   12    -463.7025409139      5.71e-09  Convergence criterion met
 Total energy in the final basis set =     -463.7025409139
   11    -463.7029334900      7.14e-09  Convergence criterion met
 Total energy in the final basis set =     -463.7029334900
   10    -463.7030000540      9.32e-09  Convergence criterion met
 Total energy in the final basis set =     -463.7030000540
    9    -463.7030089058      6.36e-09  Convergence criterion met
 Total energy in the final basis set =     -463.7030089058
    8    -463.7030100873      7.13e-09  Convergence criterion met
 Total energy in the final basis set =     -463.7030100873
    8    -463.7030111135      3.48e-09  Convergence criterion met
 Total energy in the final basis set =     -463.7030111135
    8    -463.7030122370      4.26e-09  Convergence criterion met
 Total energy in the final basis set =     -463.7030122370

             Standard Nuclear Orientation (Angstroms)
    I     Atom           X                Y                Z
 ----------------------------------------------------------------
    1      H       2.2401612975    -3.0264296971     1.0105182103
    2      C       0.6503441132    -3.5437129578     3.9444756712
    3      C       1.6642493631    -3.1898957775     3.0741564201
    4      C       1.4493296666    -3.3032349135     1.6994618515
    5      C       0.2407025529    -3.7570883772     1.2023294434
    6      C      -0.7778068091    -4.1084114767     2.0893328265
    7      C      -0.5745428245    -4.0039810541     3.4574063730
    8      C       2.9807894802    -2.6851624410     3.5886025284
    9      C       0.0226368607    -3.9211737936    -0.2774141263
   10      O      -1.4976446735    -4.3181761307     4.3892638106
   11      C      -2.7519458104    -4.7775359846     3.9628800368
   12      H       0.7889327242    -3.4627742608     5.0157144916
   13      H      -1.7211511488    -4.4548597719     1.6854735380
   14      H       0.7165749663    -3.2794507303    -0.8246973711
   15      H      -0.9815514475    -3.5801711421    -0.5429209040
   16      C       0.2035394650    -5.3683238196    -0.7301223835
   17      H      -3.3364152002    -4.9661948757     4.8609476656
   18      H      -3.2813115548    -4.0373611030     3.3538023626
   19      H      -2.6822622544    -5.7099630874     3.3929039585
   20      H       1.2077781772    -5.7257781085    -0.5022083469
   21      H       0.0462534632    -5.4675788785    -1.8047325902
   22      H      -0.5014918079    -6.0308768894    -0.2270371247
   23      H       3.7997401029    -3.3416265358     3.2901455718
   24      H       2.9906930682    -2.6181417658     4.6754982411
   25      H       3.2031982298    -1.6928964273     3.1935198454
 ----------------------------------------------------------------

    8    -463.7030131741      3.66e-09  Convergence criterion met
 Total energy in the final basis set =     -463.7030131741
 Final energy is   -463.703013174141
 **  OPTIMIZATION CONVERGED  **

                    Orbital Energies (a.u.)
 --------------------------------------------------------------

 Alpha MOs
 -- Occupied --
-19.524 -10.502 -10.489 -10.451 -10.449 -10.438 -10.433 -10.429
-10.429 -10.427 -10.425  -1.182  -0.956  -0.885  -0.855  -0.819
 -0.776  -0.765  -0.710  -0.656  -0.639  -0.585  -0.560  -0.544
 -0.534  -0.500  -0.496  -0.478  -0.474  -0.465  -0.446  -0.435
 -0.424  -0.415  -0.410  -0.401  -0.386  -0.369  -0.358  -0.275
 -0.254

          Ground-State Mulliken Net Atomic Charges

     Atom                 Charge (a.u.)
  ----------------------------------------
      1 H                     0.197009
      2 C                    -0.381399
      3 C                     0.163648
      4 C                    -0.364561
      5 C                     0.197391
      6 C                    -0.431326
      7 C                     0.430846
      8 C                    -0.710423
      9 C                    -0.501388
     10 O                    -0.452212
     11 C                    -0.406622
     12 H                     0.222834
     13 H                     0.222647
     14 H                     0.225120
     15 H                     0.222850
     16 C                    -0.631210
     17 H                     0.239707
     18 H                     0.204394
     19 H                     0.203755
     20 H                     0.223824
     21 H                     0.215865
     22 H                     0.216218
     23 H                     0.232044
     24 H                     0.229014
     25 H                     0.231974
  ----------------------------------------
  Sum of atomic charges =    -0.000000

                    Cartesian Multipole Moments
 -----------------------------------------------------------------
    Charge (ESU x 10^10)
                -0.0000
    Dipole Moment (Debye)
         X      -0.8055      Y      -0.3888      Z      -0.8439
       Tot       1.2297
    Quadrupole Moments (Debye-Ang)
        XX     -57.2654     XY       7.7596     YY     -65.8629
        XZ      -2.2505     YZ       2.4237     ZZ     -68.9623

 Total job time:  96.59s(wall), 772.71s(cpu)
        *  Thank you very much for using Q-Chem.  Have a nice day.  *
