 Q-Chem 5.1, Q-Chem, Inc., Pleasanton, CA (2018)
 Q-Chem 5.1.1 for Intel X86 EM64T Linux

User input:
--------------------------------------------------------------
$rem
threads 4
jobtype opt
method PBEh-3c
basis def2-mSVP
mem_static      1024
mem_total       4000
sym_ignore      true
unrestricted true
scf_algorithm	diis
scf_max_cycles	250
solvent_method  pcm
geom_opt_tol_energy 25
geom_opt_tol_gradient 75
$end

$pcm
theory  iefpcm
$end

$solvent
dielectric      2.38
$end

$molecule
read MeEt_OMe_kat.mol
$end
--------------------------------------------------------------

   22    -463.4452833008      7.51e-09  Convergence criterion met
 Total energy in the final basis set =     -463.4452833008
   16    -463.4596786835      6.12e-09  Convergence criterion met
 Total energy in the final basis set =     -463.4596786835
   16    -463.4607657778      6.69e-09  Convergence criterion met
 Total energy in the final basis set =     -463.4607657778
   15    -463.4609847326      9.90e-09  Convergence criterion met
 Total energy in the final basis set =     -463.4609847326
   15    -463.4611289077      6.77e-09  Convergence criterion met
 Total energy in the final basis set =     -463.4611289077
   15    -463.4613523716      6.57e-09  Convergence criterion met
 Total energy in the final basis set =     -463.4613523716
   15    -463.4614896272      5.13e-09  Convergence criterion met
 Total energy in the final basis set =     -463.4614896272
   14    -463.4615622068      6.93e-09  Convergence criterion met
 Total energy in the final basis set =     -463.4615622068
   15    -463.4615890468      5.35e-09  Convergence criterion met
 Total energy in the final basis set =     -463.4615890468
   15    -463.4615867523      6.76e-09  Convergence criterion met
 Total energy in the final basis set =     -463.4615867523
   15    -463.4615893208      6.14e-09  Convergence criterion met
 Total energy in the final basis set =     -463.4615893208

             Standard Nuclear Orientation (Angstroms)
    I     Atom           X                Y                Z
 ----------------------------------------------------------------
    1      H       2.1335372642    -3.1867382006     0.9748189668
    2      C       0.6301310624    -3.5615826036     3.9528066413
    3      C       1.6321237933    -3.2747665663     3.0701508368
    4      C       1.3520754000    -3.4142620196     1.6916925165
    5      C       0.0838487723    -3.8327772479     1.1946025051
    6      C      -0.9117564865    -4.1147284603     2.0861340453
    7      C      -0.6517192800    -3.9823592759     3.4746971012
    8      C       2.9858755846    -2.8238589463     3.5101100536
    9      C      -0.1065950528    -3.9845437624    -0.2807057563
   10      O      -1.5215518518    -4.2198523683     4.3993119340
   11      C      -2.8610674634    -4.6459267254     4.1032022484
   12      H       0.7720992517    -3.4755061907     5.0227608579
   13      H      -1.8830885840    -4.4310447549     1.7299587471
   14      H       0.2963709028    -3.1039379276    -0.7869565353
   15      H      -1.1713002112    -4.0217254009    -0.5132480378
   16      C       0.5863373949    -5.2424491977    -0.8080605827
   17      H      -3.3508263305    -4.7530220918     5.0644420230
   18      H      -3.3764016686    -3.8942838776     3.5067603911
   19      H      -2.8495063949    -5.6040930341     3.5850705029
   20      H       1.6597035849    -5.2258607340    -0.6173359677
   21      H       0.4446607674    -5.3215591865    -1.8846485770
   22      H       0.1771706529    -6.1405102937    -0.3466534530
   23      H       3.7545553112    -3.5137615941     3.1601352377
   24      H       3.0565394006    -2.7591539574     4.5933578477
   25      H       3.2175841804    -1.8424955825     3.0948964535
 ----------------------------------------------------------------

   15    -463.4615895255      6.24e-09  Convergence criterion met
 Total energy in the final basis set =     -463.4615895255
 Final energy is   -463.461589525488
 **  OPTIMIZATION CONVERGED  **

                    Orbital Energies (a.u.)
 --------------------------------------------------------------

 Alpha MOs
 -- Occupied --
-19.674 -10.652 -10.576 -10.573 -10.569 -10.561 -10.556 -10.553
-10.512 -10.500 -10.485  -1.332  -1.075  -0.988  -0.969  -0.914
 -0.883  -0.863  -0.803  -0.758  -0.738  -0.691  -0.674  -0.660
 -0.658  -0.588  -0.584  -0.573  -0.564  -0.555  -0.537  -0.530
 -0.517  -0.514  -0.502  -0.493  -0.471  -0.462  -0.457  -0.393
 -0.385

 Beta MOs
 -- Occupied --
-19.667 -10.649 -10.573 -10.570 -10.567 -10.564 -10.553 -10.551
-10.512 -10.500 -10.485  -1.318  -1.065  -0.986  -0.958  -0.911
 -0.871  -0.859  -0.798  -0.753  -0.736  -0.687  -0.671  -0.655
 -0.630  -0.585  -0.581  -0.572  -0.556  -0.552  -0.535  -0.521
 -0.513  -0.507  -0.500  -0.489  -0.461  -0.458  -0.438  -0.385

          Ground-State Mulliken Net Atomic Charges

     Atom                 Charge (a.u.)    Spin (a.u.)
  --------------------------------------------------------
      1 H                     0.294346      -0.031473
      2 C                    -0.343492       0.248148
      3 C                     0.171688      -0.186912
      4 C                    -0.264482       0.579298
      5 C                     0.219612      -0.079720
      6 C                    -0.411424       0.120799
      7 C                     0.502160       0.165623
      8 C                    -0.712538       0.013569
      9 C                    -0.513872       0.005836
     10 O                    -0.359601       0.189995
     11 C                    -0.453066      -0.017094
     12 H                     0.308878      -0.014444
     13 H                     0.304686      -0.008245
     14 H                     0.268341      -0.000081
     15 H                     0.263099      -0.001244
     16 C                    -0.651002       0.001965
     17 H                     0.301745       0.000053
     18 H                     0.268646       0.011565
     19 H                     0.268961       0.011733
     20 H                     0.232379      -0.000165
     21 H                     0.260713       0.001387
     22 H                     0.238344       0.000089
     23 H                     0.269823      -0.004762
     24 H                     0.265790      -0.001159
     25 H                     0.270265      -0.004758
  --------------------------------------------------------
  Sum of atomic charges =     1.000000

                    Cartesian Multipole Moments
 -----------------------------------------------------------------
    Charge (ESU x 10^10)
                 4.8032
    Dipole Moment (Debye)
         X      -1.2025      Y     -18.9862      Z      12.0117
       Tot      22.4990
    Quadrupole Moments (Debye-Ang)
        XX     -36.8202     XY      13.4732     YY      12.4185
        XZ      -8.1311     YZ     -47.2220     ZZ     -16.3543

 Total job time:  1343.24s(wall), 5094.91s(cpu)
        *  Thank you very much for using Q-Chem.  Have a nice day.  *
