 Q-Chem 5.1, Q-Chem, Inc., Pleasanton, CA (2018)
 Q-Chem 5.1.1 for Intel X86 EM64T Linux

User input:
--------------------------------------------------------------
$rem
threads 4
jobtype opt
method PBEh-3c
basis def2-mSVP
mem_static      1024
mem_total       4000
sym_ignore      true
unrestricted true
scf_algorithm	diis
scf_max_cycles	250
solvent_method  pcm
geom_opt_tol_energy 25
geom_opt_tol_gradient 75
$end

$pcm
theory  iefpcm
$end

$solvent
dielectric      2.38
$end

$molecule
read MeEt_DPTZ_kat.mol
$end
--------------------------------------------------------------

   20   -1262.0627216697      8.56e-09  Convergence criterion met
 Total energy in the final basis set =    -1262.0627216697
   16   -1262.0789391041      9.99e-09  Convergence criterion met
 Total energy in the final basis set =    -1262.0789391041
   16   -1262.0830075849      6.72e-09  Convergence criterion met
 Total energy in the final basis set =    -1262.0830075849
   16   -1262.0850336519      7.26e-09  Convergence criterion met
 Total energy in the final basis set =    -1262.0850336519
   16   -1262.0860549292      6.37e-09  Convergence criterion met
 Total energy in the final basis set =    -1262.0860549292
   15   -1262.0866762339      5.60e-09  Convergence criterion met
 Total energy in the final basis set =    -1262.0866762339
   14   -1262.0868177066      7.38e-09  Convergence criterion met
 Total energy in the final basis set =    -1262.0868177066
   13   -1262.0868494030      7.00e-09  Convergence criterion met
   13   -1262.0869480705      7.85e-09  Convergence criterion met
 Total energy in the final basis set =    -1262.0869480705
   13   -1262.0869455173      7.73e-09  Convergence criterion met
 Total energy in the final basis set =    -1262.0869455173
   13   -1262.0869443230      7.90e-09  Convergence criterion met
 Total energy in the final basis set =    -1262.0869443230
   13   -1262.0869440733      7.86e-09  Convergence criterion met
 Total energy in the final basis set =    -1262.0869440733
   13   -1262.0869437993      7.92e-09  Convergence criterion met
 Total energy in the final basis set =    -1262.0869437993
   13   -1262.0869444354      7.98e-09  Convergence criterion met
 Total energy in the final basis set =    -1262.0869444354

             Standard Nuclear Orientation (Angstroms)
    I     Atom           X                Y                Z
 ----------------------------------------------------------------
    1      C      -4.9432330425    -0.2673704095     4.3912726228
    2      C      -5.5763810947    -0.5432213277     3.1840932657
    3      C      -4.8061219074    -0.5755652221     2.0254785236
    4      C      -3.4363101564    -0.3358350012     2.0326042667
    5      C      -2.8176496189    -0.0557988677     3.2469981089
    6      C      -3.5805832274    -0.0288355836     4.3993830195
    7      N      -2.9311302618     0.2345917901     5.6550877992
    8      C      -7.0558531834    -0.7800572082     3.1245105700
    9      C      -2.6550528008    -0.3321866910     0.7492448767
   10      C      -2.4483128141    -0.8521911137     6.3507150808
   11      C      -1.7806719919    -0.7167214498     7.5833920876
   12      C      -3.4054294015     2.5640241045     5.2570265653
   13      C      -2.8467793188     1.5497262237     6.0577374279
   14      C      -3.3276898125     3.8775246984     5.6427530991
   15      C      -2.6928445694     4.2398506584     6.8355581462
   16      C      -2.1419556702     3.2690938513     7.6341725253
   17      C      -2.2132174255     1.9240315187     7.2581650230
   18      C      -2.6166320460    -2.1502925937     5.8296652755
   19      C      -2.1426479128    -3.2427392314     6.5095731800
   20      C      -1.4823814351    -3.0965332931     7.7341688863
   21      C      -1.3049266159    -1.8428148130     8.2631410166
   22      H      -5.2919976765    -0.7999987680     1.0816335515
   23      H      -5.5069241120    -0.2468120587     5.3164619581
   24      H      -1.7506823418     0.1282721690     3.2923123238
   25      H      -7.3035483323    -1.5774428625     2.4246513053
   26      H      -7.5759440054     0.1182626568     2.7869963920
   27      H      -7.4632489519    -1.0477133198     4.0981024610
   28      H      -3.0523066117    -1.0974340512     0.0791563973
   29      H      -1.6159678395    -0.6028208790     0.9470724062
   30      C      -2.7088827408     1.0287159835     0.0579013146
   31      H      -3.9015394920     2.3119135265     4.3320623633
   32      H      -3.7653169677     4.6379480332     5.0112553581
   33      H      -2.6358167822     5.2779944979     7.1302446474
   34      H      -1.6498283160     3.5363335576     8.5606006431
   35      H      -3.1230814454    -2.2985757569     4.8883162567
   36      H      -2.2856720075    -4.2277149959     6.0873149307
   37      H      -1.1130820614    -3.9638670187     8.2629112915
   38      H      -0.7954857603    -1.7175226262     9.2102282835
   39      H      -2.1425909216     1.0111759500    -0.8728579752
   40      H      -2.2879191273     1.8105720412     0.6908124122
   41      H      -3.7349807585     1.3100414867    -0.1805648878
   42      S      -1.4934794413     0.7980923951     8.3382472002
 ----------------------------------------------------------------

   13   -1262.0869442327      7.96e-09  Convergence criterion met
 Total energy in the final basis set =    -1262.0869442327
 Final energy is   -1262.08694423267
 **  OPTIMIZATION CONVERGED  **

                    Orbital Energies (a.u.)
 --------------------------------------------------------------

 Alpha MOs
 -- Occupied --
-89.717 -14.815 -10.600 -10.600 -10.583 -10.583 -10.557 -10.532
-10.532 -10.528 -10.528 -10.526 -10.526 -10.526 -10.526 -10.516
-10.513 -10.508 -10.508 -10.497 -10.482 -10.474 -10.463  -8.357
 -6.247  -6.244  -6.243  -1.208  -1.068  -1.058  -1.024  -0.997
 -0.949  -0.941  -0.933  -0.930  -0.901  -0.869  -0.854  -0.827
 -0.811  -0.802  -0.762  -0.762  -0.730  -0.716  -0.714  -0.700
 -0.661  -0.630  -0.629  -0.627  -0.614  -0.614  -0.596  -0.580
 -0.579  -0.574  -0.567  -0.548  -0.529  -0.526  -0.524  -0.522
 -0.521  -0.509  -0.507  -0.499  -0.493  -0.483  -0.481  -0.474
 -0.470  -0.459  -0.453  -0.450  -0.432  -0.429  -0.393  -0.389
 -0.352  -0.350  -0.340  -0.310

 Beta MOs
 -- Occupied --
-89.715 -14.806 -10.600 -10.600 -10.580 -10.580 -10.557 -10.533
-10.533 -10.528 -10.527 -10.526 -10.526 -10.524 -10.524 -10.516
-10.513 -10.508 -10.508 -10.497 -10.482 -10.474 -10.463  -8.355
 -6.245  -6.242  -6.236  -1.194  -1.061  -1.054  -1.023  -0.993
 -0.947  -0.941  -0.930  -0.928  -0.898  -0.867  -0.847  -0.826
 -0.808  -0.800  -0.761  -0.761  -0.727  -0.713  -0.711  -0.698
 -0.660  -0.628  -0.626  -0.618  -0.613  -0.612  -0.594  -0.578
 -0.573  -0.566  -0.565  -0.547  -0.528  -0.526  -0.524  -0.518
 -0.509  -0.507  -0.501  -0.493  -0.488  -0.481  -0.474  -0.471
 -0.466  -0.455  -0.450  -0.437  -0.431  -0.429  -0.387  -0.370
 -0.350  -0.340  -0.337

          Ground-State Mulliken Net Atomic Charges

     Atom                 Charge (a.u.)    Spin (a.u.)
  --------------------------------------------------------
      1 C                    -0.283066       0.011223
      2 C                     0.125631      -0.001841
      3 C                    -0.324101       0.002429
      4 C                     0.156075      -0.001807
      5 C                    -0.291151       0.011276
      6 C                     0.136396      -0.021703
      7 N                    -0.648743       0.306848
      8 C                    -0.713200       0.000713
      9 C                    -0.505286       0.000707
     10 C                     0.459857       0.008969
     11 C                    -0.217705       0.128801
     12 C                    -0.282036       0.033983
     13 C                     0.461918       0.008659
     14 C                    -0.217563      -0.001168
     15 C                    -0.218732       0.113631
     16 C                    -0.232901      -0.075966
     17 C                    -0.218763       0.128003
     18 C                    -0.281144       0.033610
     19 C                    -0.217048      -0.000789
     20 C                    -0.218641       0.113897
     21 C                    -0.233508      -0.076168
     22 H                     0.243494      -0.000158
     23 H                     0.258580      -0.000649
     24 H                     0.256897      -0.000661
     25 H                     0.251341       0.000020
     26 H                     0.256022      -0.000120
     27 H                     0.244511      -0.000036
     28 H                     0.247201       0.000067
     29 H                     0.241506      -0.000045
     30 C                    -0.643130      -0.000098
     31 H                     0.310479      -0.002548
     32 H                     0.281243      -0.000451
     33 H                     0.282030      -0.006345
     34 H                     0.284195       0.002934
     35 H                     0.311143      -0.002525
     36 H                     0.281524      -0.000472
     37 H                     0.282102      -0.006358
     38 H                     0.284211       0.002943
     39 H                     0.240544       0.000011
     40 H                     0.221740       0.000007
     41 H                     0.227610       0.000004
     42 S                     0.400467       0.291171
  --------------------------------------------------------
  Sum of atomic charges =     1.000000

                    Cartesian Multipole Moments
 -----------------------------------------------------------------
    Charge (ESU x 10^10)
                 4.8032
    Dipole Moment (Debye)
         X     -13.7764      Y       1.3755      Z      27.5635
       Tot      30.8452
    Quadrupole Moments (Debye-Ang)
        XX     -84.8586     XY      -6.5073     YY     -95.8223
        XZ     -61.1699     YZ       9.6700     ZZ      58.2387

 Total job time:  7291.88s(wall), 27634.04s(cpu)
        *  Thank you very much for using Q-Chem.  Have a nice day.  *
