 Q-Chem 5.1, Q-Chem, Inc., Pleasanton, CA (2018)
 Q-Chem 5.1.1 for Intel X86 EM64T Linux

User input:
--------------------------------------------------------------

$molecule
read MeEt_NPh3.mol
$end

$rem
threads 8
jobtype	opt
method PBEh-3c
basis def2-mSVP
mem_static	512
mem_total	6096
sym_ignore	true
$end

--------------------------------------------------------------

   14    -865.7290643692      5.08e-09  Convergence criterion met
 Total energy in the final basis set =     -865.7290643692
   11    -865.7362572642      7.97e-09  Convergence criterion met
 Total energy in the final basis set =     -865.7362572642
   11    -865.7363887539      5.21e-09  Convergence criterion met
 Total energy in the final basis set =     -865.7363887539
   10    -865.7364927319      9.91e-09  Convergence criterion met
 Total energy in the final basis set =     -865.7364927319
    9    -865.7364940902      8.62e-09  Convergence criterion met
 Total energy in the final basis set =     -865.7364940902
    8    -865.7364952482      5.44e-09  Convergence criterion met
 Total energy in the final basis set =     -865.7364952482
    8    -865.7364980997      7.66e-09  Convergence criterion met
 Total energy in the final basis set =     -865.7364980997
    9    -865.7365020287      3.45e-09  Convergence criterion met
 Total energy in the final basis set =     -865.7365020287
    8    -865.7365041544      5.34e-09  Convergence criterion met
 Total energy in the final basis set =     -865.7365041544

             Standard Nuclear Orientation (Angstroms)
    I     Atom           X                Y                Z
 ----------------------------------------------------------------
    1      C      -4.7579325613    -0.1782946664     4.4109400649
    2      C      -5.4102229076    -0.7790748067     3.3442917739
    3      C      -4.6815277019    -1.0870925333     2.1998208303
    4      C      -3.3268709201    -0.7952975111     2.1047036784
    5      C      -2.6946975072    -0.1757675325     3.1752996184
    6      C      -3.4023439834     0.1307922998     4.3318942815
    7      N      -2.7508688308     0.7395064235     5.4209052637
    8      C      -6.8731211983    -1.1091453782     3.4220174751
    9      C      -2.5756276913    -1.0808313388     0.8334614922
   10      C      -1.5303348336     0.2176336044     5.8763011731
   11      C      -0.5197343433     1.0648757345     6.3284972446
   12      C      -4.0492496213     2.7856367556     5.3848053372
   13      C      -3.3837283032     1.7915766921     6.1014480774
   14      C      -4.7010506721     3.8093370266     6.0503441511
   15      C      -4.6851103972     3.8729393755     7.4362702388
   16      C      -4.0154426985     2.8901793956     8.1501935486
   17      C      -3.3773659459     1.8505688960     7.4940496701
   18      C      -1.3105641155    -1.1596287239     5.8764080213
   19      C      -0.1003426497    -1.6734112875     6.3095056247
   20      C       0.9011432429    -0.8304775597     6.7681592236
   21      C       0.6795803624     0.5389878939     6.7787872369
   22      H      -5.1813328780    -1.5670417530     1.3641951380
   23      H      -5.3056906970     0.0510988449     5.3168505311
   24      H      -1.6401195768     0.0663517855     3.1138814124
   25      H      -7.0523347655    -2.1679625992     3.2304790640
   26      H      -7.4444228774    -0.5470989570     2.6812279677
   27      H      -7.2874405584    -0.8752985855     4.4016415096
   28      H      -2.9510494851    -2.0037865224     0.3847911956
   29      H      -1.5209555099    -1.2556674286     1.0576843263
   30      C      -2.7013148896     0.0606708971    -0.1731875108
   31      H      -0.6759929868     2.1358587710     6.3248420718
   32      H      -4.0595133796     2.7485082320     4.3030410262
   33      H      -5.2151809944     4.5702883578     5.4775868918
   34      H      -5.1898663869     4.6776396897     7.9535197043
   35      H      -4.0020875208     2.9200867905     9.2319972520
   36      H      -2.8763169687     1.0777166615     8.0624866605
   37      H      -2.0898195255    -1.8281457214     5.5337554131
   38      H       0.0530412276    -2.7448571744     6.3009369065
   39      H       1.8428155882    -1.2357647083     7.1130341024
   40      H       1.4538809760     1.2101002565     7.1271617175
   41      H      -2.1550232091    -0.1604314612    -1.0908325165
   42      H      -2.3059511883     0.9901772379     0.2371094865
   43      H      -3.7442111170     0.2368446274    -0.4383063756
 ----------------------------------------------------------------

    8    -865.7365047617      7.62e-09  Convergence criterion met
 Total energy in the final basis set =     -865.7365047617
 Final energy is   -865.736504761655
 **  OPTIMIZATION CONVERGED  **

                    Orbital Energies (a.u.)
 --------------------------------------------------------------

 Alpha MOs
 -- Occupied --
-14.667 -10.488 -10.488 -10.485 -10.454 -10.452 -10.446 -10.446
-10.446 -10.445 -10.442 -10.442 -10.442 -10.441 -10.441 -10.440
-10.439 -10.437 -10.437 -10.435 -10.432 -10.426  -1.078  -0.963
 -0.958  -0.939  -0.886  -0.861  -0.849  -0.837  -0.835  -0.817
 -0.793  -0.770  -0.715  -0.706  -0.699  -0.679  -0.673  -0.643
 -0.637  -0.605  -0.586  -0.565  -0.552  -0.544  -0.541  -0.520
 -0.510  -0.501  -0.496  -0.492  -0.485  -0.481  -0.480  -0.476
 -0.466  -0.449  -0.442  -0.432  -0.425  -0.423  -0.421  -0.411
 -0.409  -0.402  -0.399  -0.395  -0.387  -0.381  -0.353  -0.301
 -0.297  -0.296  -0.287  -0.276  -0.220

          Ground-State Mulliken Net Atomic Charges

     Atom                 Charge (a.u.)
  ----------------------------------------
      1 C                    -0.349815
      2 C                     0.159281
      3 C                    -0.351460
      4 C                     0.186508
      5 C                    -0.357835
      6 C                     0.319148
      7 N                    -0.673081
      8 C                    -0.710979
      9 C                    -0.501700
     10 C                     0.297680
     11 C                    -0.279054
     12 C                    -0.275621
     13 C                     0.294460
     14 C                    -0.213645
     15 C                    -0.238076
     16 C                    -0.214517
     17 C                    -0.281591
     18 C                    -0.280936
     19 C                    -0.213921
     20 C                    -0.238252
     21 C                    -0.214646
     22 H                     0.199819
     23 H                     0.235195
     24 H                     0.232533
     25 H                     0.231725
     26 H                     0.233172
     27 H                     0.231173
     28 H                     0.224825
     29 H                     0.228112
     30 C                    -0.632107
     31 H                     0.245126
     32 H                     0.244152
     33 H                     0.219494
     34 H                     0.217166
     35 H                     0.219961
     36 H                     0.246115
     37 H                     0.247078
     38 H                     0.219500
     39 H                     0.216823
     40 H                     0.219582
     41 H                     0.217266
     42 H                     0.222193
     43 H                     0.219152
  ----------------------------------------
  Sum of atomic charges =    -0.000000

                    Cartesian Multipole Moments
 -----------------------------------------------------------------
    Charge (ESU x 10^10)
                -0.0000
    Dipole Moment (Debye)
         X      -0.4161      Y      -0.2536      Z      -0.5558
       Tot       0.7392
    Quadrupole Moments (Debye-Ang)
        XX    -119.3507     XY      -1.2161     YY    -124.6156
        XZ       2.3670     YZ       2.2214     ZZ    -127.6431

 Total job time:  640.98s(wall), 5079.43s(cpu)
        *  Thank you very much for using Q-Chem.  Have a nice day.  *
