 Q-Chem 5.1, Q-Chem, Inc., Pleasanton, CA (2018)
 Q-Chem 5.1.1 for Intel X86 EM64T Linux

User input:
--------------------------------------------------------------
$rem
threads 4
jobtype	opt
method PBEh-3c
basis def2-mSVP
mem_static	1024
mem_total	3000
sym_ignore	true
scf_convergence	9
solvent_method	pcm
$end

$molecule
read MeEt_OMe.mol
$end

$solvent
dielectric	2.38
$end

$pcm
theory iefpcm
$end

--------------------------------------------------------------

   16    -463.6991147117      4.97e-10  Convergence criterion met
 Total energy in the final basis set =     -463.6991147117
   14    -463.7062415537      6.93e-10  Convergence criterion met
 Total energy in the final basis set =     -463.7062415537
   14    -463.7066355998      7.89e-10  Convergence criterion met
 Total energy in the final basis set =     -463.7066355998
   13    -463.7067028578      6.54e-10  Convergence criterion met
 Total energy in the final basis set =     -463.7067028578
   13    -463.7067113940      7.33e-10  Convergence criterion met
 Total energy in the final basis set =     -463.7067113940
   13    -463.7067124186      7.68e-10  Convergence criterion met
 Total energy in the final basis set =     -463.7067124186

             Standard Nuclear Orientation (Angstroms)
    I     Atom           X                Y                Z
 ----------------------------------------------------------------
    1      H       2.2413310250    -3.0224662792     1.0107280594
    2      C       0.6519797480    -3.5438017664     3.9456708208
    3      C       1.6660935487    -3.1876371862     3.0750769717
    4      C       1.4510983743    -3.3009856706     1.6998016919
    5      C       0.2426703398    -3.7578539034     1.2025080583
    6      C      -0.7758988090    -4.1116088333     2.0894590464
    7      C      -0.5727542117    -4.0065551947     3.4581044741
    8      C       2.9820235594    -2.6815729274     3.5903609434
    9      C       0.0245892305    -3.9207784834    -0.2775999798
   10      O      -1.4957897047    -4.3225266980     4.3892339276
   11      C      -2.7548492557    -4.7800776399     3.9607483343
   12      H       0.7925157214    -3.4619930046     5.0169743904
   13      H      -1.7183946503    -4.4607088475     1.6857753667
   14      H       0.7230942650    -3.2834135713    -0.8240207059
   15      H      -0.9780634696    -3.5755264543    -0.5429928196
   16      C       0.1979670234    -5.3691361269    -0.7302360995
   17      H      -3.3397925778    -4.9669785177     4.8586188466
   18      H      -3.2795911267    -4.0375333001     3.3517944977
   19      H      -2.6849524448    -5.7119786514     3.3912732042
   20      H       1.2005280638    -5.7321110523    -0.5027594434
   21      H       0.0408427754    -5.4656587739    -1.8051314038
   22      H      -0.5120173591    -6.0279266061    -0.2288995958
   23      H       3.8005028420    -3.3409886919     3.2969494649
   24      H       2.9885559356    -2.6085372260     4.6769219015
   25      H       3.2071111569    -1.6924445936     3.1889400478
 ----------------------------------------------------------------

   13    -463.7067132956      7.41e-10  Convergence criterion met
 Total energy in the final basis set =     -463.7067132956
 Final energy is   -463.706713295575
 **  OPTIMIZATION CONVERGED  **

                    Orbital Energies (a.u.)
 --------------------------------------------------------------

 Alpha MOs
 -- Occupied --
-19.526 -10.504 -10.485 -10.453 -10.451 -10.437 -10.434 -10.432
-10.429 -10.428 -10.424  -1.182  -0.957  -0.885  -0.855  -0.819
 -0.776  -0.765  -0.710  -0.656  -0.640  -0.585  -0.560  -0.544
 -0.533  -0.499  -0.495  -0.477  -0.474  -0.465  -0.446  -0.435
 -0.424  -0.415  -0.410  -0.401  -0.385  -0.370  -0.360  -0.277
 -0.256

          Ground-State Mulliken Net Atomic Charges

     Atom                 Charge (a.u.)
  ----------------------------------------
      1 H                     0.211093
      2 C                    -0.395769
      3 C                     0.152273
      4 C                    -0.375788
      5 C                     0.185242
      6 C                    -0.440624
      7 C                     0.423253
      8 C                    -0.717331
      9 C                    -0.503026
     10 O                    -0.461031
     11 C                    -0.418964
     12 H                     0.233637
     13 H                     0.239190
     14 H                     0.230628
     15 H                     0.228372
     16 C                    -0.640903
     17 H                     0.247992
     18 H                     0.213211
     19 H                     0.212784
     20 H                     0.225289
     21 H                     0.221346
     22 H                     0.219305
     23 H                     0.237472
     24 H                     0.235280
     25 H                     0.237069
  ----------------------------------------
  Sum of atomic charges =     0.000000

                    Cartesian Multipole Moments
 -----------------------------------------------------------------
    Charge (ESU x 10^10)
                 0.0000
    Dipole Moment (Debye)
         X      -0.9146      Y      -0.4322      Z      -1.0202
       Tot       1.4367
    Quadrupole Moments (Debye-Ang)
        XX     -56.0953     XY       8.6204     YY     -65.3858
        XZ      -2.4858     YZ       3.0490     ZZ     -69.3981

 Total job time:  717.30s(wall), 2711.05s(cpu)
        *  Thank you very much for using Q-Chem.  Have a nice day.  *
