 Q-Chem 5.1, Q-Chem, Inc., Pleasanton, CA (2018)
 Q-Chem 5.1.1 for Intel X86 EM64T Linux

User input:
--------------------------------------------------------------

$molecule
read NaMe.mol
$end

$rem
threads 8
jobtype	opt
method PBEh-3c
basis def2-mSVP
mem_static	512
mem_total	6096
sym_ignore	true
$end

--------------------------------------------------------------

   14    -424.2581907918      4.57e-09  Convergence criterion met
 Total energy in the final basis set =     -424.2581907918
   12    -424.2631913120      4.70e-09  Convergence criterion met
 Total energy in the final basis set =     -424.2631913120
   10    -424.2633782226      5.64e-09  Convergence criterion met
 Total energy in the final basis set =     -424.2633782226
   10    -424.2633999166      2.75e-09  Convergence criterion met
 Total energy in the final basis set =     -424.2633999166
   10    -424.2634197798      3.06e-09  Convergence criterion met
 Total energy in the final basis set =     -424.2634197798
   11    -424.2634985889      3.73e-09  Convergence criterion met
 Total energy in the final basis set =     -424.2634985889
   11    -424.2635818722      3.91e-09  Convergence criterion met
 Total energy in the final basis set =     -424.2635818722
   11    -424.2636503313      4.11e-09  Convergence criterion met
   11    -424.2637647344      2.93e-09  Convergence criterion met
 Total energy in the final basis set =     -424.2637647344
   11    -424.2639375063      3.88e-09  Convergence criterion met
 Total energy in the final basis set =     -424.2639375063
   11    -424.2641798604      3.94e-09  Convergence criterion met
 Total energy in the final basis set =     -424.2641798604
   11    -424.2643149943      5.92e-09  Convergence criterion met
 Total energy in the final basis set =     -424.2643149943
   11    -424.2644018313      2.71e-09  Convergence criterion met
 Total energy in the final basis set =     -424.2644018313
   10    -424.2644077726      4.36e-09  Convergence criterion met
 Total energy in the final basis set =     -424.2644077726

             Standard Nuclear Orientation (Angstroms)
    I     Atom           X                Y                Z
 ----------------------------------------------------------------
    1      H       1.1039536010     2.0671349874    -0.4456445678
    2      C       0.8346257407     3.1027244988    -0.6235234676
    3      C       0.6506991908     3.9517788427     0.4919641932
    4      C       0.2955137935     5.3049453262     0.2764263146
    5      C       0.1401279232     5.7566845121    -1.0544625936
    6      C       0.3245342691     4.9093598140    -2.1074636816
    7      C       0.6772875337     3.5528109821    -1.9063871536
    8      C       0.8060689142     3.4887077608     1.8168907298
    9      C       0.6165498398     4.3299682191     2.8775673818
   10      C       0.2632445191     5.6762185802     2.6623598198
   11      C       0.1070684375     6.1514941880     1.3898873050
   12      C       0.8631247651     2.6525380138    -3.0910152339
   13      H      -0.1304776670     6.7909303971    -1.2303659982
   14      H       0.1988654712     5.2751799177    -3.1199250341
   15      H       1.0764171879     2.4525157805     1.9817969967
   16      H       0.7372664980     3.9630488447     3.8883534775
   17      H       0.1158075898     6.3330156103     3.5093943447
   18      H      -0.1644838340     7.1868049377     1.2219188411
   19      H       1.6501939388     3.0215861006    -3.7511312693
   20      H      -0.0497407737     2.5889571887    -3.6860727272
   21      H       1.1316530613     1.6407954974    -2.7901676773
 ----------------------------------------------------------------

    9    -424.2644084347      3.63e-09  Convergence criterion met
 Total energy in the final basis set =     -424.2644084347
 Final energy is   -424.264408434665
 **  OPTIMIZATION CONVERGED  **

                    Orbital Energies (a.u.)
 --------------------------------------------------------------

 Alpha MOs
 -- Occupied --
-10.457 -10.455 -10.454 -10.448 -10.447 -10.447 -10.446 -10.446
-10.445 -10.444 -10.435  -0.979  -0.927  -0.871  -0.850  -0.814
 -0.771  -0.701  -0.676  -0.673  -0.584  -0.574  -0.552  -0.511
 -0.505  -0.484  -0.481  -0.475  -0.453  -0.443  -0.441  -0.418
 -0.391  -0.382  -0.371  -0.330  -0.278  -0.252

          Ground-State Mulliken Net Atomic Charges

     Atom                 Charge (a.u.)
  ----------------------------------------
      1 H                     0.204029
      2 C                    -0.350885
      3 C                     0.173158
      4 C                     0.128533
      5 C                    -0.269205
      6 C                    -0.264667
      7 C                     0.128046
      8 C                    -0.287406
      9 C                    -0.224428
     10 C                    -0.227312
     11 C                    -0.282794
     12 C                    -0.708901
     13 H                     0.211662
     14 H                     0.211783
     15 H                     0.212022
     16 H                     0.219197
     17 H                     0.219028
     18 H                     0.212619
     19 H                     0.232959
     20 H                     0.233102
     21 H                     0.229460
  ----------------------------------------
  Sum of atomic charges =    -0.000000

                    Cartesian Multipole Moments
 -----------------------------------------------------------------
    Charge (ESU x 10^10)
                -0.0000
    Dipole Moment (Debye)
         X       0.0139      Y      -0.1677      Z      -0.4455
       Tot       0.4762
    Quadrupole Moments (Debye-Ang)
        XX     -69.8098     XY      -3.4858     YY     -58.6157
        XZ       0.0701     YZ      -1.3378     ZZ     -55.1679

 Total job time:  175.12s(wall), 1401.21s(cpu)
        *  Thank you very much for using Q-Chem.  Have a nice day.  *
