 Q-Chem 5.1, Q-Chem, Inc., Pleasanton, CA (2018)
 Q-Chem 5.1.1 for Intel X86 EM64T Linux

User input:
--------------------------------------------------------------
$rem
threads 4
jobtype opt
method PBEh-3c
basis def2-mSVP
mem_static      1024
mem_total       4000
sym_ignore      true
unrestricted true
scf_algorithm	diis
scf_max_cycles	250
solvent_method  pcm
geom_opt_tol_energy 25
geom_opt_tol_gradient 75
$end

$pcm
theory  iefpcm
$end

$solvent
dielectric      2.38
$end

$molecule
read NaMe_kat.mol
$end
--------------------------------------------------------------

   19    -424.0178513425      8.40e-09  Convergence criterion met
 Total energy in the final basis set =     -424.0178513425
   16    -424.0200134368      7.10e-09  Convergence criterion met
 Total energy in the final basis set =     -424.0200134368
   15    -424.0201084055      9.87e-09  Convergence criterion met
 Total energy in the final basis set =     -424.0201084055
   15    -424.0201180758      6.65e-09  Convergence criterion met
 Total energy in the final basis set =     -424.0201180758
   15    -424.0201188340      9.82e-09  Convergence criterion met
 Total energy in the final basis set =     -424.0201188340

             Standard Nuclear Orientation (Angstroms)
    I     Atom           X                Y                Z
 ----------------------------------------------------------------
    1      H       0.9916478266     2.0563845838    -0.4577980910
    2      C       0.7790873251     3.1075361828    -0.6179946367
    3      C       0.6111139804     3.9457676065     0.4857458573
    4      C       0.3333740743     5.3207440252     0.2723231780
    5      C       0.2380216260     5.7936586453    -1.0542584408
    6      C       0.4090698736     4.9395088869    -2.1345471918
    7      C       0.6791498142     3.5901563416    -1.9423664640
    8      C       0.7093208213     3.4575392454     1.8029423090
    9      C       0.5362500407     4.3128598622     2.8869441480
   10      C       0.2654899333     5.6531620737     2.6739485036
   11      C       0.1628341774     6.1593304342     1.3725497910
   12      C       0.8569785004     2.6500811214    -3.0828930639
   13      H       0.0280880445     6.8417145063    -1.2283546103
   14      H       0.3312566725     5.3316053765    -3.1398568702
   15      H       0.9200615133     2.4081889507     1.9673166572
   16      H       0.6134916711     3.9273887696     3.8937499691
   17      H       0.1311555884     6.3187264834     3.5153028228
   18      H      -0.0503369783     7.2099998368     1.2206605595
   19      H       0.8488206910     3.1643682787    -4.0406037065
   20      H       0.0570923441     1.9061095204    -3.0902870580
   21      H       1.7963324602     2.1023692686    -2.9921236621
 ----------------------------------------------------------------

   14    -424.0201190464      5.86e-09  Convergence criterion met
 Total energy in the final basis set =     -424.0201190464
 Final energy is   -424.020119046420
 **  OPTIMIZATION CONVERGED  **

                    Orbital Energies (a.u.)
 --------------------------------------------------------------

 Alpha MOs
 -- Occupied --
-10.573 -10.572 -10.571 -10.568 -10.567 -10.556 -10.555 -10.555
-10.548 -10.545 -10.503  -1.090  -1.035  -0.982  -0.953  -0.920
 -0.864  -0.807  -0.780  -0.774  -0.685  -0.675  -0.652  -0.612
 -0.603  -0.585  -0.579  -0.571  -0.544  -0.539  -0.531  -0.508
 -0.490  -0.484  -0.475  -0.446  -0.380  -0.365

 Beta MOs
 -- Occupied --
-10.572 -10.567 -10.567 -10.564 -10.564 -10.558 -10.556 -10.553
-10.548 -10.545 -10.503  -1.085  -1.027  -0.971  -0.951  -0.909
 -0.858  -0.803  -0.774  -0.769  -0.681  -0.671  -0.649  -0.609
 -0.602  -0.583  -0.575  -0.557  -0.541  -0.530  -0.529  -0.507
 -0.488  -0.482  -0.451  -0.406  -0.381

          Ground-State Mulliken Net Atomic Charges

     Atom                 Charge (a.u.)    Spin (a.u.)
  --------------------------------------------------------
      1 H                     0.288770      -0.017616
      2 C                    -0.284961       0.328004
      3 C                     0.189990      -0.122971
      4 C                     0.148040      -0.088203
      5 C                    -0.219182       0.303439
      6 C                    -0.256113      -0.064239
      7 C                     0.147008       0.103121
      8 C                    -0.244741       0.316084
      9 C                    -0.204258      -0.043797
     10 C                    -0.195849       0.106488
     11 C                    -0.247429       0.219399
     12 C                    -0.715044      -0.004176
     13 H                     0.294452      -0.015832
     14 H                     0.289141       0.001498
     15 H                     0.292617      -0.016485
     16 H                     0.298227       0.000512
     17 H                     0.301121      -0.006806
     18 H                     0.294839      -0.011350
     19 H                     0.270176      -0.000607
     20 H                     0.278857       0.007920
     21 H                     0.274338       0.005616
  --------------------------------------------------------
  Sum of atomic charges =     1.000000

                    Cartesian Multipole Moments
 -----------------------------------------------------------------
    Charge (ESU x 10^10)
                 4.8032
    Dipole Moment (Debye)
         X       2.4219      Y      21.2661      Z       0.4978
       Tot      21.4094
    Quadrupole Moments (Debye-Ang)
        XX     -64.2784     XY       5.5722     YY      53.5472
        XZ      -0.6010     YZ       7.0398     ZZ     -28.7348

 Total job time:  364.34s(wall), 1372.05s(cpu)
        *  Thank you very much for using Q-Chem.  Have a nice day.  *
