 Q-Chem 5.1, Q-Chem, Inc., Pleasanton, CA (2018)
 Q-Chem 5.1.1 for Intel X86 EM64T Linux

User input:
--------------------------------------------------------------
$rem
threads 4
jobtype	opt
method PBEh-3c
basis def2-mSVP
mem_static	1024
mem_total	3000
sym_ignore	true
scf_convergence	9
solvent_method	pcm
$end

$molecule
read NaMe.mol
$end

$solvent
dielectric	2.38
$end

$pcm
theory iefpcm
$end

--------------------------------------------------------------

   15    -424.2620071723      5.10e-10  Convergence criterion met
 Total energy in the final basis set =     -424.2620071723
   14    -424.2668725858      6.35e-10  Convergence criterion met
 Total energy in the final basis set =     -424.2668725858
   14    -424.2670584013      2.79e-10  Convergence criterion met
 Total energy in the final basis set =     -424.2670584013
   14    -424.2670800678      2.38e-10  Convergence criterion met
 Total energy in the final basis set =     -424.2670800678
   14    -424.2670996132      2.65e-10  Convergence criterion met
 Total energy in the final basis set =     -424.2670996132
   14    -424.2671773669      5.07e-10  Convergence criterion met
 Total energy in the final basis set =     -424.2671773669
   14    -424.2672639761      5.29e-10  Convergence criterion met
 Total energy in the final basis set =     -424.2672639761
   15    -424.2588877698      4.09e-10  Convergence criterion met
   14    -424.2679870507      6.46e-10  Convergence criterion met
 Total energy in the final basis set =     -424.2679870507
   14    -424.2680436565      4.45e-10  Convergence criterion met
 Total energy in the final basis set =     -424.2680436565
   14    -424.2669731677      7.98e-10  Convergence criterion met
 Total energy in the final basis set =     -424.2669731677
   14    -424.2680634102      8.65e-10  Convergence criterion met
 Total energy in the final basis set =     -424.2680634102
   14    -424.2680853951      3.60e-10  Convergence criterion met
 Total energy in the final basis set =     -424.2680853951
   14    -424.2680877726      2.44e-10  Convergence criterion met
 Total energy in the final basis set =     -424.2680877726

             Standard Nuclear Orientation (Angstroms)
    I     Atom           X                Y                Z
 ----------------------------------------------------------------
    1      H       1.1040931177     2.0659158189    -0.4453837645
    2      C       0.8348880751     3.1015800024    -0.6236146545
    3      C       0.6510216742     3.9515046752     0.4919754169
    4      C       0.2959902146     5.3053515925     0.2763756118
    5      C       0.1405238441     5.7576591649    -1.0549560563
    6      C       0.3248417786     4.9095158493    -2.1082580395
    7      C       0.6773044431     3.5521802314    -1.9070967872
    8      C       0.8064726130     3.4878063909     1.8175369819
    9      C       0.6168173990     4.3297488396     2.8784886841
   10      C       0.2635620309     5.6768953713     2.6631218166
   11      C       0.1074451750     6.1527369004     1.3901777068
   12      C       0.8621241446     2.6514892267    -3.0916837661
   13      H      -0.1296293996     6.7921980328    -1.2306909517
   14      H       0.1990885954     5.2752879980    -3.1208300129
   15      H       1.0767208265     2.4513650753     1.9820190018
   16      H       0.7373274988     3.9631886968     3.8896151857
   17      H       0.1162349093     6.3334593859     3.5105799271
   18      H      -0.1638936620     7.1881515260     1.2216006470
   19      H       1.6490241517     3.0209986432    -3.7517314058
   20      H      -0.0509298584     2.5905485429    -3.6867598971
   21      H       1.1292724282     1.6396180356    -2.7900856441
 ----------------------------------------------------------------

   14    -424.2680882769      2.87e-10  Convergence criterion met
 Total energy in the final basis set =     -424.2680882769
 Final energy is   -424.268088276874
 **  OPTIMIZATION CONVERGED  **

                    Orbital Energies (a.u.)
 --------------------------------------------------------------

 Alpha MOs
 -- Occupied --
-10.458 -10.457 -10.456 -10.449 -10.448 -10.448 -10.447 -10.446
-10.446 -10.444 -10.432  -0.980  -0.927  -0.871  -0.850  -0.815
 -0.770  -0.701  -0.676  -0.673  -0.583  -0.573  -0.552  -0.510
 -0.504  -0.484  -0.479  -0.475  -0.452  -0.444  -0.439  -0.417
 -0.390  -0.382  -0.373  -0.332  -0.280  -0.253

          Ground-State Mulliken Net Atomic Charges

     Atom                 Charge (a.u.)
  ----------------------------------------
      1 H                     0.220853
      2 C                    -0.361844
      3 C                     0.160022
      4 C                     0.116056
      5 C                    -0.281675
      6 C                    -0.275898
      7 C                     0.118409
      8 C                    -0.299404
      9 C                    -0.238901
     10 C                    -0.242064
     11 C                    -0.294417
     12 C                    -0.715500
     13 H                     0.228147
     14 H                     0.227039
     15 H                     0.228443
     16 H                     0.234459
     17 H                     0.234204
     18 H                     0.229146
     19 H                     0.238423
     20 H                     0.238526
     21 H                     0.235978
  ----------------------------------------
  Sum of atomic charges =     0.000000

                    Cartesian Multipole Moments
 -----------------------------------------------------------------
    Charge (ESU x 10^10)
                 0.0000
    Dipole Moment (Debye)
         X       0.0167      Y      -0.1975      Z      -0.5328
       Tot       0.5684
    Quadrupole Moments (Debye-Ang)
        XX     -69.8729     XY      -3.7245     YY     -58.0517
        XZ       0.0335     YZ      -1.5971     ZZ     -54.0110

 Total job time:  1073.93s(wall), 4028.45s(cpu)
        *  Thank you very much for using Q-Chem.  Have a nice day.  *
