 Q-Chem 5.1, Q-Chem, Inc., Pleasanton, CA (2018)
 Q-Chem 5.1.1 for Intel X86 EM64T Linux

User input:
--------------------------------------------------------------
$rem
threads 4
jobtype opt
method PBEh-3c
basis def2-mSVP
mem_static      1024
mem_total       4000
sym_ignore      true
unrestricted true
scf_algorithm	diis
scf_max_cycles	250
solvent_method  pcm
geom_opt_tol_energy 25
geom_opt_tol_gradient 75
$end

$pcm
theory  iefpcm
$end

$solvent
dielectric      2.38
$end

$molecule
read NPh3_kat.mol
$end
--------------------------------------------------------------

   20    -826.2920803349      5.87e-09  Convergence criterion met
 Total energy in the final basis set =     -826.2920803349
   15    -826.2999760023      7.45e-09  Convergence criterion met
 Total energy in the final basis set =     -826.2999760023
   15    -826.2999603511      6.97e-09  Convergence criterion met
 Total energy in the final basis set =     -826.2999603511
   14    -826.3006138117      8.35e-09  Convergence criterion met
 Total energy in the final basis set =     -826.3006138117
   13    -826.3006173078      7.79e-09  Convergence criterion met
 Total energy in the final basis set =     -826.3006173078
   14    -826.3006329974      6.64e-09  Convergence criterion met
 Total energy in the final basis set =     -826.3006329974
   13    -826.3006467313      6.77e-09  Convergence criterion met
 Total energy in the final basis set =     -826.3006467313
   13    -826.3006476428      9.37e-09  Convergence criterion met
   12    -826.3006516334      8.78e-09  Convergence criterion met
 Total energy in the final basis set =     -826.3006516334
   14    -826.3006633844      6.54e-09  Convergence criterion met
 Total energy in the final basis set =     -826.3006633844
   14    -826.3006590806      6.45e-09  Convergence criterion met
 Total energy in the final basis set =     -826.3006590806
   13    -826.3006625069      7.08e-09  Convergence criterion met
 Total energy in the final basis set =     -826.3006625069
   14    -826.3006630898      6.47e-09  Convergence criterion met
 Total energy in the final basis set =     -826.3006630898
   13    -826.3006654968      9.01e-09  Convergence criterion met
 Total energy in the final basis set =     -826.3006654968

             Standard Nuclear Orientation (Angstroms)
    I     Atom           X                Y                Z
 ----------------------------------------------------------------
    1      C      -4.9414738912    -0.3243725247     4.4788898053
    2      C      -5.5385647946    -0.8136723935     3.3312051969
    3      C      -4.7600997182    -0.9424488092     2.1798803673
    4      C      -3.4060139491    -0.6026065268     2.1467996023
    5      C      -2.8166436771    -0.1254480172     3.3034380214
    6      C      -3.5836295842     0.0156113083     4.4667209113
    7      N      -2.9908957750     0.5001972203     5.6289182472
    8      C      -6.9804316683    -1.2224111485     3.3198710098
    9      C      -2.6272163186    -0.7392433538     0.8740610034
   10      C      -1.6932071116     0.1088023571     5.9657333846
   11      C      -0.8126259142     1.0306727014     6.5424014711
   12      C      -4.4986998601     2.3694183286     5.8981000043
   13      C      -3.7078941461     1.3636840441     6.4644992006
   14      C      -5.2143584449     3.2117925613     6.7250353407
   15      C      -5.1539258246     3.0546544913     8.1055782178
   16      C      -4.3685353786     2.0513300345     8.6635235921
   17      C      -3.6386554924     1.2055017447     7.8520459292
   18      C      -1.2891931085    -1.2092617306     5.7213889632
   19      C      -0.0064691895    -1.5945125511     6.0531372006
   20      C       0.8741512578    -0.6803976218     6.6219653928
   21      C       0.4680076939     0.6279902475     6.8639266883
   22      H      -5.2256757026    -1.3181892463     1.2748741462
   23      H      -5.5142339888    -0.2437799290     5.3940846359
   24      H      -1.7779977344     0.1795429086     3.2973465020
   25      H      -7.0770561889    -2.3037637760     3.2142289575
   26      H      -7.5101342625    -0.7679538093     2.4825204838
   27      H      -7.4895316707    -0.9307547925     4.2365194736
   28      H      -2.6300125127    -1.7727483730     0.5257713373
   29      H      -1.5906959556    -0.4323694723     0.9988387920
   30      H      -3.0638565371    -0.1310963907     0.0812852991
   31      H      -1.1221241010     2.0552671920     6.7011198171
   32      H      -4.5246670175     2.5036420168     4.8245227583
   33      H      -5.8139235809     4.0010644063     6.2931630151
   34      H      -5.7202339870     3.7149971682     8.7480461026
   35      H      -4.3360513535     1.9209463963     9.7362692009
   36      H      -3.0493084973     0.4059421549     8.2814782699
   37      H      -1.9873124793    -1.9269720242     5.3111237431
   38      H       0.3052944271    -2.6156117709     5.8823560746
   39      H       1.8784001746    -0.9889809254     6.8785232913
   40      H       1.1589958632     1.3399379045     7.2932085494
 ----------------------------------------------------------------

   12    -826.3006656366      8.82e-09  Convergence criterion met
 Total energy in the final basis set =     -826.3006656366
 Final energy is   -826.300665636587
 **  OPTIMIZATION CONVERGED  **

                    Orbital Energies (a.u.)
 --------------------------------------------------------------

 Alpha MOs
 -- Occupied --
-14.821 -10.577 -10.576 -10.576 -10.529 -10.529 -10.529 -10.529
-10.525 -10.525 -10.523 -10.523 -10.522 -10.521 -10.516 -10.516
-10.516 -10.516 -10.516 -10.480 -10.480  -1.206  -1.043  -1.041
 -1.020  -0.947  -0.943  -0.932  -0.915  -0.915  -0.881  -0.838
 -0.834  -0.796  -0.789  -0.759  -0.752  -0.719  -0.715  -0.686
 -0.668  -0.641  -0.632  -0.625  -0.623  -0.599  -0.587  -0.570
 -0.568  -0.562  -0.557  -0.542  -0.539  -0.539  -0.528  -0.519
 -0.509  -0.503  -0.493  -0.493  -0.485  -0.479  -0.475  -0.474
 -0.466  -0.459  -0.445  -0.381  -0.377  -0.376  -0.365  -0.353
 -0.321

 Beta MOs
 -- Occupied --
-14.809 -10.578 -10.577 -10.577 -10.527 -10.527 -10.527 -10.527
-10.526 -10.526 -10.520 -10.520 -10.519 -10.519 -10.517 -10.517
-10.517 -10.517 -10.513 -10.480 -10.480  -1.188  -1.040  -1.038
 -1.016  -0.946  -0.940  -0.929  -0.913  -0.913  -0.872  -0.834
 -0.831  -0.792  -0.785  -0.756  -0.751  -0.717  -0.713  -0.684
 -0.666  -0.639  -0.625  -0.620  -0.615  -0.596  -0.586  -0.568
 -0.566  -0.560  -0.556  -0.539  -0.538  -0.536  -0.520  -0.511
 -0.506  -0.497  -0.491  -0.488  -0.481  -0.476  -0.474  -0.471
 -0.465  -0.458  -0.421  -0.373  -0.366  -0.366  -0.352  -0.346

          Ground-State Mulliken Net Atomic Charges

     Atom                 Charge (a.u.)    Spin (a.u.)
  --------------------------------------------------------
      1 C                    -0.336317       0.156360
      2 C                     0.145851      -0.112728
      3 C                    -0.303361       0.232389
      4 C                     0.145607      -0.112781
      5 C                    -0.336663       0.155151
      6 C                     0.309556      -0.068978
      7 N                    -0.555431       0.430557
      8 C                    -0.713736       0.008878
      9 C                    -0.714474       0.008852
     10 C                     0.268786      -0.076970
     11 C                    -0.256865       0.143128
     12 C                    -0.252761       0.138057
     13 C                     0.258704      -0.075066
     14 C                    -0.225093      -0.097436
     15 C                    -0.213577       0.174423
     16 C                    -0.225633      -0.095580
     17 C                    -0.254317       0.135746
     18 C                    -0.255221       0.146479
     19 C                    -0.224596      -0.103497
     20 C                    -0.213319       0.185994
     21 C                    -0.224815      -0.101046
     22 H                     0.257561      -0.012993
     23 H                     0.285717      -0.008004
     24 H                     0.286376      -0.007905
     25 H                     0.259851      -0.004188
     26 H                     0.255942      -0.002612
     27 H                     0.248348      -0.000560
     28 H                     0.257471      -0.003155
     29 H                     0.248571      -0.000514
     30 H                     0.258285      -0.003753
     31 H                     0.292634      -0.007352
     32 H                     0.292376      -0.007006
     33 H                     0.273987       0.004937
     34 H                     0.275394      -0.009438
     35 H                     0.274320       0.004840
     36 H                     0.291852      -0.006981
     37 H                     0.294277      -0.007431
     38 H                     0.274222       0.005221
     39 H                     0.275848      -0.010057
     40 H                     0.274646       0.005019
  --------------------------------------------------------
  Sum of atomic charges =     1.000000

                    Cartesian Multipole Moments
 -----------------------------------------------------------------
    Charge (ESU x 10^10)
                 4.8032
    Dipole Moment (Debye)
         X     -15.0460      Y       1.7337      Z      25.7912
       Tot      29.9095
    Quadrupole Moments (Debye-Ang)
        XX     -35.9226     XY     -13.8350     YY    -100.8418
        XZ     -73.4652     YZ      24.2708     ZZ      53.3226

 Total job time:  5538.70s(wall), 20529.63s(cpu)
        *  Thank you very much for using Q-Chem.  Have a nice day.  *
