 Q-Chem 5.1, Q-Chem, Inc., Pleasanton, CA (2018)
 Q-Chem 5.1.1 for Intel X86 EM64T Linux

User input:
--------------------------------------------------------------

$molecule
read NPh3.mol
$end

$rem
threads 8
jobtype	opt
method PBEh-3c
basis def2-mSVP
mem_static	512
mem_total	6096
sym_ignore	true
$end

--------------------------------------------------------------

   14    -826.5015957704      4.06e-09  Convergence criterion met
 Total energy in the final basis set =     -826.5015957704
   12    -826.5079649830      3.13e-09  Convergence criterion met
 Total energy in the final basis set =     -826.5079649830
   11    -826.5080843739      5.28e-09  Convergence criterion met
 Total energy in the final basis set =     -826.5080843739
   10    -826.5081572773      9.60e-09  Convergence criterion met
 Total energy in the final basis set =     -826.5081572773
   10    -826.5081679194      2.54e-09  Convergence criterion met
 Total energy in the final basis set =     -826.5081679194
    9    -826.5081651670      2.90e-09  Convergence criterion met
 Total energy in the final basis set =     -826.5081651670
    9    -826.5081711805      3.98e-09  Convergence criterion met
 Total energy in the final basis set =     -826.5081711805
    9    -826.5081757717      4.51e-09  Convergence criterion met
   10    -826.5082992945      7.24e-09  Convergence criterion met
 Total energy in the final basis set =     -826.5082992945
    9    -826.5083079897      3.87e-09  Convergence criterion met
 Total energy in the final basis set =     -826.5083079897
    9    -826.5083135204      4.70e-09  Convergence criterion met
 Total energy in the final basis set =     -826.5083135204
    9    -826.5083197082      4.89e-09  Convergence criterion met
 Total energy in the final basis set =     -826.5083197082
    8    -826.5083207810      4.79e-09  Convergence criterion met
 Total energy in the final basis set =     -826.5083207810
    8    -826.5083225546      8.87e-09  Convergence criterion met
 Total energy in the final basis set =     -826.5083225546

             Standard Nuclear Orientation (Angstroms)
    I     Atom           X                Y                Z
 ----------------------------------------------------------------
    1      C      -4.8978104205    -0.4001288756     4.4816614159
    2      C      -5.5121633577    -0.8926177361     3.3355993921
    3      C      -4.7741386712    -0.9828484039     2.1638362176
    4      C      -3.4431727832    -0.5760882145     2.1137811443
    5      C      -2.8546996084    -0.0634614275     3.2592343951
    6      C      -3.5745831084     0.0215876700     4.4499540188
    7      N      -2.9667906893     0.5357904548     5.6092062285
    8      C      -6.9551280171    -1.3065109451     3.3730789066
    9      C      -2.6621971729    -0.6966800118     0.8371697539
   10      C      -1.6812618086     0.1090082812     5.9743966892
   11      C      -0.7733267050     0.9999961761     6.5455125386
   12      C      -4.4411404789     2.4427618111     5.8759356574
   13      C      -3.6935593999     1.4083535721     6.4367117818
   14      C      -5.1817148790     3.2866518640     6.6855791255
   15      C      -5.1746968584     3.1274413690     8.0638949746
   16      C      -4.4236559631     2.1044893208     8.6238932274
   17      C      -3.6947664689     1.2433776383     7.8203391808
   18      C      -1.2921154309    -1.2141914053     5.7662232433
   19      C      -0.0174986953    -1.6287642500     6.1115496327
   20      C       0.8818569555    -0.7440520692     6.6883601381
   21      C       0.4919550921     0.5690891216     6.9070471028
   22      H      -5.2443713482    -1.3743082451     1.2681216423
   23      H      -5.4583615351    -0.3388491240     5.4071446939
   24      H      -1.8255676611     0.2735353475     3.2327656099
   25      H      -7.2221872403    -1.9149918180     2.5097833348
   26      H      -7.6119534072    -0.4344702262     3.3742180826
   27      H      -7.1842506959    -1.8832330965     4.2693857759
   28      H      -2.3498352881    -1.7285418454     0.6646973831
   29      H      -1.7626043467    -0.0828384939     0.8561962007
   30      H      -3.2554103107    -0.3911706218    -0.0250844395
   31      H      -1.0614284633     2.0311150043     6.7040669874
   32      H      -4.4449527207     2.5786143069     4.8019510305
   33      H      -5.7594994143     4.0826965881     6.2340310301
   34      H      -5.7495018559     3.7923928284     8.6943161983
   35      H      -4.4160241511     1.9623975455     9.6967515589
   36      H      -3.1259719601     0.4363729784     8.2639352180
   37      H      -1.9907295023    -1.9177700080     5.3324013850
   38      H       0.2683592253    -2.6587204689     5.9409508976
   39      H       1.8742958670    -1.0743565981     6.9638205103
   40      H       1.1841032777     1.2733220071     7.3499821351
 ----------------------------------------------------------------

    8    -826.5083222496      7.86e-09  Convergence criterion met
 Total energy in the final basis set =     -826.5083222496
 Final energy is   -826.508322249638
 **  OPTIMIZATION CONVERGED  **

                    Orbital Energies (a.u.)
 --------------------------------------------------------------

 Alpha MOs
 -- Occupied --
-14.668 -10.488 -10.488 -10.485 -10.454 -10.454 -10.447 -10.447
-10.446 -10.445 -10.443 -10.443 -10.442 -10.442 -10.441 -10.440
-10.436 -10.435 -10.434 -10.432 -10.432  -1.078  -0.962  -0.958
 -0.939  -0.875  -0.859  -0.849  -0.837  -0.835  -0.799  -0.773
 -0.766  -0.707  -0.702  -0.680  -0.674  -0.648  -0.639  -0.605
 -0.587  -0.565  -0.551  -0.544  -0.540  -0.520  -0.509  -0.496
 -0.494  -0.484  -0.480  -0.479  -0.475  -0.469  -0.462  -0.451
 -0.440  -0.426  -0.425  -0.422  -0.411  -0.406  -0.405  -0.400
 -0.392  -0.389  -0.354  -0.301  -0.298  -0.296  -0.287  -0.275
 -0.221

          Ground-State Mulliken Net Atomic Charges

     Atom                 Charge (a.u.)
  ----------------------------------------
      1 C                    -0.347462
      2 C                     0.154506
      3 C                    -0.343717
      4 C                     0.154644
      5 C                    -0.348802
      6 C                     0.322560
      7 N                    -0.672824
      8 C                    -0.707889
      9 C                    -0.708574
     10 C                     0.300100
     11 C                    -0.280954
     12 C                    -0.272127
     13 C                     0.286061
     14 C                    -0.214657
     15 C                    -0.236593
     16 C                    -0.215453
     17 C                    -0.276489
     18 C                    -0.282327
     19 C                    -0.213485
     20 C                    -0.238660
     21 C                    -0.214046
     22 H                     0.200354
     23 H                     0.235241
     24 H                     0.235487
     25 H                     0.226631
     26 H                     0.236587
     27 H                     0.231192
     28 H                     0.235574
     29 H                     0.230441
     30 H                     0.228903
     31 H                     0.245098
     32 H                     0.244487
     33 H                     0.219987
     34 H                     0.217768
     35 H                     0.220416
     36 H                     0.245332
     37 H                     0.247066
     38 H                     0.219310
     39 H                     0.216760
     40 H                     0.219555
  ----------------------------------------
  Sum of atomic charges =    -0.000000

                    Cartesian Multipole Moments
 -----------------------------------------------------------------
    Charge (ESU x 10^10)
                -0.0000
    Dipole Moment (Debye)
         X      -0.4020      Y      -0.1971      Z      -0.4301
       Tot       0.6208
    Quadrupole Moments (Debye-Ang)
        XX    -112.2937     XY      -1.7667     YY    -119.0918
        XZ       0.8754     YZ       2.6715     ZZ    -119.2613

 Total job time:  1403.79s(wall), 11188.04s(cpu)
        *  Thank you very much for using Q-Chem.  Have a nice day.  *
