 Q-Chem 5.1, Q-Chem, Inc., Pleasanton, CA (2018)
 Q-Chem 5.1.1 for Intel X86 EM64T Linux

User input:
--------------------------------------------------------------
$rem
threads 4
jobtype	opt
method PBEh-3c
basis def2-mSVP
mem_static	1024
mem_total	3000
sym_ignore	true
scf_convergence	9
solvent_method	pcm
$end

$molecule
read NPh3.mol
$end

$solvent
dielectric	2.38
$end

$pcm
theory iefpcm
$end

--------------------------------------------------------------

   15    -826.5074123534      9.18e-10  Convergence criterion met
 Total energy in the final basis set =     -826.5074123534
   14    -826.5135245880      5.98e-10  Convergence criterion met
 Total energy in the final basis set =     -826.5135245880
   13    -826.5136359863      9.28e-10  Convergence criterion met
 Total energy in the final basis set =     -826.5136359863
   14    -826.5136933441      2.94e-10  Convergence criterion met
 Total energy in the final basis set =     -826.5136933441
   13    -826.5137031023      7.81e-10  Convergence criterion met
 Total energy in the final basis set =     -826.5137031023
   13    -826.5137007577      8.13e-10  Convergence criterion met
 Total energy in the final basis set =     -826.5137007577
   13    -826.5137063950      8.19e-10  Convergence criterion met
 Total energy in the final basis set =     -826.5137063950
   13    -826.5137111530      8.27e-10  Convergence criterion met
   13    -826.5138478253      9.23e-10  Convergence criterion met
 Total energy in the final basis set =     -826.5138478253
   13    -826.5138515925      9.15e-10  Convergence criterion met
 Total energy in the final basis set =     -826.5138515925
   13    -826.5138529929      9.10e-10  Convergence criterion met
 Total energy in the final basis set =     -826.5138529929
   13    -826.5138545002      9.10e-10  Convergence criterion met
 Total energy in the final basis set =     -826.5138545002
   13    -826.5138555175      9.13e-10  Convergence criterion met
 Total energy in the final basis set =     -826.5138555175
   13    -826.5138567017      9.13e-10  Convergence criterion met
 Total energy in the final basis set =     -826.5138567017

             Standard Nuclear Orientation (Angstroms)
    I     Atom           X                Y                Z
 ----------------------------------------------------------------
    1      C      -4.8961857959    -0.4055597445     4.4832998021
    2      C      -5.5119184141    -0.8977273307     3.3367528463
    3      C      -4.7752027179    -0.9846121037     2.1632577900
    4      C      -3.4444257867    -0.5744214431     2.1115702699
    5      C      -2.8554128742    -0.0611411084     3.2571478749
    6      C      -3.5741628784     0.0203505629     4.4493680817
    7      N      -2.9657096258     0.5363624446     5.6083003505
    8      C      -6.9540992345    -1.3143885976     3.3763947858
    9      C      -2.6655110893    -0.6907401237     0.8331787657
   10      C      -1.6808778826     0.1086638572     5.9750619476
   11      C      -0.7726523774     0.9999596907     6.5466640443
   12      C      -4.4354238190     2.4478458544     5.8739434427
   13      C      -3.6929672010     1.4094599473     6.4354892105
   14      C      -5.1765085305     3.2928879547     6.6828183981
   15      C      -5.1746523572     3.1309284458     8.0616679428
   16      C      -4.4282942349     2.1041866158     8.6224115780
   17      C      -3.6991787342     1.2418688336     7.8190228309
   18      C      -1.2919636655    -1.2151986657     5.7681424893
   19      C      -0.0170572633    -1.6303757478     6.1146302049
   20      C       0.8827376944    -0.7452268121     6.6916494984
   21      C       0.4928138934     0.5688732400     6.9095663738
   22      H      -5.2459440689    -1.3759480843     1.2676309820
   23      H      -5.4562857017    -0.3490134549     5.4095116595
   24      H      -1.8274393182     0.2796035088     3.2276634172
   25      H      -7.2230221434    -1.9166882484     2.5094198855
   26      H      -7.6111246741    -0.4424459377     3.3865662439
   27      H      -7.1793006697    -1.8961635560     4.2705341818
   28      H      -2.3629128123    -1.7241216634     0.6522214886
   29      H      -1.7605141460    -0.0850413642     0.8573354352
   30      H      -3.2577785096    -0.3740434801    -0.0257310815
   31      H      -1.0588584110     2.0318767817     6.7046749449
   32      H      -4.4355252384     2.5877111878     4.8002924133
   33      H      -5.7502651125     4.0916922866     6.2306399876
   34      H      -5.7497146468     3.7966085188     8.6914029068
   35      H      -4.4244281458     1.9595906418     9.6951154824
   36      H      -3.1355249053     0.4322589633     8.2648159486
   37      H      -1.9894838478    -1.9204730826     5.3349450007
   38      H       0.2682795645    -2.6607417564     5.9446698917
   39      H       1.8751351144    -1.0756963352     6.9678237246
   40      H       1.1848605669     1.2734393048     7.3525289591
 ----------------------------------------------------------------

   13    -826.5138571298      9.09e-10  Convergence criterion met
 Total energy in the final basis set =     -826.5138571298
 Final energy is   -826.513857129772
 **  OPTIMIZATION CONVERGED  **

                    Orbital Energies (a.u.)
 --------------------------------------------------------------

 Alpha MOs
 -- Occupied --
-14.669 -10.490 -10.490 -10.487 -10.455 -10.455 -10.448 -10.448
-10.447 -10.447 -10.445 -10.444 -10.443 -10.443 -10.443 -10.441
-10.437 -10.437 -10.434 -10.429 -10.429  -1.080  -0.963  -0.960
 -0.940  -0.875  -0.859  -0.850  -0.838  -0.836  -0.800  -0.772
 -0.766  -0.708  -0.703  -0.681  -0.675  -0.648  -0.640  -0.606
 -0.588  -0.565  -0.551  -0.544  -0.541  -0.520  -0.510  -0.497
 -0.495  -0.484  -0.481  -0.479  -0.474  -0.467  -0.462  -0.449
 -0.440  -0.427  -0.426  -0.422  -0.411  -0.407  -0.405  -0.401
 -0.393  -0.389  -0.355  -0.303  -0.300  -0.298  -0.289  -0.276
 -0.223

          Ground-State Mulliken Net Atomic Charges

     Atom                 Charge (a.u.)
  ----------------------------------------
      1 C                    -0.355207
      2 C                     0.143585
      3 C                    -0.355204
      4 C                     0.143939
      5 C                    -0.357683
      6 C                     0.322316
      7 N                    -0.672014
      8 C                    -0.714967
      9 C                    -0.715541
     10 C                     0.300695
     11 C                    -0.291049
     12 C                    -0.282089
     13 C                     0.286125
     14 C                    -0.229268
     15 C                    -0.251752
     16 C                    -0.230108
     17 C                    -0.285844
     18 C                    -0.292525
     19 C                    -0.228229
     20 C                    -0.254311
     21 C                    -0.228839
     22 H                     0.214977
     23 H                     0.243359
     24 H                     0.244476
     25 H                     0.233153
     26 H                     0.241420
     27 H                     0.236537
     28 H                     0.240480
     29 H                     0.236352
     30 H                     0.234651
     31 H                     0.254272
     32 H                     0.253688
     33 H                     0.235393
     34 H                     0.232720
     35 H                     0.235643
     36 H                     0.254219
     37 H                     0.255613
     38 H                     0.234667
     39 H                     0.231566
     40 H                     0.234785
  ----------------------------------------
  Sum of atomic charges =    -0.000000

                    Cartesian Multipole Moments
 -----------------------------------------------------------------
    Charge (ESU x 10^10)
                -0.0000
    Dipole Moment (Debye)
         X      -0.4689      Y      -0.2168      Z      -0.4868
       Tot       0.7098
    Quadrupole Moments (Debye-Ang)
        XX    -110.5829     XY      -1.8747     YY    -118.2718
        XZ       0.8341     YZ       2.9652     ZZ    -118.4686

 Total job time:  7997.98s(wall), 29896.09s(cpu)
        *  Thank you very much for using Q-Chem.  Have a nice day.  *
