 Q-Chem 5.1, Q-Chem, Inc., Pleasanton, CA (2018)
 Q-Chem 5.1.1 for Intel X86 EM64T Linux

User input:
--------------------------------------------------------------

$molecule
read OMe.mol
$end

$rem
threads 8
jobtype	opt
method PBEh-3c
basis def2-mSVP
mem_static	512
mem_total	6096
sym_ignore	true
$end

--------------------------------------------------------------

   14    -424.4677964592      4.35e-09  Convergence criterion met
 Total energy in the final basis set =     -424.4677964592
   12    -424.4741381408      4.32e-09  Convergence criterion met
 Total energy in the final basis set =     -424.4741381408
   11    -424.4744611798      4.34e-09  Convergence criterion met
 Total energy in the final basis set =     -424.4744611798
   10    -424.4745104756      8.50e-09  Convergence criterion met
 Total energy in the final basis set =     -424.4745104756
    9    -424.4745162894      5.79e-09  Convergence criterion met
 Total energy in the final basis set =     -424.4745162894

             Standard Nuclear Orientation (Angstroms)
    I     Atom           X                Y                Z
 ----------------------------------------------------------------
    1      H       2.0960942874    -3.1168387172     1.3798638936
    2      C       0.4612584750    -3.4713181914     4.3136112053
    3      C       1.4790112489    -3.1416095015     3.4350131495
    4      C       1.3014951562    -3.3731698756     2.0725478778
    5      C       0.1251386145    -3.9240926953     1.5890142281
    6      C      -0.8935703116    -4.2512594765     2.4813675780
    7      C      -0.7272670031    -4.0258438825     3.8425537989
    8      C       2.7604445063    -2.5402916055     3.9348029161
    9      C      -0.0506584596    -4.1677194648     0.1171361266
   10      O      -1.6580731753    -4.3097629198     4.7765468961
   11      C      -2.8843932263    -4.8486776779     4.3613160761
   12      H       0.5732493486    -3.3000569002     5.3772297467
   13      H      -1.8080034084    -4.6797435952     2.0917771820
   14      H       3.6144302089    -3.1766266609     3.6975281838
   15      H       2.7450626689    -2.3972345510     5.0142151340
   16      H       2.9455005070    -1.5684668086     3.4748912810
   17      H       0.6965414858    -4.8671590547    -0.2608389935
   18      H       0.0551710596    -3.2439705783    -0.4534957543
   19      H      -1.0320140096    -4.5826569310    -0.1100021130
   20      H      -3.4821535619    -4.9899084507     5.2593440146
   21      H      -3.4264063775    -4.1784974281     3.6859659145
   22      H      -2.7674580338    -5.8188950333     3.8673116582
 ----------------------------------------------------------------

    8    -424.4745164980      6.80e-09  Convergence criterion met
 Total energy in the final basis set =     -424.4745164980
 Final energy is   -424.474516497974
 **  OPTIMIZATION CONVERGED  **

                    Orbital Energies (a.u.)
 --------------------------------------------------------------

 Alpha MOs
 -- Occupied --
-19.524 -10.502 -10.489 -10.452 -10.451 -10.433 -10.431 -10.429
-10.429 -10.426  -1.182  -0.954  -0.873  -0.853  -0.791  -0.769
 -0.757  -0.658  -0.646  -0.585  -0.558  -0.543  -0.534  -0.490
 -0.480  -0.475  -0.467  -0.459  -0.450  -0.429  -0.419  -0.407
 -0.399  -0.375  -0.358  -0.276  -0.253

          Ground-State Mulliken Net Atomic Charges

     Atom                 Charge (a.u.)
  ----------------------------------------
      1 H                     0.197952
      2 C                    -0.381877
      3 C                     0.161893
      4 C                    -0.346301
      5 C                     0.167322
      6 C                    -0.428286
      7 C                     0.432070
      8 C                    -0.710422
      9 C                    -0.710381
     10 O                    -0.452866
     11 C                    -0.406755
     12 H                     0.222764
     13 H                     0.222338
     14 H                     0.232332
     15 H                     0.229005
     16 H                     0.231833
     17 H                     0.233791
     18 H                     0.233320
     19 H                     0.223802
     20 H                     0.239728
     21 H                     0.204565
     22 H                     0.204173
  ----------------------------------------
  Sum of atomic charges =    -0.000000

                    Cartesian Multipole Moments
 -----------------------------------------------------------------
    Charge (ESU x 10^10)
                -0.0000
    Dipole Moment (Debye)
         X      -0.7660      Y      -0.3941      Z      -0.8956
       Tot       1.2426
    Quadrupole Moments (Debye-Ang)
        XX     -51.0299     XY       8.1654     YY     -58.5176
        XZ      -2.6125     YZ       2.8347     ZZ     -63.2880

 Total job time:  55.23s(wall), 441.65s(cpu)
        *  Thank you very much for using Q-Chem.  Have a nice day.  *
