 Q-Chem 5.1, Q-Chem, Inc., Pleasanton, CA (2018)
 Q-Chem 5.1.1 for Intel X86 EM64T Linux

User input:
--------------------------------------------------------------
$rem
threads 4
jobtype	opt
method PBEh-3c
basis def2-mSVP
mem_static	1024
mem_total	3000
sym_ignore	true
scf_convergence	9
solvent_method	pcm
$end

$molecule
read OMe.mol
$end

$solvent
dielectric	2.38
$end

$pcm
theory iefpcm
$end

--------------------------------------------------------------

   16    -424.4715772455      3.55e-10  Convergence criterion met
 Total energy in the final basis set =     -424.4715772455
   14    -424.4778603468      4.41e-10  Convergence criterion met
 Total energy in the final basis set =     -424.4778603468
   13    -424.4781877356      6.82e-10  Convergence criterion met
 Total energy in the final basis set =     -424.4781877356
   13    -424.4782386790      8.59e-10  Convergence criterion met
 Total energy in the final basis set =     -424.4782386790
   13    -424.4782444512      6.42e-10  Convergence criterion met
 Total energy in the final basis set =     -424.4782444512

             Standard Nuclear Orientation (Angstroms)
    I     Atom           X                Y                Z
 ----------------------------------------------------------------
    1      H       2.0963332568    -3.1157016168     1.3789112308
    2      C       0.4622791612    -3.4711394565     4.3145019312
    3      C       1.4804437347    -3.1408020823     3.4350555012
    4      C       1.3022356725    -3.3724680403     2.0721354875
    5      C       0.1250438108    -3.9243994814     1.5889375777
    6      C      -0.8937589311    -4.2525310062     2.4818650765
    7      C      -0.7269144756    -4.0264856772     3.8435939222
    8      C       2.7619139653    -2.5393104900     3.9351552309
    9      C      -0.0514595060    -4.1680551130     0.1169747852
   10      O      -1.6578372216    -4.3106065043     4.7771264725
   11      C      -2.8881797157    -4.8499658050     4.3601604982
   12      H       0.5767235607    -3.2986576302     5.3780528234
   13      H      -1.8083127059    -4.6817395221     2.0930332405
   14      H       3.6157926651    -3.1752188693     3.6961180918
   15      H       2.7462430692    -2.3973224258     5.0147520602
   16      H       2.9466130473    -1.5675712650     3.4748111567
   17      H       0.6958222469    -4.8677084295    -0.2606346921
   18      H       0.0566146953    -3.2442648767    -0.4532691779
   19      H      -1.0334883588    -4.5818264286    -0.1091882201
   20      H      -3.4858962338    -4.9904636013     5.2580800003
   21      H      -3.4270905581    -4.1781605370     3.6850320960
   22      H      -2.7697211792    -5.8194011416     3.8664949072
 ----------------------------------------------------------------

   13    -424.4782447008      9.99e-10  Convergence criterion met
 Total energy in the final basis set =     -424.4782447008
 Final energy is   -424.478244700769
 **  OPTIMIZATION CONVERGED  **

                    Orbital Energies (a.u.)
 --------------------------------------------------------------

 Alpha MOs
 -- Occupied --
-19.526 -10.504 -10.485 -10.455 -10.453 -10.435 -10.431 -10.429
-10.428 -10.428  -1.182  -0.956  -0.874  -0.854  -0.790  -0.769
 -0.757  -0.658  -0.647  -0.585  -0.559  -0.544  -0.533  -0.488
 -0.479  -0.475  -0.466  -0.460  -0.449  -0.429  -0.419  -0.407
 -0.400  -0.376  -0.360  -0.278  -0.255

          Ground-State Mulliken Net Atomic Charges

     Atom                 Charge (a.u.)
  ----------------------------------------
      1 H                     0.211724
      2 C                    -0.396467
      3 C                     0.150487
      4 C                    -0.357075
      5 C                     0.155280
      6 C                    -0.439941
      7 C                     0.424779
      8 C                    -0.717318
      9 C                    -0.717370
     10 O                    -0.461593
     11 C                    -0.419113
     12 H                     0.233594
     13 H                     0.239763
     14 H                     0.237618
     15 H                     0.235253
     16 H                     0.237155
     17 H                     0.238879
     18 H                     0.238434
     19 H                     0.231294
     20 H                     0.248025
     21 H                     0.213431
     22 H                     0.213161
  ----------------------------------------
  Sum of atomic charges =     0.000000

                    Cartesian Multipole Moments
 -----------------------------------------------------------------
    Charge (ESU x 10^10)
                 0.0000
    Dipole Moment (Debye)
         X      -0.8613      Y      -0.4485      Z      -1.0654
       Tot       1.4416
    Quadrupole Moments (Debye-Ang)
        XX     -49.8684     XY       9.0206     YY     -57.9060
        XZ      -2.8718     YZ       3.3872     ZZ     -63.8975

 Total job time:  456.02s(wall), 1720.48s(cpu)
        *  Thank you very much for using Q-Chem.  Have a nice day.  *
