 Q-Chem 5.1, Q-Chem, Inc., Pleasanton, CA (2018)
 Q-Chem 5.1.1 for Intel X86 EM64T Linux

User input:
--------------------------------------------------------------
$rem
threads 4
jobtype opt
method PBEh-3c
basis def2-mSVP
mem_static      1024
mem_total       4000
sym_ignore      true
unrestricted true
scf_algorithm	diis
scf_max_cycles	250
solvent_method  pcm
geom_opt_tol_energy 25
geom_opt_tol_gradient 75
$end

$pcm
theory  iefpcm
$end

$solvent
dielectric      2.38
$end

$molecule
read OMe_kat.mol
$end
--------------------------------------------------------------

   22    -424.2183429945      4.87e-09  Convergence criterion met
 Total energy in the final basis set =     -424.2183429945
   16    -424.2320928672      6.33e-09  Convergence criterion met
 Total energy in the final basis set =     -424.2320928672
   16    -424.2330459652      7.13e-09  Convergence criterion met
 Total energy in the final basis set =     -424.2330459652
   15    -424.2331429025      6.59e-09  Convergence criterion met
 Total energy in the final basis set =     -424.2331429025
   15    -424.2331606146      4.66e-09  Convergence criterion met
 Total energy in the final basis set =     -424.2331606146
   15    -424.2331623412      5.10e-09  Convergence criterion met
 Total energy in the final basis set =     -424.2331623412

             Standard Nuclear Orientation (Angstroms)
    I     Atom           X                Y                Z
 ----------------------------------------------------------------
    1      H       2.0762105184    -3.1248131432     1.3952636013
    2      C       0.4682559949    -3.4617445061     4.3229263896
    3      C       1.4821696370    -3.1347362053     3.4675985674
    4      C       1.2830104684    -3.3776356878     2.0902170815
    5      C       0.0829222595    -3.9420899811     1.5655437769
    6      C      -0.9242449395    -4.2650588279     2.4296209351
    7      C      -0.7446714350    -4.0278899315     3.8169225577
    8      C       2.7683765603    -2.5398151760     3.9386086625
    9      C      -0.0292007872    -4.1618794837     0.0961256085
   10      O      -1.6328973789    -4.2933093200     4.7156568091
   11      C      -2.9121471870    -4.8588763024     4.3881043220
   12      H       0.5507640502    -3.3023449075     5.3906991855
   13      H      -1.8435211035    -4.6955036196     2.0557580139
   14      H       3.6097981040    -3.1797352747     3.6707867140
   15      H       2.7762021383    -2.4035881764     5.0174427185
   16      H       2.9376124149    -1.5689010980     3.4720083404
   17      H       0.7497359472    -4.8442322019    -0.2484724145
   18      H       0.1082619031    -3.2236686379    -0.4439189569
   19      H      -0.9946613515    -4.5782731020    -0.1809603490
   20      H      -3.4347318712    -4.9612360752     5.3324028738
   21      H      -3.4658117200    -4.1910509615     3.7295570883
   22      H      -2.7880322223    -5.8374173804     3.9258084742
 ----------------------------------------------------------------

   15    -424.2331625720      4.80e-09  Convergence criterion met
 Total energy in the final basis set =     -424.2331625720
 Final energy is   -424.233162571999
 **  OPTIMIZATION CONVERGED  **

                    Orbital Energies (a.u.)
 --------------------------------------------------------------

 Alpha MOs
 -- Occupied --
-19.674 -10.653 -10.576 -10.573 -10.573 -10.562 -10.558 -10.553
-10.506 -10.500  -1.333  -1.076  -0.984  -0.969  -0.899  -0.865
 -0.863  -0.769  -0.750  -0.695  -0.674  -0.661  -0.659  -0.586
 -0.573  -0.573  -0.569  -0.544  -0.537  -0.529  -0.524  -0.505
 -0.498  -0.481  -0.476  -0.394  -0.386

 Beta MOs
 -- Occupied --
-19.667 -10.650 -10.575 -10.574 -10.568 -10.564 -10.554 -10.551
-10.506 -10.500  -1.319  -1.066  -0.983  -0.958  -0.893  -0.860
 -0.854  -0.764  -0.747  -0.691  -0.670  -0.655  -0.630  -0.583
 -0.572  -0.566  -0.561  -0.544  -0.535  -0.523  -0.514  -0.504
 -0.496  -0.478  -0.441  -0.386

          Ground-State Mulliken Net Atomic Charges

     Atom                 Charge (a.u.)    Spin (a.u.)
  --------------------------------------------------------
      1 H                     0.295774      -0.031548
      2 C                    -0.341800       0.254287
      3 C                     0.168424      -0.190219
      4 C                    -0.253745       0.580891
      5 C                     0.183797      -0.075866
      6 C                    -0.395298       0.116008
      7 C                     0.501456       0.163647
      8 C                    -0.712025       0.013804
      9 C                    -0.714363       0.007640
     10 O                    -0.359327       0.189984
     11 C                    -0.453618      -0.017061
     12 H                     0.309662      -0.014744
     13 H                     0.306037      -0.008053
     14 H                     0.270653      -0.004922
     15 H                     0.265870      -0.001166
     16 H                     0.270276      -0.004882
     17 H                     0.276524       0.000099
     18 H                     0.275651      -0.000037
     19 H                     0.265625      -0.001202
     20 H                     0.301986       0.000054
     21 H                     0.269089       0.011611
     22 H                     0.269351       0.011675
  --------------------------------------------------------
  Sum of atomic charges =     1.000000

                    Cartesian Multipole Moments
 -----------------------------------------------------------------
    Charge (ESU x 10^10)
                 4.8032
    Dipole Moment (Debye)
         X      -1.5339      Y     -18.9868      Z      13.9840
       Tot      23.6306
    Quadrupole Moments (Debye-Ang)
        XX     -31.5353     XY      16.8604     YY      20.3210
        XZ      -9.3501     YZ     -55.2501     ZZ      -1.1169

 Total job time:  377.93s(wall), 1442.87s(cpu)
        *  Thank you very much for using Q-Chem.  Have a nice day.  *
