 Q-Chem 5.1, Q-Chem, Inc., Pleasanton, CA (2018)
 Q-Chem 5.1.1 for Intel X86 EM64T Linux

User input:
--------------------------------------------------------------
$rem
threads 4
jobtype opt
method PBEh-3c
basis def2-mSVP
mem_static      1024
mem_total       4000
sym_ignore      true
unrestricted true
scf_algorithm	diis
scf_max_cycles	250
solvent_method  pcm
geom_opt_tol_energy 25
geom_opt_tol_gradient 75
$end

$pcm
theory  iefpcm
$end

$solvent
dielectric      2.38
$end

$molecule
read T_Cz_kat.mol
$end
--------------------------------------------------------------

   22   -1067.0986602250      8.17e-09  Convergence criterion met
 Total energy in the final basis set =    -1067.0986602250
   18   -1067.1197268376      7.56e-09  Convergence criterion met
 Total energy in the final basis set =    -1067.1197268376
   18   -1067.1218641033      8.91e-09  Convergence criterion met
 Total energy in the final basis set =    -1067.1218641033
   18   -1067.1225360516      7.10e-09  Convergence criterion met
 Total energy in the final basis set =    -1067.1225360516
   18   -1067.1228542124      7.66e-09  Convergence criterion met
 Total energy in the final basis set =    -1067.1228542124
   16   -1067.1230219291      6.98e-09  Convergence criterion met
 Total energy in the final basis set =    -1067.1230219291
   16   -1067.1230056550      5.70e-09  Convergence criterion met
 Total energy in the final basis set =    -1067.1230056550
   16   -1067.1230309872      4.29e-09  Convergence criterion met
 Total energy in the final basis set =    -1067.1230309872
   16   -1067.1230307346      4.26e-09  Convergence criterion met
 Total energy in the final basis set =    -1067.1230307346

             Standard Nuclear Orientation (Angstroms)
    I     Atom           X                Y                Z
 ----------------------------------------------------------------
    1      C      -0.3499865195    -1.9428216860     1.3028232734
    2      C      -1.6501335680    -1.6109135908     0.9081231684
    3      C      -2.4337030475    -1.2052260619     1.9575601654
    4      S      -1.6030930117    -1.2092118454     3.4422730565
    5      C      -0.1627325755    -1.7729266449     2.6625484903
    6      N       0.9817835872    -2.0432577625     3.3564482099
    7      C       1.7989760416    -3.1490739079     3.1237052615
    8      C       2.8829032639    -3.0972554108     4.0117425947
    9      C       2.7023871143    -1.9128457714     4.8312238425
   10      C       1.5208171901    -1.2901477527     4.3991352868
   11      C       3.4352506656    -1.3519529493     5.8512262365
   12      C       2.9732846131    -0.1658530122     6.4248157188
   13      C       1.8166959375     0.4555603504     5.9657634856
   14      C       1.0714946057    -0.0899526108     4.9309960424
   15      C       1.5864469367    -4.2218157735     2.2654993591
   16      C       2.5409707900    -5.2281027241     2.2639900158
   17      C       3.6417893344    -5.1716385341     3.1121196141
   18      C       3.8135238702    -4.1124059924     4.0059338414
   19      H       4.3506388503    -1.8114289719     6.1989427186
   20      H       3.5334888942     0.2861184066     7.2315062741
   21      H       1.4946196326     1.3850943956     6.4130055343
   22      H       0.1957497573     0.4250889447     4.5634154288
   23      H       0.7062196215    -4.3055837670     1.6441160028
   24      H       2.4127765158    -6.0771186070     1.6072310914
   25      H       4.3651157603    -5.9753121522     3.0968377857
   26      H       4.6534167434    -4.1055274629     4.6874694057
   27      H       0.4326615197    -2.2426453795     0.6211274160
   28      H      -2.0019704609    -1.6568180523    -0.1113945843
   29      H      -3.4715120624    -0.9092156737     1.9257252639
 ----------------------------------------------------------------

   15   -1067.1230323893      7.89e-09  Convergence criterion met
 Total energy in the final basis set =    -1067.1230323893
 Final energy is   -1067.12303238928
 **  OPTIMIZATION CONVERGED  **

                    Orbital Energies (a.u.)
 --------------------------------------------------------------

 Alpha MOs
 -- Occupied --
-89.711 -14.843 -10.614 -10.578 -10.578 -10.567 -10.550 -10.541
-10.541 -10.539 -10.539 -10.533 -10.528 -10.528 -10.527 -10.527
-10.521 -10.520  -8.351  -6.241  -6.237  -6.234  -1.234  -1.088
 -1.044  -1.039  -0.974  -0.939  -0.930  -0.919  -0.895  -0.882
 -0.816  -0.784  -0.777  -0.741  -0.722  -0.717  -0.681  -0.672
 -0.661  -0.628  -0.620  -0.603  -0.594  -0.580  -0.578  -0.575
 -0.559  -0.546  -0.538  -0.529  -0.502  -0.500  -0.498  -0.492
 -0.486  -0.474  -0.474  -0.415  -0.389  -0.383  -0.379  -0.337
 -0.335

 Beta MOs
 -- Occupied --
-89.711 -14.834 -10.614 -10.579 -10.579 -10.564 -10.547 -10.540
-10.540 -10.537 -10.536 -10.534 -10.529 -10.528 -10.525 -10.524
-10.522 -10.522  -8.351  -6.241  -6.237  -6.235  -1.219  -1.084
 -1.038  -1.037  -0.970  -0.936  -0.927  -0.915  -0.895  -0.873
 -0.812  -0.779  -0.775  -0.738  -0.718  -0.714  -0.679  -0.670
 -0.657  -0.619  -0.602  -0.601  -0.592  -0.579  -0.576  -0.573
 -0.558  -0.544  -0.531  -0.522  -0.500  -0.499  -0.493  -0.488
 -0.477  -0.473  -0.456  -0.405  -0.383  -0.366  -0.356  -0.340

          Ground-State Mulliken Net Atomic Charges

     Atom                 Charge (a.u.)    Spin (a.u.)
  --------------------------------------------------------
      1 C                    -0.200059       0.167817
      2 C                    -0.146159      -0.076802
      3 C                    -0.400438       0.235434
      4 S                     0.323204      -0.006500
      5 C                     0.050528      -0.017738
      6 N                    -0.650785       0.353284
      7 C                     0.339390      -0.100768
      8 C                     0.135805       0.084128
      9 C                     0.123379       0.085586
     10 C                     0.348968      -0.101703
     11 C                    -0.343464      -0.046257
     12 C                    -0.207577       0.182837
     13 C                    -0.240237      -0.108832
     14 C                    -0.248955       0.179403
     15 C                    -0.252300       0.183775
     16 C                    -0.240464      -0.109698
     17 C                    -0.206460       0.184106
     18 C                    -0.343768      -0.044278
     19 H                     0.264069       0.002359
     20 H                     0.279642      -0.009952
     21 H                     0.278227       0.004823
     22 H                     0.288197      -0.009213
     23 H                     0.294121      -0.010015
     24 H                     0.277792       0.004895
     25 H                     0.280194      -0.010007
     26 H                     0.264387       0.002232
     27 H                     0.314197      -0.009260
     28 H                     0.295186       0.003191
     29 H                     0.323379      -0.012846
  --------------------------------------------------------
  Sum of atomic charges =     1.000000

                    Cartesian Multipole Moments
 -----------------------------------------------------------------
    Charge (ESU x 10^10)
                 4.8032
    Dipole Moment (Debye)
         X       4.4962      Y     -10.1232      Z      15.5806
       Tot      19.1168
    Quadrupole Moments (Debye-Ang)
        XX     -65.6576     XY     -24.5659     YY     -63.4100
        XZ      35.5173     YZ     -19.2149     ZZ     -32.1789

 Total job time:  2218.86s(wall), 8305.18s(cpu)
        *  Thank you very much for using Q-Chem.  Have a nice day.  *
