 Q-Chem 5.1, Q-Chem, Inc., Pleasanton, CA (2018)
 Q-Chem 5.1.1 for Intel X86 EM64T Linux

User input:
--------------------------------------------------------------
$rem
threads 4
jobtype	opt
method PBEh-3c
basis def2-mSVP
mem_static	1024
mem_total	3000
sym_ignore	true
scf_convergence	9
solvent_method	pcm
$end

$molecule
read T_Cz.mol
$end

$solvent
dielectric	2.38
$end

$pcm
theory iefpcm
$end

--------------------------------------------------------------

   17   -1067.3344497293      3.43e-10  Convergence criterion met
 Total energy in the final basis set =    -1067.3344497293
   15   -1067.3567816556      5.25e-10  Convergence criterion met
 Total energy in the final basis set =    -1067.3567816556
   15   -1067.3583286843      4.07e-10  Convergence criterion met
 Total energy in the final basis set =    -1067.3583286843
   15   -1067.3584937190      3.13e-10  Convergence criterion met
 Total energy in the final basis set =    -1067.3584937190
   15   -1067.3585548079      3.34e-10  Convergence criterion met
 Total energy in the final basis set =    -1067.3585548079
   14   -1067.3586770315      9.47e-10  Convergence criterion met
 Total energy in the final basis set =    -1067.3586770315
   15   -1067.3587237302      3.57e-10  Convergence criterion met
 Total energy in the final basis set =    -1067.3587237302
   15   -1067.3587225242      3.43e-10  Convergence criterion met
   14   -1067.3585112653      9.75e-10  Convergence criterion met
 Total energy in the final basis set =    -1067.3585112653
   14   -1067.3585968264      5.33e-10  Convergence criterion met
 Total energy in the final basis set =    -1067.3585968264
   14   -1067.3586253523      5.44e-10  Convergence criterion met
 Total energy in the final basis set =    -1067.3586253523
   14   -1067.3586179818      6.08e-10  Convergence criterion met
 Total energy in the final basis set =    -1067.3586179818
   14   -1067.3586162962      6.07e-10  Convergence criterion met
 Total energy in the final basis set =    -1067.3586162962
   14   -1067.3586145722      6.00e-10  Convergence criterion met
 Total energy in the final basis set =    -1067.3586145722

             Standard Nuclear Orientation (Angstroms)
    I     Atom           X                Y                Z
 ----------------------------------------------------------------
    1      C      -0.3812395017    -0.9203725560     1.6528496622
    2      C      -1.7257792394    -0.9194317381     1.2001894569
    3      C      -2.4760580895    -1.8973351836     1.7767514524
    4      S      -1.5759475452    -2.8147057755     2.9035289921
    5      C      -0.1471488767    -1.8950620294     2.5738111285
    6      N       1.0350767028    -2.1482108748     3.2546307163
    7      C       1.7892115226    -3.3041941693     3.1724489256
    8      C       2.8646633278    -3.2122805679     4.0702348053
    9      C       2.7428093346    -1.9379503677     4.7329650045
   10      C       1.5972880640    -1.3181719290     4.2088940449
   11      C       3.4760566877    -1.2912083351     5.7209987094
   12      C       3.0498073729    -0.0523474190     6.1659380572
   13      C       1.9000079780     0.5411710969     5.6366808749
   14      C       1.1550453173    -0.0811016255     4.6504970372
   15      C       1.5858908247    -4.4221271080     2.3728219344
   16      C       2.4892783605    -5.4637724627     2.4925851652
   17      C       3.5663598980    -5.3934237972     3.3804707981
   18      C       3.7599608022    -4.2732102451     4.1691916589
   19      H       4.3628020227    -1.7515942673     6.1383162236
   20      H       3.6088430585     0.4641685316     6.9345294341
   21      H       1.5826667738     1.5075740628     6.0058541693
   22      H       0.2614946764     0.3759141488     4.2455971730
   23      H       0.7527078025    -4.4844665843     1.6847923855
   24      H       2.3558451579    -6.3506594382     1.8868279081
   25      H       4.2532049728    -6.2262958011     3.4518625140
   26      H       4.5950479087    -4.2272308206     4.8568284511
   27      H       0.3841843992    -0.2407327459     1.3076211216
   28      H      -2.1126469139    -0.2360171508     0.4588660351
   29      H      -3.5115527992    -2.1341148478     1.5873261607
 ----------------------------------------------------------------

   14   -1067.3586145330      6.00e-10  Convergence criterion met
 Total energy in the final basis set =    -1067.3586145330
 Final energy is   -1067.35861453296
 **  OPTIMIZATION CONVERGED  **

                    Orbital Energies (a.u.)
 --------------------------------------------------------------

 Alpha MOs
 -- Occupied --
-89.626 -14.701 -10.519 -10.490 -10.490 -10.480 -10.460 -10.458
-10.453 -10.453 -10.451 -10.451 -10.450 -10.450 -10.449 -10.449
-10.443 -10.443  -8.266  -6.156  -6.153  -6.150  -1.119  -0.999
 -0.955  -0.954  -0.887  -0.850  -0.845  -0.834  -0.813  -0.797
 -0.732  -0.692  -0.692  -0.658  -0.644  -0.632  -0.600  -0.591
 -0.579  -0.541  -0.523  -0.518  -0.514  -0.501  -0.497  -0.491
 -0.480  -0.467  -0.455  -0.448  -0.425  -0.425  -0.418  -0.410
 -0.399  -0.395  -0.382  -0.333  -0.308  -0.299  -0.293  -0.258
 -0.245

          Ground-State Mulliken Net Atomic Charges

     Atom                 Charge (a.u.)
  ----------------------------------------
      1 C                    -0.192803
      2 C                    -0.170512
      3 C                    -0.445204
      4 S                     0.239879
      5 C                     0.004824
      6 N                    -0.713028
      7 C                     0.346970
      8 C                     0.089537
      9 C                     0.096095
     10 C                     0.345104
     11 C                    -0.357524
     12 C                    -0.241876
     13 C                    -0.252802
     14 C                    -0.289027
     15 C                    -0.291902
     16 C                    -0.251534
     17 C                    -0.241702
     18 C                    -0.356959
     19 H                     0.225486
     20 H                     0.231987
     21 H                     0.235434
     22 H                     0.251462
     23 H                     0.251034
     24 H                     0.236159
     25 H                     0.232372
     26 H                     0.225096
     27 H                     0.263909
     28 H                     0.252209
     29 H                     0.277316
  ----------------------------------------
  Sum of atomic charges =     0.000000

                    Cartesian Multipole Moments
 -----------------------------------------------------------------
    Charge (ESU x 10^10)
                 0.0000
    Dipole Moment (Debye)
         X      -1.3424      Y       0.7898      Z      -1.1627
       Tot       1.9436
    Quadrupole Moments (Debye-Ang)
        XX    -101.3108     XY      -0.7927     YY    -104.8313
        XZ       5.0887     YZ       6.6780     ZZ    -114.4795

 Total job time:  2811.82s(wall), 10762.61s(cpu)
        *  Thank you very much for using Q-Chem.  Have a nice day.  *
