 Q-Chem 5.1, Q-Chem, Inc., Pleasanton, CA (2018)
 Q-Chem 5.1.1 for Intel X86 EM64T Linux

User input:
--------------------------------------------------------------
$solvent
dielectric      2.03
dielectric_infi 2.02
$end

$rem
threads 8
jobtype	sp
method PBEh-3c
basis def2-mSVP
mem_static	1024
mem_total	14000
sym_ignore	true
cis_n_roots             2
cis_singlets            true
cis_triplets		false
rpa                     false
calc_soc 		true
cis_moments             true
cis_relaxed_density	true
solvent_method		pcm
$end

$pcm
StateSpecific   1
ChargeSeparation Excited
$end

$molecule
read moms1opt_chx.mol
$end

--------------------------------------------------------------

   15   -2927.8808713472      6.08e-09  Convergence criterion met
 Total energy in the final basis set =    -2927.8808713472
 Total job time:  14249.16s(wall), 37730.38s(cpu)
        *  Thank you very much for using Q-Chem.  Have a nice day.  *
 Q-Chem 5.1, Q-Chem, Inc., Pleasanton, CA (2018)
 Q-Chem 5.1.1 for Intel X86 EM64T Linux

User input:
--------------------------------------------------------------
$rem
threads 8
jobtype sp
method PBEh-3c
basis def2-mSVP
mem_static      1024
mem_total       14000
sym_ignore      true
cis_n_roots             6
cis_singlets            true
cis_triplets            true
rpa                     false
calc_soc                true
cis_moments             true
cis_relaxed_density     true
solvent_method          pcm
$end

$molecule
read
$end

$pcm
statespecific           Marcus
$end

$solvent
dielectric      2.03
dielectric_infi 2.02
$end

--------------------------------------------------------------

             Standard Nuclear Orientation (Angstroms)
    I     Atom           X                Y                Z
 ----------------------------------------------------------------
    1      N       0.0000000000     0.0000000000     0.0000000000
    2      C       0.0000000000     0.0000000000     1.3638270000
    3      C       1.2210395549     0.0000000000     2.0741034883
    4      H       2.1548788302    -0.0688201558     1.5309134853
    5      C       1.2265215989     0.0343749980     3.4457378625
    6      C      -1.2193766796     0.0116234639     2.0771311168
    7      H      -2.1559300241     0.0452862624     1.5350373321
    8      C      -1.2207158749     0.0595016689     3.4484839291
    9      C      -1.0902506195    -0.5158152638    -0.7390498207
   10      C      -1.6155695841    -1.7652979979    -0.4200017693
   11      H      -1.1940993090    -2.3430337449     0.3924625111
   12      C      -2.6647611335    -2.2718836185    -1.1679193194
   13      H      -3.0697499748    -3.2452983522    -0.9269723608
   14      C      -3.1823909838    -1.5441495311    -2.2303070918
   15      H      -3.9998465012    -1.9460531239    -2.8136740712
   16      C      -2.6478081302    -0.3020899826    -2.5479454794
   17      H      -3.0525665835     0.2690430483    -3.3723715265
   18      C      -1.5998352470     0.2162294787    -1.8085821308
   19      H      -1.1880849631     1.1873275156    -2.0511391368
   20      C       1.0868942097     0.5298960843    -0.7344828633
   21      C       1.5977049596    -0.1882293601    -1.8128280399
   22      H       1.1858049510    -1.1559172443    -2.0679310506
   23      C       2.6460261784     0.3395857380    -2.5446154887
   24      H       3.0525135506    -0.2216063125    -3.3750834770
   25      C       3.1789971129     1.5785661074    -2.2120678955
   26      H       3.9973854599     1.9872626923    -2.7892692101
   27      C       2.6571572999     2.2949509523    -1.1438292605
   28      H       3.0594417042     3.2665391827    -0.8916414047
   29      C       1.6079224507     1.7782408738    -0.4027670741
   30      H       1.1823719426     2.3471169839     0.4137307426
   31      C       0.0043246672     0.0897812182     4.1688976227
   32      C      -2.5149930782     0.1164043131     4.1975399646
   33      H      -3.3721416635     0.0980047810     3.5254698636
   34      H      -2.5725622531     1.0204366498     4.8053263725
   35      H      -2.5983585846    -0.7266825367     4.8850634194
   36      C       2.5226132772     0.0096275047     4.1936358967
   37      H       3.3757256422    -0.0513452239     3.5192269947
   38      H       2.5615868149    -0.8390528212     4.8775926971
   39      H       2.6303681255     0.9073535510     4.8043749858
   40      B       0.0017309435     0.2150349464     5.7453985901
   41      C      -0.0248719334    -1.0395693263     6.6102955334
   42      C      -0.0365734387    -2.3255150079     6.0291947618
   43      H      -0.0203078995    -2.4309543995     4.9473374477
   44      C      -0.0703405387    -3.4462664700     6.8170404593
   45      C      -0.0916790194    -3.3272241613     8.2384115646
   46      C      -0.0783916879    -2.0821100720     8.8215295656
   47      H      -0.0942570827    -1.9881531660     9.9020471928
   48      C      -0.0454615167    -0.9144742528     8.0332915327
   49      C      -0.0931347208    -4.8672384761     6.4756895202
   50      C      -0.0860229505    -5.5927964142     5.3096377466
   51      H      -0.0567021248    -5.1144244382     4.3378829092
   52      C      -0.1280925581    -5.5634842214     7.7003238211
   53      C      -0.1566683939    -6.9519537842     7.8072652086
   54      C      -0.1277795351    -4.6773441357     8.7979405245
   55      C      -0.1568219890    -5.2137911278    10.0612920582
   56      H      -0.1584772090    -4.5891056724    10.9455692585
   57      C      -0.1159622718    -7.0040702823     5.3889538435
   58      H      -0.1104116199    -7.5745673536     4.4683458491
   59      C      -0.1500365887    -7.6758821809     6.5895707453
   60      H      -0.1715993799    -8.7590540097     6.6018483400
   61      C      -0.1861612997    -6.6212851490    10.2007973562
   62      H      -0.2092994891    -7.0397154258    11.1989660281
   63      C      -0.1864349902    -7.4759011204     9.1223997397
   64      H      -0.2088033025    -8.5476932383     9.2786597919
   65      C       0.0076153448     1.6025016194     6.3830865035
   66      C       0.0264777370     2.7654917249     5.5860171924
   67      H       0.0412115810     2.6761422966     4.5030115462
   68      C       0.0241956840     4.0085053315     6.1625120354
   69      C       0.0059948144     4.1469713306     7.5815824540
   70      C      -0.0136725504     3.0226498127     8.3755867141
   71      H      -0.0308984373     3.1187572182     9.4564305259
   72      C      -0.0135512666     1.7328832340     7.8064224393
   73      C       0.0338425193     5.3402368997     5.5692615063
   74      C       0.0451516132     5.8324312794     4.2878628618
   75      H       0.0500331536     5.1780530794     3.4241237078
   76      C       0.0253174834     6.2498414616     6.6452947729
   77      C       0.0294120238     7.6330414346     6.4931079755
   78      C       0.0090741497     5.5773532909     7.8860893488
   79      C      -0.0016757277     6.3360706666     9.0295514360
   80      H      -0.0150850195     5.8831970762    10.0129282483
   81      C       0.0493227531     7.2336531004     4.1047422774
   82      H       0.0576519456     7.6248881501     3.0949464488
   83      C       0.0421808060     8.1163001752     5.1611637511
   84      H       0.0451859255     9.1829427176     4.9720657662
   85      C       0.0047830829     7.7457097817     8.9074861907
   86      H      -0.0026571199     8.3395061327     9.8126164074
   87      C       0.0189218438     8.3889958665     7.6907649743
   88      H       0.0224967013     9.4713692644     7.6500181292
   89      B      -0.0369681461     0.4763723315     8.6941778529
   90      C      -0.0521257090     0.5830707331    10.2716779019
   91      C      -1.2628682925     0.5847378474    10.9751396925
   92      C      -1.2693912090     0.6141371848    12.3645053698
   93      H      -2.2131855516     0.5953866160    12.8977106748
   94      C      -0.0786320062     0.6700760582    13.0759759032
   95      C       1.1261796038     0.6908775479    12.3848973721
   96      H       2.0580617774     0.7397489548    12.9366846219
   97      C       1.1457251927     0.6338075313    10.9966263831
   98      N      -0.0920816127     0.6983382890    14.4893233764
   99      C       0.6853111094    -0.2224737773    15.2023067822
  100      C       1.2689689888     0.1275994486    16.4212479711
  101      H       1.1202356923     1.1220639060    16.8218697199
  102      C       2.0403886320    -0.7892524187    17.1156807309
  103      H       2.4845380511    -0.4987063996    18.0591886301
  104      C       2.2651031432    -2.0598023753    16.6040111925
  105      H       2.8772394682    -2.7693027466    17.1446408771
  106      C       1.6957223060    -2.4056515825    15.3866896354
  107      H       1.8568670140    -3.3930518181    14.9728507244
  108      C       0.9055370258    -1.5040836924    14.6939916542
  109      H       0.4594598836    -1.7923150081    13.7510080351
  110      C      -0.9846047448     1.5610745230    15.1405107371
  111      C      -1.7136651573     1.1422484624    16.2537547457
  112      H      -1.5839252722     0.1376349892    16.6350949306
  113      C      -2.6119739136     2.0021519556    16.8650918469
  114      H      -3.1718812818     1.6571991922    17.7250107236
  115      C      -2.8154500897     3.2826675591    16.3711505697
  116      H      -3.5264349765     3.9467495669    16.8443465900
  117      C      -2.0974670895     3.6982520855    15.2580766389
  118      H      -2.2424162764     4.6942264488    14.8593124003
  119      C      -1.1837612282     2.8533684375    14.6518770893
  120      H      -0.6281466167     3.1886639794    13.7854117670
  121      C       2.4584262787     0.6307878867    10.2637207944
  122      H       3.3047199822     0.6914041306    10.9479288764
  123      H       2.5270311891     1.4697985296     9.5685411390
  124      H       2.5745081514    -0.2781159739     9.6690548115
  125      C      -2.5646168773     0.5262154911    10.2240184412
  126      H      -3.4206739868     0.5660120018    10.8974388079
  127      H      -2.6536678613     1.3568134527     9.5210296288
  128      H      -2.6437990908    -0.3908756434     9.6363127851
 ----------------------------------------------------------------

   15   -2927.8808171855      6.08e-09  Convergence criterion met
 Total energy in the final basis set =    -2927.8808171855

         TDDFT/TDA Excitation Energies
 ---------------------------------------------------

 Excited state   1: excitation energy (eV) =    2.0783
 Total energy for state  1:                 -2927.80444053 au
    Multiplicity: Triplet
    Trans. Mom.:  0.0000 X   0.0000 Y   0.0000 Z
    Strength   :     0.0000000000
    D(254) --> V(  1) amplitude =  0.9679

 Excited state   2: excitation energy (eV) =    2.0998
 Total energy for state  2:                 -2927.80364983 au
    Multiplicity: Singlet
    Trans. Mom.: -0.0051 X   0.0178 Y   0.1105 Z
    Strength   :     0.0006452332
    D(254) --> V(  1) amplitude =  0.9727

 Excited state   3: excitation energy (eV) =    2.2092
 Total energy for state  3:                 -2927.79963149 au
    Multiplicity: Triplet
    Trans. Mom.:  0.0000 X   0.0000 Y   0.0000 Z
    Strength   :     0.0000000000
    D(246) --> V(  2) amplitude =  0.2402
    D(251) --> V(  1) amplitude =  0.9010

 Excited state   4: excitation energy (eV) =    2.4307
 Total energy for state  4:                 -2927.79149143 au
    Multiplicity: Triplet
    Trans. Mom.:  0.0000 X   0.0000 Y   0.0000 Z
    Strength   :     0.0000000000
    D(250) --> V(  2) amplitude =  0.4773
    D(252) --> V(  1) amplitude =  0.7889

 Excited state   5: excitation energy (eV) =    2.4553
 Total energy for state  5:                 -2927.79058772 au
    Multiplicity: Triplet
    Trans. Mom.:  0.0000 X   0.0000 Y   0.0000 Z
    Strength   :     0.0000000000
    D(253) --> V(  1) amplitude =  0.9668

 Excited state   6: excitation energy (eV) =    2.4700
 Total energy for state  6:                 -2927.79004693 au
    Multiplicity: Singlet
    Trans. Mom.: -0.0046 X   0.0085 Y   0.0393 Z
    Strength   :     0.0000991700
    D(253) --> V(  1) amplitude =  0.9733

 Excited state   7: excitation energy (eV) =    2.4936
 Total energy for state  7:                 -2927.78918030 au
    Multiplicity: Triplet
    Trans. Mom.:  0.0000 X   0.0000 Y   0.0000 Z
    Strength   :     0.0000000000
    D(250) --> V(  1) amplitude =  0.7415
    D(250) --> V(  4) amplitude =  0.2360
    D(252) --> V(  2) amplitude =  0.5433

 Excited state   8: excitation energy (eV) =    2.7178
 Total energy for state  8:                 -2927.78094032 au
    Multiplicity: Triplet
    Trans. Mom.:  0.0000 X   0.0000 Y   0.0000 Z
    Strength   :     0.0000000000
    D(246) --> V(  1) amplitude =  0.6972
    D(251) --> V(  2) amplitude =  0.5503

 Excited state   9: excitation energy (eV) =    2.8761
 Total energy for state  9:                 -2927.77512258 au
    Multiplicity: Singlet
    Trans. Mom.:  0.0044 X   0.0679 Y  -0.0032 Z
    Strength   :     0.0003269882
    D(251) --> V(  1) amplitude =  0.9491

 Excited state  10: excitation energy (eV) =    3.1357
 Total energy for state 10:                 -2927.76558294 au
    Multiplicity: Singlet
    Trans. Mom.:  0.0510 X   4.0628 Y  -0.3727 Z
    Strength   :     1.2789377823
    D(252) --> V(  1) amplitude =  0.9376

 Excited state  11: excitation energy (eV) =    3.3692
 Total energy for state 11:                 -2927.75700208 au
    Multiplicity: Singlet
    Trans. Mom.:  0.0149 X  -0.0199 Y  -0.0147 Z
    Strength   :     0.0000689007
    D(254) --> V(  2) amplitude =  0.9941

 Excited state  12: excitation energy (eV) =    3.6543
 Total energy for state 12:                 -2927.74652412 au
    Multiplicity: Singlet
    Trans. Mom.: -0.0146 X  -0.0017 Y   0.0036 Z
    Strength   :     0.0000203745
    D(253) --> V(  2) amplitude =  0.9946

 ---------------------------------------------------

                    Orbital Energies (a.u.)
 --------------------------------------------------------------

 Alpha MOs
 -- Occupied --
-14.670 -14.670 -10.492 -10.492 -10.491 -10.491 -10.486 -10.484
-10.466 -10.466 -10.466 -10.466 -10.466 -10.466 -10.465 -10.465
-10.465 -10.464 -10.464 -10.464 -10.463 -10.463 -10.463 -10.463
-10.462 -10.462 -10.460 -10.460 -10.459 -10.459 -10.456 -10.455
-10.455 -10.454 -10.454 -10.454 -10.450 -10.450 -10.450 -10.450
-10.449 -10.449 -10.449 -10.449 -10.448 -10.448 -10.448 -10.447
-10.447 -10.447 -10.447 -10.447 -10.446 -10.445 -10.444 -10.443
-10.443 -10.443 -10.441 -10.441 -10.437 -10.437 -10.437 -10.436
-10.435 -10.435 -10.429 -10.429 -10.427 -10.427 -10.424 -10.423
-10.423 -10.415  -6.949  -6.941  -1.086  -1.080  -1.017  -1.017
 -0.964  -0.963  -0.960  -0.960  -0.960  -0.958  -0.939  -0.938
 -0.934  -0.934  -0.909  -0.900  -0.873  -0.873  -0.863  -0.858
 -0.856  -0.854  -0.851  -0.850  -0.848  -0.847  -0.841  -0.840
 -0.837  -0.836  -0.824  -0.815  -0.813  -0.805  -0.799  -0.799
 -0.768  -0.764  -0.762  -0.762  -0.736  -0.731  -0.728  -0.721
 -0.710  -0.708  -0.704  -0.703  -0.690  -0.686  -0.684  -0.680
 -0.680  -0.677  -0.669  -0.667  -0.649  -0.646  -0.644  -0.639
 -0.638  -0.638  -0.606  -0.604  -0.597  -0.595  -0.592  -0.589
 -0.587  -0.586  -0.583  -0.576  -0.576  -0.562  -0.561  -0.552
 -0.551  -0.544  -0.544  -0.541  -0.539  -0.537  -0.528  -0.524
 -0.523  -0.520  -0.517  -0.513  -0.509  -0.508  -0.504  -0.501
 -0.498  -0.496  -0.495  -0.494  -0.493  -0.490  -0.488  -0.486
 -0.486  -0.486  -0.485  -0.482  -0.482  -0.480  -0.480  -0.476
 -0.471  -0.471  -0.467  -0.466  -0.465  -0.464  -0.462  -0.461
 -0.460  -0.455  -0.445  -0.442  -0.442  -0.440  -0.439  -0.437
 -0.433  -0.429  -0.428  -0.426  -0.424  -0.424  -0.422  -0.421
 -0.419  -0.415  -0.411  -0.410  -0.407  -0.404  -0.401  -0.401
 -0.400  -0.398  -0.397  -0.396  -0.396  -0.394  -0.392  -0.391
 -0.386  -0.380  -0.379  -0.369  -0.360  -0.360  -0.354  -0.352
 -0.346  -0.338  -0.322  -0.316  -0.309  -0.302  -0.301  -0.300
 -0.298  -0.297  -0.296  -0.295  -0.285  -0.283  -0.282  -0.276
 -0.276  -0.263  -0.257  -0.257  -0.221  -0.214

          Ground-State Mulliken Net Atomic Charges

     Atom                 Charge (a.u.)
  ----------------------------------------
      1 N                    -0.659249
      2 C                     0.332411
      3 C                    -0.399459
      4 H                     0.248323
      5 C                     0.070051
      6 C                    -0.400778
      7 H                     0.248351
      8 C                     0.068195
      9 C                     0.263604
     10 C                    -0.268638
     11 H                     0.257205
     12 C                    -0.234492
     13 H                     0.238430
     14 C                    -0.249341
     15 H                     0.235058
     16 C                    -0.233146
     17 H                     0.238768
     18 C                    -0.276275
     19 H                     0.254717
     20 C                     0.261220
     21 C                    -0.275793
     22 H                     0.255006
     23 C                    -0.233327
     24 H                     0.238784
     25 C                    -0.249292
     26 H                     0.235040
     27 C                    -0.234512
     28 H                     0.238260
     29 C                    -0.266454
     30 H                     0.256151
     31 C                    -0.251566
     32 C                    -0.766737
     33 H                     0.245172
     34 H                     0.246718
     35 H                     0.245515
     36 C                    -0.765479
     37 H                     0.244869
     38 H                     0.245706
     39 H                     0.245290
     40 B                     0.677266
     41 C                    -0.149100
     42 C                    -0.391832
     43 H                     0.240934
     44 C                     0.086435
     45 C                     0.104189
     46 C                    -0.396062
     47 H                     0.240074
     48 C                    -0.153028
     49 C                     0.189463
     50 C                    -0.385560
     51 H                     0.238883
     52 C                    -0.067054
     53 C                     0.232694
     54 C                     0.186614
     55 C                    -0.388238
     56 H                     0.237776
     57 C                    -0.220871
     58 H                     0.244922
     59 C                    -0.340690
     60 H                     0.240961
     61 C                    -0.220367
     62 H                     0.244470
     63 C                    -0.342511
     64 H                     0.241288
     65 C                    -0.148731
     66 C                    -0.388820
     67 H                     0.242394
     68 C                     0.087312
     69 C                     0.106174
     70 C                    -0.400754
     71 H                     0.237813
     72 C                    -0.153252
     73 C                     0.187227
     74 C                    -0.382982
     75 H                     0.238633
     76 C                    -0.066691
     77 C                     0.234304
     78 C                     0.185892
     79 C                    -0.389500
     80 H                     0.238476
     81 C                    -0.221870
     82 H                     0.244773
     83 C                    -0.340918
     84 H                     0.240917
     85 C                    -0.219790
     86 H                     0.244582
     87 C                    -0.343734
     88 H                     0.241248
     89 B                     0.696265
     90 C                    -0.216842
     91 C                     0.047556
     92 C                    -0.356793
     93 H                     0.242098
     94 C                     0.280774
     95 C                    -0.355640
     96 H                     0.241603
     97 C                     0.047081
     98 N                    -0.672119
     99 C                     0.308617
    100 C                    -0.293993
    101 H                     0.255622
    102 C                    -0.229747
    103 H                     0.236074
    104 C                    -0.257697
    105 H                     0.232758
    106 C                    -0.228058
    107 H                     0.234238
    108 C                    -0.297396
    109 H                     0.252144
    110 C                     0.299460
    111 C                    -0.294508
    112 H                     0.255622
    113 C                    -0.230329
    114 H                     0.236478
    115 C                    -0.256285
    116 H                     0.233373
    117 C                    -0.228349
    118 H                     0.235117
    119 C                    -0.289831
    120 H                     0.251945
    121 C                    -0.767734
    122 H                     0.247607
    123 H                     0.247304
    124 H                     0.247222
    125 C                    -0.767217
    126 H                     0.247672
    127 H                     0.246952
    128 H                     0.247295
  ----------------------------------------
  Sum of atomic charges =    -0.000000

                    Cartesian Multipole Moments
 -----------------------------------------------------------------
    Charge (ESU x 10^10)
                -0.0000
    Dipole Moment (Debye)
         X      -0.1734      Y      -0.0260      Z      -1.8056
       Tot       1.8141
    Quadrupole Moments (Debye-Ang)
        XX    -434.1262     XY       1.9673     YY    -359.5605
        XZ      -3.0759     YZ      -4.4778     ZZ    -416.8561

 Total job time:  22978.43s(wall), 69346.93s(cpu)
        *  Thank you very much for using Q-Chem.  Have a nice day.  *
