 Q-Chem 5.1, Q-Chem, Inc., Pleasanton, CA (2018)
 Q-Chem 5.1.1 for Intel X86 EM64T Linux

User input:
--------------------------------------------------------------
$solvent
dielectric      2.38
dielectric_infi 2.25
$end

$rem
threads 8
jobtype	sp
method PBEh-3c
basis def2-mSVP
mem_static	1024
mem_total	14000
sym_ignore	true
cis_n_roots             2
cis_singlets            true
cis_triplets		false
rpa                     false
calc_soc 		true
cis_moments             true
cis_relaxed_density	true
solvent_method		pcm
$end

$pcm
StateSpecific   1
ChargeSeparation Excited
$end

$molecule
read moms1opt_tol.mol
$end

--------------------------------------------------------------

   14   -2927.8840787899      9.96e-09  Convergence criterion met
 Total energy in the final basis set =    -2927.8840787899

                    Orbital Energies (a.u.)
 --------------------------------------------------------------

 Alpha MOs
 -- Occupied --
-14.671 -14.670 -10.492 -10.492 -10.491 -10.491 -10.487 -10.484
-10.467 -10.467 -10.467 -10.466 -10.466 -10.466 -10.466 -10.466
-10.465 -10.465 -10.464 -10.464 -10.463 -10.463 -10.463 -10.463
-10.463 -10.462 -10.460 -10.460 -10.459 -10.459 -10.457 -10.456
-10.455 -10.455 -10.455 -10.455 -10.450 -10.450 -10.450 -10.450
-10.450 -10.450 -10.450 -10.450 -10.448 -10.448 -10.448 -10.448
-10.448 -10.447 -10.447 -10.447 -10.446 -10.446 -10.444 -10.444
-10.444 -10.443 -10.442 -10.441 -10.438 -10.437 -10.437 -10.437
-10.436 -10.435 -10.430 -10.430 -10.427 -10.427 -10.424 -10.424
-10.423 -10.416  -6.949  -6.942  -1.086  -1.080  -1.017  -1.017
 -0.964  -0.964  -0.960  -0.960  -0.960  -0.958  -0.939  -0.939
 -0.934  -0.934  -0.909  -0.900  -0.873  -0.873  -0.864  -0.858
 -0.857  -0.854  -0.851  -0.851  -0.848  -0.847  -0.842  -0.841
 -0.838  -0.836  -0.824  -0.815  -0.813  -0.805  -0.800  -0.800
 -0.768  -0.764  -0.762  -0.762  -0.737  -0.731  -0.728  -0.721
 -0.710  -0.709  -0.704  -0.703  -0.690  -0.686  -0.684  -0.680
 -0.680  -0.678  -0.670  -0.668  -0.649  -0.647  -0.645  -0.639
 -0.639  -0.638  -0.606  -0.605  -0.597  -0.595  -0.592  -0.589
 -0.587  -0.587  -0.584  -0.576  -0.576  -0.563  -0.561  -0.552
 -0.551  -0.544  -0.544  -0.542  -0.540  -0.537  -0.528  -0.525
 -0.523  -0.520  -0.517  -0.514  -0.509  -0.508  -0.505  -0.501
 -0.499  -0.496  -0.496  -0.495  -0.493  -0.490  -0.489  -0.487
 -0.486  -0.486  -0.485  -0.483  -0.482  -0.481  -0.480  -0.476
 -0.472  -0.471  -0.468  -0.466  -0.465  -0.464  -0.462  -0.462
 -0.460  -0.455  -0.445  -0.442  -0.442  -0.440  -0.439  -0.438
 -0.434  -0.429  -0.428  -0.426  -0.425  -0.424  -0.422  -0.421
 -0.419  -0.415  -0.411  -0.411  -0.408  -0.404  -0.401  -0.401
 -0.400  -0.398  -0.397  -0.397  -0.396  -0.394  -0.392  -0.392
 -0.387  -0.381  -0.380  -0.370  -0.360  -0.360  -0.354  -0.352
 -0.347  -0.338  -0.323  -0.317  -0.309  -0.303  -0.302  -0.300
 -0.298  -0.297  -0.296  -0.295  -0.286  -0.284  -0.283  -0.277
 -0.276  -0.264  -0.258  -0.257  -0.222  -0.214

          Ground-State Mulliken Net Atomic Charges

     Atom                 Charge (a.u.)
  ----------------------------------------
      1 N                    -0.658749
      2 C                     0.331582
      3 C                    -0.400268
      4 H                     0.249598
      5 C                     0.068450
      6 C                    -0.401516
      7 H                     0.249556
      8 C                     0.066572
      9 C                     0.263614
     10 C                    -0.270437
     11 H                     0.258802
     12 C                    -0.236804
     13 H                     0.241043
     14 C                    -0.251977
     15 H                     0.237513
     16 C                    -0.235471
     17 H                     0.241334
     18 C                    -0.278311
     19 H                     0.256450
     20 C                     0.261189
     21 C                    -0.277849
     22 H                     0.256693
     23 C                    -0.235665
     24 H                     0.241329
     25 C                    -0.251933
     26 H                     0.237483
     27 C                    -0.236838
     28 H                     0.240877
     29 C                    -0.268304
     30 H                     0.257946
     31 C                    -0.250746
     32 C                    -0.767740
     33 H                     0.246571
     34 H                     0.247012
     35 H                     0.245809
     36 C                    -0.766516
     37 H                     0.246256
     38 H                     0.245995
     39 H                     0.245670
     40 B                     0.677085
     41 C                    -0.149468
     42 C                    -0.392090
     43 H                     0.242139
     44 C                     0.084779
     45 C                     0.102476
     46 C                    -0.396387
     47 H                     0.241629
     48 C                    -0.153270
     49 C                     0.187595
     50 C                    -0.386462
     51 H                     0.241849
     52 C                    -0.067347
     53 C                     0.229702
     54 C                     0.184906
     55 C                    -0.389182
     56 H                     0.240921
     57 C                    -0.223449
     58 H                     0.247763
     59 C                    -0.341763
     60 H                     0.244138
     61 C                    -0.222952
     62 H                     0.247309
     63 C                    -0.343595
     64 H                     0.244452
     65 C                    -0.149028
     66 C                    -0.389247
     67 H                     0.243582
     68 C                     0.085708
     69 C                     0.104428
     70 C                    -0.401002
     71 H                     0.239391
     72 C                    -0.153552
     73 C                     0.185367
     74 C                    -0.383908
     75 H                     0.241662
     76 C                    -0.066964
     77 C                     0.231316
     78 C                     0.184188
     79 C                    -0.390412
     80 H                     0.241562
     81 C                    -0.224451
     82 H                     0.247621
     83 C                    -0.342002
     84 H                     0.244088
     85 C                    -0.222375
     86 H                     0.247422
     87 C                    -0.344814
     88 H                     0.244405
     89 B                     0.695689
     90 C                    -0.216618
     91 C                     0.046538
     92 C                    -0.358241
     93 H                     0.243467
     94 C                     0.281283
     95 C                    -0.357125
     96 H                     0.243109
     97 C                     0.046012
     98 N                    -0.671948
     99 C                     0.308396
    100 C                    -0.295446
    101 H                     0.256926
    102 C                    -0.232190
    103 H                     0.238679
    104 C                    -0.260289
    105 H                     0.235326
    106 C                    -0.230611
    107 H                     0.237060
    108 C                    -0.299382
    109 H                     0.253899
    110 C                     0.299139
    111 C                    -0.295842
    112 H                     0.256877
    113 C                    -0.232784
    114 H                     0.239103
    115 C                    -0.258781
    116 H                     0.235972
    117 C                    -0.230864
    118 H                     0.237900
    119 C                    -0.291626
    120 H                     0.253562
    121 C                    -0.768758
    122 H                     0.248959
    123 H                     0.247564
    124 H                     0.247501
    125 C                    -0.768248
    126 H                     0.249002
    127 H                     0.247254
    128 H                     0.247558
  ----------------------------------------
  Sum of atomic charges =    -0.000000

                    Cartesian Multipole Moments
 -----------------------------------------------------------------
    Charge (ESU x 10^10)
                -0.0000
    Dipole Moment (Debye)
         X      -0.1822      Y      -0.0258      Z      -1.7831
       Tot       1.7925
    Quadrupole Moments (Debye-Ang)
        XX    -433.8178     XY       1.8319     YY    -357.4420
        XZ      -3.1825     YZ      -4.5882     ZZ    -415.4562

 Total job time:  15805.05s(wall), 43595.18s(cpu)
        *  Thank you very much for using Q-Chem.  Have a nice day.  *
 Q-Chem 5.1, Q-Chem, Inc., Pleasanton, CA (2018)
 Q-Chem 5.1.1 for Intel X86 EM64T Linux

User input:
--------------------------------------------------------------
$rem
threads 8
jobtype sp
method PBEh-3c
basis def2-mSVP
mem_static      1024
mem_total       14000
sym_ignore      true
cis_n_roots             6
cis_singlets            true
cis_triplets            true
rpa                     false
calc_soc                true
cis_moments             true
cis_relaxed_density     true
solvent_method          pcm
$end

$molecule
read
$end

$pcm
statespecific           Marcus
$end

$solvent
dielectric      2.38
dielectric_infi 2.25
$end

--------------------------------------------------------------

             Standard Nuclear Orientation (Angstroms)
    I     Atom           X                Y                Z
 ----------------------------------------------------------------
    1      N       0.0000000000     0.0000000000     0.0000000000
    2      C       0.0000000000     0.0000000000     1.3644190000
    3      C       1.2208037278     0.0000000000     2.0742118436
    4      H       2.1547052781    -0.0693431889     1.5311376416
    5      C       1.2262470736     0.0352087886     3.4463113862
    6      C      -1.2189964865     0.0120474752     2.0774846658
    7      H      -2.1557491706     0.0459101730     1.5357099062
    8      C      -1.2199014339     0.0601994420     3.4493105452
    9      C      -1.0878637840    -0.5204019886    -0.7384576077
   10      C      -1.6105870549    -1.7704067847    -0.4163460774
   11      H      -1.1880086894    -2.3455949628     0.3973372735
   12      C      -2.6577221351    -2.2813131268    -1.1641381225
   13      H      -3.0603593857    -3.2552873601    -0.9214901113
   14      C      -3.1762118500    -1.5572271829    -2.2287824207
   15      H      -3.9921520672    -1.9625800639    -2.8119268419
   16      C      -2.6445099665    -0.3144359575    -2.5490613506
   17      H      -3.0502256376     0.2538321109    -3.3749992039
   18      C      -1.5982734264     0.2081172478    -1.8103353447
   19      H      -1.1893295060     1.1799830448    -2.0545770198
   20      C       1.0843002482     0.5351308091    -0.7335310642
   21      C       1.5960069794    -0.1783702769    -1.8148463890
   22      H       1.1870187972    -1.1466183118    -2.0724961783
   23      C       2.6424984732     0.3545242447    -2.5454722605
   24      H       3.0499867309    -0.2029502102    -3.3779576651
   25      C       3.1724477603     1.5939547375    -2.2091386516
   26      H       3.9892915339     2.0067036364    -2.7856852078
   27      C       2.6495977317     2.3056471584    -1.1380740691
   28      H       3.0493416684     3.2776254065    -0.8833408156
   29      C       1.6025163385     1.7837693128    -0.3976941195
   30      H       1.1755960396     2.3493041073     0.4203923233
   31      C       0.0046784343     0.0904371324     4.1690431998
   32      C      -2.5149871072     0.1166593647     4.1976177290
   33      H      -3.3714355880     0.0993724826     3.5246504613
   34      H      -2.5734927539     1.0200280706     4.8062936173
   35      H      -2.5999401778    -0.7275447236     4.8835932124
   36      C       2.5234112424     0.0110049714     4.1929992683
   37      H       3.3756684750    -0.0468961250     3.5172656177
   38      H       2.5652775765    -0.8396043347     4.8744304206
   39      H       2.6310817030     0.9074835779     4.8055257955
   40      B       0.0023971835     0.2152943621     5.7460876990
   41      C      -0.0215119325    -1.0391670217     6.6119573389
   42      C      -0.0314849603    -2.3249099800     6.0304560284
   43      H      -0.0161655501    -2.4296369737     4.9485910676
   44      C      -0.0623313093    -3.4461853806     6.8179855602
   45      C      -0.0823563473    -3.3276661948     8.2396041483
   46      C      -0.0709012698    -2.0827524792     8.8231839405
   47      H      -0.0857922077    -1.9896893277     9.9038178746
   48      C      -0.0410406033    -0.9145950171     8.0352354453
   49      C      -0.0827111025    -4.8670639407     6.4762088233
   50      C      -0.0753953509    -5.5922549361     5.3097581453
   51      H      -0.0481678804    -5.1135885326     4.3380873876
   52      C      -0.1149460968    -5.5638011613     7.7007671814
   53      C      -0.1406140724    -6.9524647413     7.8072806136
   54      C      -0.1151642678    -4.6781051432     8.7988116471
   55      C      -0.1416556624    -5.2150268520    10.0621675524
   56      H      -0.1434422216    -4.5907279088    10.9467529121
   57      C      -0.1024230027    -7.0037192490     5.3887625758
   58      H      -0.0967625442    -7.5738226900     4.4679149636
   59      C      -0.1338381658    -7.6761118559     6.5892770851
   60      H      -0.1532152687    -8.7593361331     6.6012742644
   61      C      -0.1680445671    -6.6227216907    10.2011679917
   62      H      -0.1891747714    -7.0415552779    11.1992239658
   63      C      -0.1678506748    -7.4770101093     9.1223220696
   64      H      -0.1879011147    -8.5489264449     9.2781411077
   65      C       0.0064008707     1.6025063973     6.3854293420
   66      C       0.0230288156     2.7656744033     5.5886318386
   67      H       0.0378313949     2.6763752980     4.5056992441
   68      C       0.0184760297     4.0087597621     6.1653981756
   69      C       0.0001038262     4.1469433774     7.5846627201
   70      C      -0.0169184305     3.0224640904     8.3784855830
   71      H      -0.0339364422     3.1187905673     9.4593362799
   72      C      -0.0143581618     1.7325942901     7.8090037103
   73      C       0.0253738933     5.3406180020     5.5724355288
   74      C       0.0358189720     5.8330686738     4.2909769641
   75      H       0.0423877528     5.1789757048     3.4270367339
   76      C       0.0148118863     6.2500202063     6.6487579178
   77      C       0.0158366251     7.6333592542     6.4968419848
   78      C       0.0000123718     5.5773553711     7.8895316694
   79      C      -0.0126193352     6.3358229055     9.0332938526
   80      H      -0.0251497194     5.8828026215    10.0166466193
   81      C       0.0369748138     7.2344691124     4.1082537254
   82      H       0.0446817479     7.6258238864     3.0985025674
   83      C       0.0277053178     8.1170217415     5.1649043612
   84      H       0.0284022575     9.1837238748     4.9760685493
   85      C      -0.0093555837     7.7455882485     8.9114465051
   86      H      -0.0182851801     8.3392091754     9.8166902738
   87      C       0.0034856420     8.3891441060     7.6946906587
   88      H       0.0046119913     9.4715421256     7.6540580300
   89      B      -0.0347062661     0.4759689618     8.6965583919
   90      C      -0.0486453614     0.5823057437    10.2743216193
   91      C      -1.2587575189     0.5810740263    10.9790868244
   92      C      -1.2641161478     0.6104564380    12.3685778659
   93      H      -2.2075467274     0.5893086861    12.9023938174
   94      C      -0.0728434736     0.6692555217    13.0790492146
   95      C       1.1312946857     0.6928830152    12.3867882806
   96      H       2.0637116004     0.7439015446    12.9375377614
   97      C       1.1497162491     0.6359050098    10.9983880398
   98      N      -0.0848619323     0.6973243387    14.4924134365
   99      C       0.6946603384    -0.2225249750    15.2044296865
  100      C       1.2784484170     0.1281647382    16.4232263739
  101      H       1.1281483848     1.1220964079    16.8246631087
  102      C       2.0523125397    -0.7874797857    17.1167151810
  103      H       2.4965178639    -0.4964819323    18.0600735659
  104      C       2.2793235857    -2.0574050417    16.6041403965
  105      H       2.8933307424    -2.7659289407    17.1439726023
  106      C       1.7097297383    -2.4038610107    15.3869838782
  107      H       1.8725136024    -3.3907444303    14.9725149451
  108      C       0.9171242361    -1.5034488407    14.6952665641
  109      H       0.4709424885    -1.7925693039    13.7525679456
  110      C      -0.9796726665     1.5571452090    15.1446458453
  111      C      -1.7085493758     1.1348361368    16.2567275430
  112      H      -1.5772037435     0.1298504737    16.6366083533
  113      C      -2.6091382969     1.9918695216    16.8690137618
  114      H      -3.1689008734     1.6442557502    17.7279711619
  115      C      -2.8149308826     3.2729074228    16.3770843562
  116      H      -3.5276209866     3.9346996082    16.8509706859
  117      C      -2.0969489626     3.6920281135    15.2651890803
  118      H      -2.2435586519     4.6884536478    14.8681246231
  119      C      -1.1810332341     2.8499597854    14.6581405548
  120      H      -0.6253878719     3.1883303074    13.7928436420
  121      C       2.4620842767     0.6363862681    10.2648043390
  122      H       3.3085651095     0.6970887859    10.9487844006
  123      H       2.5291024538     1.4769563326     9.5713259591
  124      H       2.5795036917    -0.2710357309     9.6681632066
  125      C      -2.5613564375     0.5195163114    10.2296161048
  126      H      -3.4166133189     0.5573878281    10.9041633177
  127      H      -2.6533061707     1.3497910427     9.5266046601
  128      H      -2.6392958643    -0.3977676299     9.6420452350
 ----------------------------------------------------------------

   15   -2927.8835162845      5.91e-09  Convergence criterion met
 Total energy in the final basis set =    -2927.8835162845

         TDDFT/TDA Excitation Energies
 ---------------------------------------------------

 Excited state   1: excitation energy (eV) =    2.0566
 Total energy for state  1:                 -2927.80793942 au
    Multiplicity: Triplet
    Trans. Mom.:  0.0000 X   0.0000 Y   0.0000 Z
    Strength   :     0.0000000000
    D(254) --> V(  1) amplitude =  0.9682

 Excited state   2: excitation energy (eV) =    2.0775
 Total energy for state  2:                 -2927.80716923 au
    Multiplicity: Singlet
    Trans. Mom.: -0.0049 X   0.0173 Y   0.1074 Z
    Strength   :     0.0006034793
    D(254) --> V(  1) amplitude =  0.9730

 Excited state   3: excitation energy (eV) =    2.2117
 Total energy for state  3:                 -2927.80223770 au
    Multiplicity: Triplet
    Trans. Mom.:  0.0000 X   0.0000 Y   0.0000 Z
    Strength   :     0.0000000000
    D(246) --> V(  2) amplitude =  0.2429
    D(251) --> V(  1) amplitude =  0.9110

 Excited state   4: excitation energy (eV) =    2.4297
 Total energy for state  4:                 -2927.79422518 au
    Multiplicity: Triplet
    Trans. Mom.:  0.0000 X   0.0000 Y   0.0000 Z
    Strength   :     0.0000000000
    D(250) --> V(  2) amplitude =  0.4767
    D(252) --> V(  1) amplitude =  0.7987

 Excited state   5: excitation energy (eV) =    2.4579
 Total energy for state  5:                 -2927.79318829 au
    Multiplicity: Triplet
    Trans. Mom.:  0.0000 X   0.0000 Y   0.0000 Z
    Strength   :     0.0000000000
    D(253) --> V(  1) amplitude =  0.9668

 Excited state   6: excitation energy (eV) =    2.4728
 Total energy for state  6:                 -2927.79264429 au
    Multiplicity: Singlet
    Trans. Mom.: -0.0045 X   0.0088 Y   0.0399 Z
    Strength   :     0.0001022400
    D(253) --> V(  1) amplitude =  0.9732

 Excited state   7: excitation energy (eV) =    2.4929
 Total energy for state  7:                 -2927.79190369 au
    Multiplicity: Triplet
    Trans. Mom.:  0.0000 X   0.0000 Y   0.0000 Z
    Strength   :     0.0000000000
    D(250) --> V(  1) amplitude =  0.7422
    D(250) --> V(  4) amplitude =  0.2356
    D(252) --> V(  2) amplitude =  0.5473

 Excited state   8: excitation energy (eV) =    2.7203
 Total energy for state  8:                 -2927.78354564 au
    Multiplicity: Triplet
    Trans. Mom.:  0.0000 X   0.0000 Y   0.0000 Z
    Strength   :     0.0000000000
    D(246) --> V(  1) amplitude =  0.7065
    D(251) --> V(  2) amplitude =  0.5544

 Excited state   9: excitation energy (eV) =    2.8770
 Total energy for state  9:                 -2927.77778704 au
    Multiplicity: Singlet
    Trans. Mom.:  0.0036 X   0.0538 Y  -0.0016 Z
    Strength   :     0.0002051237
    D(251) --> V(  1) amplitude =  0.9593

 Excited state  10: excitation energy (eV) =    3.1250
 Total energy for state 10:                 -2927.76867329 au
    Multiplicity: Singlet
    Trans. Mom.:  0.0434 X   4.1302 Y  -0.3779 Z
    Strength   :     1.3171026805
    D(252) --> V(  1) amplitude =  0.9480

 Excited state  11: excitation energy (eV) =    3.3463
 Total energy for state 11:                 -2927.76054121 au
    Multiplicity: Singlet
    Trans. Mom.:  0.0153 X  -0.0178 Y  -0.0147 Z
    Strength   :     0.0000630034
    D(254) --> V(  2) amplitude =  0.9942

 Excited state  12: excitation energy (eV) =    3.6603
 Total energy for state 12:                 -2927.74900278 au
    Multiplicity: Singlet
    Trans. Mom.: -0.0151 X  -0.0016 Y   0.0037 Z
    Strength   :     0.0000219002
    D(253) --> V(  2) amplitude =  0.9945

 ---------------------------------------------------
