 Q-Chem 5.1, Q-Chem, Inc., Pleasanton, CA (2018)
 Q-Chem 5.1.1 for Intel X86 EM64T Linux

User input:
--------------------------------------------------------------
$solvent
dielectric      8.93
dielectric_infi 2.03
$end

$rem
threads 8
jobtype	sp
method PBEh-3c
basis def2-mSVP
mem_static	1024
mem_total	14000
sym_ignore	true
cis_n_roots             2
cis_singlets            true
cis_triplets		false
rpa                     false
calc_soc 		true
cis_moments             true
cis_relaxed_density	true
solvent_method		pcm
$end

$pcm
StateSpecific   1
ChargeSeparation Excited
$end

$molecule
read moms1opt_dcm.mol
$end

--------------------------------------------------------------

   14   -2927.9057431087      7.34e-09  Convergence criterion met
 Total energy in the final basis set =    -2927.9057431087
 Total job time:  12935.61s(wall), 37418.93s(cpu)
        *  Thank you very much for using Q-Chem.  Have a nice day.  *
 Q-Chem 5.1, Q-Chem, Inc., Pleasanton, CA (2018)
 Q-Chem 5.1.1 for Intel X86 EM64T Linux

User input:
--------------------------------------------------------------
$rem
threads 8
jobtype sp
method PBEh-3c
basis def2-mSVP
mem_static      1024
mem_total       14000
sym_ignore      true
cis_n_roots             6
cis_singlets            true
cis_triplets            true
rpa                     false
calc_soc                true
cis_moments             true
cis_relaxed_density     true
solvent_method          pcm
$end

$molecule
read
$end

$pcm
statespecific           Marcus
$end

$solvent
dielectric      8.93
dielectric_infi 2.03
$end

--------------------------------------------------------------

             Standard Nuclear Orientation (Angstroms)
    I     Atom           X                Y                Z
 ----------------------------------------------------------------
    1      N       0.0000000000     0.0000000000     0.0000000000
    2      C       0.0000000000     0.0000000000     1.4045470000
    3      C       1.1979850775     0.0000000000     2.1198884418
    4      H       2.1425666062     0.0002412019     1.5908010102
    5      C       1.1834818683    -0.0052677359     3.5060495626
    6      H       2.1221089540    -0.0067922596     4.0455254875
    7      C      -0.0179312452    -0.0305340707     4.2020203157
    8      H      -0.0239131420    -0.0444691300     5.2839640450
    9      C      -1.2107341892    -0.0389162568     3.4919224278
   10      H      -2.1564615129    -0.0518640571     4.0187466097
   11      C      -1.2059501903    -0.0133466753     2.1063816034
   12      H      -2.1446672114    -0.0072129297     1.5670989276
   13      C       0.8553984090     0.8460986973    -0.7269307732
   14      C       1.1582564775     2.1254577783    -0.2709173782
   15      H       0.7426425148     2.4769037343     0.6665503804
   16      C       1.9714985738     2.9716925371    -1.0144417980
   17      C       1.3963490949     0.4188405919    -1.9364447167
   18      H       1.1838691017    -0.5815442115    -2.2954138550
   19      C       2.1885996967     1.2641164969    -2.7014970290
   20      C       2.4810251648     2.5575903750    -2.2511956569
   21      C      -0.9536469082    -0.7820157226    -0.6793947141
   22      C      -1.7145722032    -0.2434496906    -1.7156374284
   23      H      -1.5751051307     0.7900473364    -2.0059405220
   24      C      -2.6515694209    -1.0267640496    -2.3722937964
   25      H      -3.2351398462    -0.5951420083    -3.1753896078
   26      C      -2.8581883979    -2.3470246454    -1.9950339584
   27      H      -3.5960468085    -2.9524772823    -2.5047869163
   28      C      -2.1077578201    -2.8818384518    -0.9563318740
   29      H      -2.2533528854    -3.9114329888    -0.6549853519
   30      C      -1.1553764294    -2.1112616246    -0.3084142134
   31      H      -0.5662729885    -2.5409199146     0.4923048918
   32      C       2.7369385112     0.7820998740    -4.0155228687
   33      H       2.3992665322    -0.2277524488    -4.2454960555
   34      H       3.8291202370     0.7728249848    -4.0134891735
   35      H       2.4235719652     1.4290373729    -4.8380812564
   36      C       2.2790066888     4.3491172070    -0.4968738811
   37      H       1.7905591264     4.5396648335     0.4582527222
   38      H       3.3525569052     4.4874516820    -0.3500995504
   39      H       1.9493094716     5.1222438932    -1.1946275607
   40      B       3.3221737530     3.5439486621    -3.1393618575
   41      C       4.8688619513     3.5921363739    -3.0296786480
   42      C       5.5253136788     2.7482609053    -2.1317504299
   43      H       4.9534161387     2.0637418315    -1.5140297639
   44      C       6.9035750997     2.7882841869    -2.0333234023
   45      C       7.6535264225     3.6765482812    -2.8370660487
   46      C       7.0089768783     4.5165953016    -3.7288536909
   47      H       7.5832736728     5.1984258392    -4.3452102509
   48      C       5.6147567871     4.4859574830    -3.8359118856
   49      C       7.8293925335     2.0293316511    -1.1931658700
   50      C       7.7024753360     1.0492134371    -0.2417921194
   51      H       6.7373846422     0.6539644594     0.0513166573
   52      C       9.1173129727     2.4900392853    -1.5229148604
   53      C      10.2877259672     2.0117269014    -0.9416364878
   54      C       9.0706808042     3.4884190737    -2.5145548329
   55      C      10.2523449053     4.0336761092    -2.9458195606
   56      H      10.2839719134     4.8040291345    -3.7059964240
   57      C       8.8763340271     0.5449730413     0.3683634904
   58      H       8.7765903382    -0.2280826533     1.1194794771
   59      C      10.1328305640     1.0007882394     0.0394574490
   60      H      11.0034575198     0.5848398825     0.5320014135
   61      C      11.4940873672     2.5913567038    -1.4038134543
   62      H      12.4427705500     2.2652029867    -0.9949552537
   63      C      11.4613173295     3.5678794060    -2.3733149385
   64      H      12.3932682158     3.9990174670    -2.7146482801
   65      C       2.5961395964     4.4913475380    -4.1377795563
   66      C       1.2049011743     4.4515383502    -4.2334777804
   67      H       0.6409148198     3.7558648796    -3.6216099675
   68      C       0.5495131523     5.3002916814    -5.1053035589
   69      C       1.2750529720     6.2092113363    -5.9068224203
   70      C       2.6578808790     6.2517980114    -5.8201625510
   71      H       3.2217746465     6.9460750246    -6.4331478213
   72      C       3.3320029240     5.3980576644    -4.9399527138
   73      C      -0.8727046003     5.4621692114    -5.3861551171
   74      C      -2.0226190108     4.8746244254    -4.9255120456
   75      H      -2.0073730075     4.0918764475    -4.1765315815
   76      C      -0.9634468269     6.4729652956    -6.3601379585
   77      C      -2.1628489587     6.9248725246    -6.8985960838
   78      C       0.3095881374     6.9616219957    -6.7141153042
   79      C       0.3848150163     7.9533058003    -7.6568620851
   80      H       1.3322295763     8.3719815428    -7.9724468918
   81      C      -3.2584350958     5.3153689907    -5.4557313803
   82      H      -4.1695574992     4.8553031299    -5.0956065680
   83      C      -3.3402757311     6.3051790608    -6.4094405479
   84      H      -4.3088797908     6.6104092380    -6.7861167556
   85      C      -2.0571640880     7.9495655645    -7.8706509705
   86      H      -2.9496234819     8.3509751280    -8.3348460150
   87      C      -0.8192738182     8.4354739771    -8.2270637859
   88      H      -0.7578730687     9.2179125515    -8.9719578566
   89      B       4.8849266563     5.4305147392    -4.8378361565
   90      C       5.7377432734     6.3973953563    -5.7341998901
   91      C       6.0992511304     7.6641755464    -5.2628211214
   92      C       6.9065960023     8.4898551217    -6.0349676255
   93      H       7.1974541540     9.4607313367    -5.6508238806
   94      C       7.3448535918     8.0817742733    -7.2894963265
   95      C       6.9688902072     6.8305353713    -7.7672902921
   96      H       7.2988464581     6.5080633556    -8.7481059689
   97      C       6.1830307332     5.9846248780    -6.9955655338
   98      N       8.1652496796     8.9233731411    -8.0665830024
   99      C       9.3306756870     8.4073689817    -8.6525821655
  100      C       9.7500322174     8.8478759273    -9.9086222872
  101      H       9.1715442285     9.5934212118   -10.4392368289
  102      C      10.9014721689     8.3309866888   -10.4810609429
  103      H      11.2116245952     8.6843415446   -11.4561261040
  104      C      11.6417772354     7.3550854140    -9.8269117584
  105      H      12.5344357629     6.9466516533   -10.2817624759
  106      C      11.2205185510     6.9093545106    -8.5812893521
  107      H      11.7889388264     6.1536773235    -8.0539575377
  108      C      10.0829779384     7.4354165955    -7.9908668432
  109      H       9.7770104071     7.0885750498    -7.0120968733
  110      C       7.8653437397    10.2937934886    -8.1377770710
  111      C       8.8656416982    11.2559313221    -8.0031197384
  112      H       9.8925991090    10.9490858000    -7.8506657503
  113      C       8.5477966007    12.6045696533    -8.0531840833
  114      H       9.3358793512    13.3385328214    -7.9432370410
  115      C       7.2321379134    13.0157636168    -8.2183768629
  116      H       6.9869759078    14.0692039298    -8.2459404849
  117      C       6.2340249643    12.0583392623    -8.3452281350
  118      H       5.2035303320    12.3621209033    -8.4785909646
  119      C       6.5451551149    10.7087705194    -8.3161370281
  120      H       5.7597640588     9.9710018435    -8.4233969486
  121      C       5.8009031141     4.6250004457    -7.5114187958
  122      H       6.2096268554     4.4379026617    -8.5036773270
  123      H       4.7162421181     4.5113552851    -7.5730789686
  124      H       6.1658216712     3.8340407342    -6.8513148563
  125      C       5.6357563983     8.1183034592    -3.9058053043
  126      H       5.9679352949     9.1316535916    -3.6838016016
  127      H       4.5459908309     8.1054537742    -3.8315066144
  128      H       6.0154475858     7.4667297754    -3.1151875754
 ----------------------------------------------------------------

   14   -2927.8982327760      7.73e-09  Convergence criterion met
 Total energy in the final basis set =    -2927.8982327760

         TDDFT/TDA Excitation Energies
 ---------------------------------------------------

 Excited state   1: excitation energy (eV) =    2.0180
 Total energy for state  1:                 -2927.82407154 au
    Multiplicity: Triplet
    Trans. Mom.:  0.0000 X   0.0000 Y   0.0000 Z
    Strength   :     0.0000000000
    D(254) --> V(  1) amplitude =  0.9715

 Excited state   2: excitation energy (eV) =    2.0322
 Total energy for state  2:                 -2927.82354944 au
    Multiplicity: Singlet
    Trans. Mom.:  0.0041 X   0.0099 Y  -0.0077 Z
    Strength   :     0.0000086112
    D(254) --> V(  1) amplitude =  0.9759

 Excited state   3: excitation energy (eV) =    2.3946
 Total energy for state  3:                 -2927.81023413 au
    Multiplicity: Triplet
    Trans. Mom.:  0.0000 X   0.0000 Y   0.0000 Z
    Strength   :     0.0000000000
    D(243) --> V(  2) amplitude =  0.2616
    D(250) --> V(  1) amplitude = -0.4426
    D(251) --> V(  1) amplitude =  0.7761

 Excited state   4: excitation energy (eV) =    2.4674
 Total energy for state  4:                 -2927.80755882 au
    Multiplicity: Triplet
    Trans. Mom.:  0.0000 X   0.0000 Y   0.0000 Z
    Strength   :     0.0000000000
    D(253) --> V(  1) amplitude =  0.9644

 Excited state   5: excitation energy (eV) =    2.4835
 Total energy for state  5:                 -2927.80696442 au
    Multiplicity: Singlet
    Trans. Mom.: -0.0053 X   0.0188 Y  -0.0136 Z
    Strength   :     0.0000343967
    D(253) --> V(  1) amplitude =  0.9722

 Excited state   6: excitation energy (eV) =    2.5045
 Total energy for state  6:                 -2927.80619568 au
    Multiplicity: Triplet
    Trans. Mom.:  0.0000 X   0.0000 Y   0.0000 Z
    Strength   :     0.0000000000
    D(249) --> V(  2) amplitude =  0.5041
    D(252) --> V(  1) amplitude =  0.7670
    D(252) --> V(  4) amplitude = -0.2223

 Excited state   7: excitation energy (eV) =    2.5527
 Total energy for state  7:                 -2927.80442251 au
    Multiplicity: Triplet
    Trans. Mom.:  0.0000 X   0.0000 Y   0.0000 Z
    Strength   :     0.0000000000
    D(249) --> V(  1) amplitude =  0.7187
    D(249) --> V(  4) amplitude = -0.2488
    D(252) --> V(  2) amplitude =  0.5696

 Excited state   8: excitation energy (eV) =    2.8114
 Total energy for state  8:                 -2927.79491715 au
    Multiplicity: Triplet
    Trans. Mom.:  0.0000 X   0.0000 Y   0.0000 Z
    Strength   :     0.0000000000
    D(243) --> V(  1) amplitude = -0.6601
    D(250) --> V(  2) amplitude =  0.2893
    D(251) --> V(  2) amplitude = -0.4895

 Excited state   9: excitation energy (eV) =    3.0666
 Total energy for state  9:                 -2927.78553606 au
    Multiplicity: Singlet
    Trans. Mom.: -0.2188 X   0.0787 Y  -0.0987 Z
    Strength   :     0.0047923127
    D(250) --> V(  1) amplitude = -0.4417
    D(251) --> V(  1) amplitude =  0.8462

 Excited state  10: excitation energy (eV) =    3.1433
 Total energy for state 10:                 -2927.78271884 au
    Multiplicity: Singlet
    Trans. Mom.: -0.0160 X   0.0218 Y  -0.0043 Z
    Strength   :     0.0000576810
    D(254) --> V(  2) amplitude =  0.9952

 Excited state  11: excitation energy (eV) =    3.2460
 Total energy for state 11:                 -2927.77894438 au
    Multiplicity: Singlet
    Trans. Mom.: -3.3917 X   1.3330 Y  -1.6173 Z
    Strength   :     1.2641682151
    D(252) --> V(  1) amplitude =  0.9424

 Excited state  12: excitation energy (eV) =    3.4824
 Total energy for state 12:                 -2927.77025671 au
    Multiplicity: Singlet
    Trans. Mom.: -0.0323 X  -0.0486 Y   0.0394 Z
    Strength   :     0.0004223667
    D(246) --> V(  1) amplitude =  0.2606
    D(248) --> V(  1) amplitude =  0.3248
    D(254) --> V(  3) amplitude =  0.7408
    D(254) --> V(  4) amplitude =  0.4133

 ---------------------------------------------------

                    Orbital Energies (a.u.)
 --------------------------------------------------------------

 Alpha MOs
 -- Occupied --
-14.677 -14.660 -10.497 -10.497 -10.494 -10.480 -10.479 -10.479
-10.477 -10.477 -10.476 -10.475 -10.475 -10.475 -10.475 -10.475
-10.473 -10.473 -10.473 -10.473 -10.471 -10.471 -10.471 -10.470
-10.470 -10.470 -10.468 -10.467 -10.467 -10.467 -10.466 -10.466
-10.464 -10.464 -10.464 -10.463 -10.459 -10.458 -10.452 -10.452
-10.452 -10.452 -10.451 -10.451 -10.450 -10.450 -10.450 -10.449
-10.448 -10.448 -10.447 -10.446 -10.445 -10.445 -10.445 -10.445
-10.437 -10.437 -10.436 -10.436 -10.436 -10.435 -10.434 -10.433
-10.433 -10.432 -10.432 -10.431 -10.430 -10.429 -10.429 -10.426
-10.426 -10.418  -6.962  -6.957  -1.087  -1.070  -1.028  -1.028
 -0.975  -0.971  -0.969  -0.966  -0.955  -0.949  -0.946  -0.943
 -0.943  -0.930  -0.920  -0.912  -0.883  -0.872  -0.870  -0.866
 -0.864  -0.856  -0.856  -0.856  -0.852  -0.843  -0.842  -0.838
 -0.833  -0.827  -0.825  -0.823  -0.822  -0.816  -0.806  -0.791
 -0.778  -0.774  -0.767  -0.760  -0.745  -0.739  -0.736  -0.730
 -0.715  -0.709  -0.702  -0.698  -0.691  -0.689  -0.687  -0.686
 -0.677  -0.676  -0.670  -0.664  -0.658  -0.658  -0.654  -0.645
 -0.640  -0.630  -0.611  -0.604  -0.602  -0.599  -0.596  -0.594
 -0.594  -0.592  -0.585  -0.583  -0.579  -0.567  -0.559  -0.555
 -0.553  -0.549  -0.547  -0.544  -0.540  -0.537  -0.531  -0.530
 -0.526  -0.522  -0.518  -0.515  -0.512  -0.511  -0.507  -0.505
 -0.503  -0.501  -0.500  -0.498  -0.498  -0.498  -0.493  -0.490
 -0.489  -0.487  -0.485  -0.484  -0.484  -0.483  -0.480  -0.476
 -0.476  -0.475  -0.473  -0.470  -0.469  -0.468  -0.467  -0.466
 -0.460  -0.455  -0.454  -0.450  -0.449  -0.448  -0.444  -0.440
 -0.436  -0.434  -0.432  -0.432  -0.428  -0.425  -0.419  -0.418
 -0.416  -0.416  -0.414  -0.407  -0.407  -0.406  -0.406  -0.406
 -0.403  -0.403  -0.402  -0.399  -0.399  -0.398  -0.395  -0.391
 -0.390  -0.384  -0.384  -0.378  -0.366  -0.365  -0.364  -0.357
 -0.349  -0.342  -0.332  -0.326  -0.309  -0.306  -0.306  -0.306
 -0.302  -0.294  -0.294  -0.293  -0.289  -0.287  -0.286  -0.277
 -0.274  -0.272  -0.270  -0.267  -0.229  -0.212

          Ground-State Mulliken Net Atomic Charges

     Atom                 Charge (a.u.)
  ----------------------------------------
      1 N                    -0.674194
      2 C                     0.295324
      3 C                    -0.290850
      4 H                     0.259671
      5 C                    -0.242051
      6 H                     0.246306
      7 C                    -0.264743
      8 H                     0.245241
      9 C                    -0.240939
     10 H                     0.248632
     11 C                    -0.296156
     12 H                     0.264203
     13 C                     0.328175
     14 C                    -0.381868
     15 H                     0.258190
     16 C                     0.052443
     17 C                    -0.378965
     18 H                     0.257609
     19 C                     0.054363
     20 C                    -0.231288
     21 C                     0.277871
     22 C                    -0.284398
     23 H                     0.257813
     24 C                    -0.243117
     25 H                     0.245866
     26 C                    -0.261744
     27 H                     0.246070
     28 C                    -0.242292
     29 H                     0.249378
     30 C                    -0.285096
     31 H                     0.264258
     32 C                    -0.772286
     33 H                     0.261443
     34 H                     0.239570
     35 H                     0.239608
     36 C                    -0.772896
     37 H                     0.261588
     38 H                     0.240174
     39 H                     0.239325
     40 B                     0.690068
     41 C                    -0.160334
     42 C                    -0.392600
     43 H                     0.260325
     44 C                     0.067986
     45 C                     0.084283
     46 C                    -0.397095
     47 H                     0.248929
     48 C                    -0.156918
     49 C                     0.175811
     50 C                    -0.392659
     51 H                     0.261567
     52 C                    -0.067602
     53 C                     0.215935
     54 C                     0.174661
     55 C                    -0.397712
     56 H                     0.254195
     57 C                    -0.236533
     58 H                     0.264802
     59 C                    -0.348643
     60 H                     0.259475
     61 C                    -0.350736
     62 H                     0.259437
     63 C                    -0.236003
     64 H                     0.261861
     65 C                    -0.157101
     66 C                    -0.389464
     67 H                     0.263056
     68 C                     0.068204
     69 C                     0.087358
     70 C                    -0.402329
     71 H                     0.246268
     72 C                    -0.158951
     73 C                     0.173089
     74 C                    -0.389665
     75 H                     0.262815
     76 C                    -0.067170
     77 C                     0.217553
     78 C                     0.173573
     79 C                    -0.399007
     80 H                     0.254308
     81 C                    -0.237650
     82 H                     0.265287
     83 C                    -0.348430
     84 H                     0.259240
     85 C                    -0.352321
     86 H                     0.259374
     87 C                    -0.235579
     88 H                     0.261608
     89 B                     0.685669
     90 C                    -0.216477
     91 C                     0.046506
     92 C                    -0.373191
     93 H                     0.251990
     94 C                     0.295782
     95 C                    -0.370721
     96 H                     0.252162
     97 C                     0.044370
     98 N                    -0.671188
     99 C                     0.301812
    100 C                    -0.299909
    101 H                     0.263279
    102 C                    -0.242628
    103 H                     0.251939
    104 C                    -0.269172
    105 H                     0.248450
    106 C                    -0.241848
    107 H                     0.249440
    108 C                    -0.302888
    109 H                     0.258039
    110 C                     0.291492
    111 C                    -0.297502
    112 H                     0.262738
    113 C                    -0.243677
    114 H                     0.252392
    115 C                    -0.266959
    116 H                     0.249295
    117 C                    -0.242416
    118 H                     0.250517
    119 C                    -0.295638
    120 H                     0.258298
    121 C                    -0.773365
    122 H                     0.258728
    123 H                     0.245700
    124 H                     0.245535
    125 C                    -0.772969
    126 H                     0.258606
    127 H                     0.245458
    128 H                     0.245543
  ----------------------------------------
  Sum of atomic charges =    -0.000000

                    Cartesian Multipole Moments
 -----------------------------------------------------------------
    Charge (ESU x 10^10)
                -0.0000
    Dipole Moment (Debye)
         X      -1.2211      Y      -1.0890      Z       1.1455
       Tot       1.9973
    Quadrupole Moments (Debye-Ang)
        XX    -364.5776     XY     -13.6714     YY    -409.5422
        XZ      22.1959     YZ     -21.1183     ZZ    -412.9250

 Total job time:  25208.45s(wall), 80973.60s(cpu)
        *  Thank you very much for using Q-Chem.  Have a nice day.  *
