 Q-Chem 5.1, Q-Chem, Inc., Pleasanton, CA (2018)
 Q-Chem 5.1.1 for Intel X86 EM64T Linux

User input:
--------------------------------------------------------------
$solvent
dielectric      1.0001
dielectric_infi 1.00009
$end

$rem
threads 8
jobtype	sp
method PBEh-3c
basis def2-mSVP
mem_static	1024
mem_total	14000
sym_ignore	true
cis_n_roots             2
cis_singlets            true
cis_triplets		false
rpa                     false
calc_soc 		true
cis_moments             true
cis_relaxed_density	true
solvent_method		pcm
$end

$pcm
StateSpecific   1
ChargeSeparation Excited
$end

$molecule
read moms1opt_vac.mol
$end

--------------------------------------------------------------

   15   -2927.8603893012      7.57e-09  Convergence criterion met
 Total energy in the final basis set =    -2927.8603893012

         TDDFT/TDA Excitation Energies
 ---------------------------------------------------

 Excited state   1: excitation energy (eV) =    2.0753
 Total energy for state  1:                 -2927.78412303 au
    Multiplicity: Singlet
    Trans. Mom.: -0.0051 X   0.0184 Y   0.1204 Z
    Strength   :     0.0007554385
    D(254) --> V(  1) amplitude =  0.9725

 Excited state   2: excitation energy (eV) =    2.4502
 Total energy for state  2:                 -2927.77034486 au
    Multiplicity: Singlet
    Trans. Mom.: -0.0036 X   0.0047 Y   0.0358 Z
    Strength   :     0.0000790040
    D(253) --> V(  1) amplitude =  0.9739

 ---------------------------------------------------

                    Orbital Energies (a.u.)
 --------------------------------------------------------------

 Alpha MOs
 -- Occupied --
-14.668 -14.666 -10.490 -10.490 -10.487 -10.487 -10.483 -10.480
-10.465 -10.465 -10.465 -10.465 -10.465 -10.465 -10.464 -10.463
-10.463 -10.463 -10.463 -10.462 -10.462 -10.462 -10.462 -10.461
-10.461 -10.460 -10.460 -10.460 -10.460 -10.460 -10.454 -10.453
-10.452 -10.452 -10.451 -10.451 -10.450 -10.450 -10.450 -10.450
-10.447 -10.447 -10.447 -10.447 -10.447 -10.447 -10.446 -10.446
-10.446 -10.446 -10.445 -10.445 -10.444 -10.444 -10.441 -10.441
-10.440 -10.440 -10.439 -10.438 -10.434 -10.434 -10.434 -10.434
-10.432 -10.431 -10.426 -10.426 -10.426 -10.426 -10.422 -10.422
-10.420 -10.411  -6.946  -6.937  -1.083  -1.077  -1.015  -1.015
 -0.962  -0.961  -0.958  -0.957  -0.957  -0.956  -0.936  -0.935
 -0.934  -0.933  -0.907  -0.898  -0.871  -0.870  -0.861  -0.856
 -0.854  -0.852  -0.850  -0.848  -0.847  -0.847  -0.841  -0.840
 -0.835  -0.833  -0.822  -0.814  -0.812  -0.803  -0.798  -0.797
 -0.766  -0.762  -0.760  -0.758  -0.735  -0.730  -0.727  -0.720
 -0.708  -0.706  -0.703  -0.701  -0.689  -0.686  -0.682  -0.680
 -0.677  -0.676  -0.667  -0.666  -0.647  -0.645  -0.642  -0.638
 -0.636  -0.636  -0.604  -0.603  -0.597  -0.593  -0.593  -0.590
 -0.585  -0.584  -0.583  -0.576  -0.576  -0.562  -0.560  -0.551
 -0.549  -0.544  -0.542  -0.539  -0.538  -0.535  -0.528  -0.524
 -0.522  -0.518  -0.516  -0.513  -0.507  -0.507  -0.504  -0.501
 -0.497  -0.495  -0.494  -0.493  -0.493  -0.489  -0.488  -0.486
 -0.484  -0.483  -0.483  -0.482  -0.481  -0.480  -0.479  -0.474
 -0.471  -0.469  -0.467  -0.466  -0.464  -0.462  -0.461  -0.459
 -0.458  -0.455  -0.444  -0.442  -0.439  -0.439  -0.438  -0.435
 -0.431  -0.427  -0.426  -0.423  -0.423  -0.422  -0.421  -0.421
 -0.418  -0.415  -0.409  -0.409  -0.406  -0.402  -0.402  -0.400
 -0.399  -0.398  -0.395  -0.395  -0.395  -0.394  -0.391  -0.390
 -0.384  -0.378  -0.376  -0.366  -0.357  -0.357  -0.351  -0.349
 -0.343  -0.335  -0.319  -0.314  -0.307  -0.300  -0.299  -0.296
 -0.296  -0.296  -0.295  -0.291  -0.282  -0.281  -0.279  -0.273
 -0.272  -0.261  -0.255  -0.254  -0.218  -0.211

          Ground-State Mulliken Net Atomic Charges

     Atom                 Charge (a.u.)
  ----------------------------------------
      1 N                    -0.662382
      2 C                     0.335531
      3 C                    -0.392044
      4 H                     0.239692
      5 C                     0.078889
      6 C                    -0.393779
      7 H                     0.239983
      8 C                     0.077097
      9 C                     0.263991
     10 C                    -0.263358
     11 H                     0.242945
     12 C                    -0.217322
     13 H                     0.222000
     14 C                    -0.232507
     15 H                     0.218974
     16 C                    -0.218731
     17 H                     0.221487
     18 C                    -0.258150
     19 H                     0.246136
     20 C                     0.261382
     21 C                    -0.262788
     22 H                     0.243406
     23 C                    -0.217505
     24 H                     0.222093
     25 C                    -0.232411
     26 H                     0.219009
     27 C                    -0.218721
     28 H                     0.221289
     29 C                    -0.255292
     30 H                     0.243980
     31 C                    -0.254201
     32 C                    -0.759412
     33 H                     0.236143
     34 H                     0.244718
     35 H                     0.243506
     36 C                    -0.757939
     37 H                     0.235920
     38 H                     0.243560
     39 H                     0.242917
     40 B                     0.678423
     41 C                    -0.147541
     42 C                    -0.390049
     43 H                     0.232490
     44 C                     0.096431
     45 C                     0.114796
     46 C                    -0.393909
     47 H                     0.230323
     48 C                    -0.151388
     49 C                     0.197238
     50 C                    -0.381160
     51 H                     0.217447
     52 C                    -0.065437
     53 C                     0.250905
     54 C                     0.200647
     55 C                    -0.378738
     56 H                     0.219190
     57 C                    -0.203882
     58 H                     0.226575
     59 C                    -0.332547
     60 H                     0.220714
     61 C                    -0.203253
     62 H                     0.226350
     63 C                    -0.334399
     64 H                     0.221103
     65 C                    -0.147583
     66 C                    -0.385937
     67 H                     0.234087
     68 C                     0.096982
     69 C                     0.117059
     70 C                    -0.399182
     71 H                     0.227830
     72 C                    -0.151344
     73 C                     0.198440
     74 C                    -0.375874
     75 H                     0.218485
     76 C                    -0.065153
     77 C                     0.252479
     78 C                     0.196353
     79 C                    -0.382732
     80 H                     0.218517
     81 C                    -0.204871
     82 H                     0.226379
     83 C                    -0.332695
     84 H                     0.220704
     85 C                    -0.202654
     86 H                     0.226420
     87 C                    -0.335675
     88 H                     0.221105
     89 B                     0.699165
     90 C                    -0.218226
     91 C                     0.054284
     92 C                    -0.346796
     93 H                     0.232671
     94 C                     0.277408
     95 C                    -0.345266
     96 H                     0.231523
     97 C                     0.054031
     98 N                    -0.672969
     99 C                     0.310026
    100 C                    -0.284424
    101 H                     0.246475
    102 C                    -0.213280
    103 H                     0.218945
    104 C                    -0.240564
    105 H                     0.215869
    106 C                    -0.210875
    107 H                     0.215889
    108 C                    -0.285082
    109 H                     0.240724
    110 C                     0.299968
    111 C                    -0.285469
    112 H                     0.246913
    113 C                    -0.213884
    114 H                     0.219386
    115 C                    -0.239342
    116 H                     0.216491
    117 C                    -0.211498
    118 H                     0.217142
    119 C                    -0.277208
    120 H                     0.240844
    121 C                    -0.760283
    122 H                     0.238964
    123 H                     0.244957
    124 H                     0.244967
    125 C                    -0.759928
    126 H                     0.239225
    127 H                     0.244455
    128 H                     0.245201
  ----------------------------------------
  Sum of atomic charges =    -0.000000

                    Cartesian Multipole Moments
 -----------------------------------------------------------------
    Charge (ESU x 10^10)
                -0.0000
    Dipole Moment (Debye)
         X      -0.1463      Y      -0.0168      Z      -1.7797
       Tot       1.7858
    Quadrupole Moments (Debye-Ang)
        XX    -436.0902     XY       2.1643     YY    -371.5992
        XZ      -2.7916     YZ      -3.7620     ZZ    -423.8412

 Total job time:  13714.58s(wall), 39717.42s(cpu)
        *  Thank you very much for using Q-Chem.  Have a nice day.  *
 Q-Chem 5.1, Q-Chem, Inc., Pleasanton, CA (2018)
 Q-Chem 5.1.1 for Intel X86 EM64T Linux

User input:
--------------------------------------------------------------
$rem
threads 8
jobtype sp
method PBEh-3c
basis def2-mSVP
mem_static      1024
mem_total       14000
sym_ignore      true
cis_n_roots             6
cis_singlets            true
cis_triplets            true
rpa                     false
calc_soc                true
cis_moments             true
cis_relaxed_density     true
solvent_method          pcm
$end

$molecule
read
$end

$pcm
statespecific           Marcus
$end

$solvent
dielectric      1.0001
dielectric_infi 1.00009
$end

--------------------------------------------------------------

             Standard Nuclear Orientation (Angstroms)
    I     Atom           X                Y                Z
 ----------------------------------------------------------------
    1      N       0.0000000000     0.0000000000     0.0000000000
    2      C       0.0000000000     0.0000000000     1.3627440000
    3      C       1.2220795476     0.0000000000     2.0739890377
    4      H       2.1551452702    -0.0660730053     1.5294113572
    5      C       1.2285489703     0.0318757046     3.4436719028
    6      C      -1.2205846977     0.0100596091     2.0768033177
    7      H      -2.1563511788     0.0419162747     1.5334227887
    8      C      -1.2234951021     0.0577539344     3.4461048547
    9      C      -1.0986398474    -0.4986323195    -0.7413572288
   10      C      -1.6069581362     0.2471113818    -1.8006765568
   11      H      -1.1853810872     1.2157711499    -2.0356495311
   12      C      -2.6610507504    -0.2549392928    -2.5429741682
   13      H      -3.0625881085     0.3277567954    -3.3608260851
   14      C      -3.2057513374    -1.4946011625    -2.2368015249
   15      H      -4.0288218283    -1.8833364136    -2.8209460994
   16      C      -2.6905255738    -2.2364426065    -1.1839133106
   17      H      -3.1038448946    -3.2080185516    -0.9499629465
   18      C      -1.6335009239    -1.7465479242    -0.4357396234
   19      H      -1.2162595296    -2.3341786105     0.3717598141
   20      C       1.0957609509     0.5115179492    -0.7372711043
   21      C       1.6059948824    -0.2231759233    -1.8033233658
   22      H       1.1852391876    -1.1897708955    -2.0478603363
   23      C       2.6599914258     0.2872177598    -2.5396580024
   24      H       3.0638459574    -0.2875598832    -3.3620312283
   25      C       3.2018482082     1.5254023045    -2.2220928379
   26      H       4.0252842448     1.9202086586    -2.8015595653
   27      C       2.6820907493     2.2584219462    -1.1650178173
   28      H       3.0920469987     3.2292351860    -0.9224745118
   29      C       1.6254403441     1.7596042556    -0.4219642395
   30      H       1.2039715961     2.3400644762     0.3885405682
   31      C       0.0038809163     0.0891159088     4.1694926316
   32      C      -2.5133907170     0.1169659916     4.1994426330
   33      H      -3.3743403701     0.0938707569     3.5322560284
   34      H      -2.5650325250     1.0240418908     4.8033274594
   35      H      -2.5885450836    -0.7211589256     4.8939534551
   36      C       2.5196312297     0.0036508316     4.1971859893
   37      H       3.3773799713    -0.0605488271     3.5287789877
   38      H       2.5482118958    -0.8437045973     4.8833573482
   39      H       2.6224821450     0.9009484551     4.8094768355
   40      B       0.0005067972     0.2178145753     5.7419691704
   41      C      -0.0357375706    -1.0366425747     6.6039009111
   42      C      -0.0525461252    -2.3241345224     6.0254884235
   43      H      -0.0326442654    -2.4339827709     4.9437366020
   44      C      -0.0957672903    -3.4416675619     6.8159407969
   45      C      -0.1217391526    -3.3186510519     8.2360580640
   46      C      -0.1033926835    -2.0720550862     8.8158301386
   47      H      -0.1228663801    -1.9728862346     9.8957133787
   48      C      -0.0608204472    -0.9074521520     8.0251898896
   49      C      -0.1679987068    -4.6668142200     8.7986284611
   50      C      -0.2055164580    -5.1996863699    10.0624808252
   51      H      -0.2073185285    -4.5723766151    10.9447163945
   52      C      -0.1693410622    -5.5560794159     7.7039332485
   53      C      -0.2067746594    -6.9435685518     7.8143754179
   54      C      -0.1256821190    -4.8635275135     6.4781446284
   55      C      -0.1188891339    -5.5917940998     5.3147067539
   56      H      -0.0829518128    -5.1157652974     4.3420472537
   57      C      -0.1575867774    -7.0021726253     5.3970307284
   58      H      -0.1520695422    -7.5753679587     4.4781496197
   59      C      -0.2001423943    -7.6699782837     6.5988596209
   60      H      -0.2283102323    -8.7528971828     6.6136398734
   61      C      -0.2437160348    -6.6061706699    10.2059237814
   62      H      -0.2734098053    -7.0216902171    11.2050270877
   63      C      -0.2448404811    -7.4633424363     9.1305032337
   64      H      -0.2742493375    -8.5344087611     9.2898564328
   65      C       0.0120663763     1.6072518392     6.3707636404
   66      C       0.0389339087     2.7684112832     5.5706733192
   67      H       0.0554379653     2.6777984004     4.4874027622
   68      C       0.0423884358     4.0116255031     6.1444447836
   69      C       0.0221722212     4.1532361869     7.5624046538
   70      C      -0.0066282596     3.0305744723     8.3586143684
   71      H      -0.0264297661     3.1267227334     9.4392989709
   72      C      -0.0127205946     1.7404933120     7.7925489187
   73      C       0.0608653606     5.3419155447     5.5479398993
   74      C       0.0769662954     5.8307474135     4.2661161496
   75      H       0.0786510948     5.1737050712     3.4043808787
   76      C       0.0560206615     6.2538125093     6.6212839034
   77      C       0.0688340200     7.6360978705     6.4657244523
   78      C       0.0335753440     5.5840243602     7.8631664844
   79      C       0.0260912385     6.3454921418     9.0040026231
   80      H       0.0085528117     5.8948443114     9.9881726075
   81      C       0.0897023381     7.2308339709     4.0790174240
   82      H       0.1014818492     7.6199067776     3.0684594214
   83      C       0.0864783717     8.1153916231     5.1330352787
   84      H       0.0960853062     9.1814235712     4.9411529430
   85      C       0.0414871715     7.7543900538     8.8788210835
   86      H       0.0365232870     8.3503385680     9.7824449267
   87      C       0.0613658731     8.3945067015     7.6613501715
   88      H       0.0717168900     9.4766478219     7.6183646167
   89      B      -0.0473302157     0.4854735794     8.6829315156
   90      C      -0.0704606927     0.5947311235    10.2588353042
   91      C      -1.2853987409     0.6040313446    10.9542194103
   92      C      -1.2998340188     0.6334010143    12.3428378450
   93      H      -2.2460604394     0.6207931724    12.8715508365
   94      C      -0.1129237553     0.6815693439    13.0609669128
   95      C       1.0960538585     0.6951065933    12.3774081905
   96      H       2.0240863645     0.7373977311    12.9358218792
   97      C       1.1235140309     0.6381499633    10.9899122109
   98      N      -0.1346621859     0.7079551780    14.4740004050
   99      C       0.6331296874    -0.2180811213    15.1898143836
  100      C       1.2047940839     0.1234997828    16.4165000039
  101      H       1.0538431595     1.1163154499    16.8199100382
  102      C       1.9657819846    -0.7991261193    17.1136454671
  103      H       2.4005462467    -0.5152773984    18.0634185845
  104      C       2.1922644657    -2.0669891161    16.5977379281
  105      H       2.7963774253    -2.7811483353    17.1409621372
  106      C       1.6356043733    -2.4041079608    15.3727530837
  107      H       1.7989028816    -3.3895006635    14.9552642171
  108      C       0.8556513786    -1.4971160792    14.6767718553
  109      H       0.4191841761    -1.7769169278    13.7269319271
  110      C      -1.0267190864     1.5742129852    15.1202850082
  111      C      -1.7620678071     1.1598308750    16.2307179866
  112      H      -1.6361617427     0.1554017559    16.6134092729
  113      C      -2.6600498125     2.0233718584    16.8361807870
  114      H      -3.2250162541     1.6818195512    17.6940070708
  115      C      -2.8570070706     3.3031867169    16.3394653533
  116      H      -3.5678406358     3.9703125916    16.8082713172
  117      C      -2.1328897578     3.7143577150    15.2294298013
  118      H      -2.2730876647     4.7100479018    14.8285504937
  119      C      -1.2195282307     2.8661018308    14.6288324064
  120      H      -0.6589547837     3.1962230678    13.7638128102
  121      C       2.4389824569     0.6265940244    10.2625335965
  122      H       3.2831490190     0.6780994530    10.9500299622
  123      H       2.5170215845     1.4673491982     9.5705109276
  124      H       2.5495795364    -0.2816121105     9.6658167132
  125      C      -2.5816869357     0.5532543118    10.1935009283
  126      H      -3.4426187905     0.5987617967    10.8602407780
  127      H      -2.6599064040     1.3844464659     9.4899756864
  128      H      -2.6619701731    -0.3637656994     9.6058578257
 ----------------------------------------------------------------
