 Q-Chem 5.1, Q-Chem, Inc., Pleasanton, CA (2018)
 Q-Chem 5.1.1 for Intel X86 EM64T Linux

User input:
--------------------------------------------------------------
$solvent
dielectric      4.33
dielectric_infi 1.83
$end

$rem
threads 8
jobtype	sp
method PBEh-3c
basis def2-mSVP
mem_static	1024
mem_total	14000
sym_ignore	true
cis_n_roots             2
cis_singlets            true
cis_triplets		false
rpa                     false
calc_soc 		true
cis_moments             true
cis_relaxed_density	true
solvent_method		pcm
$end

$pcm
StateSpecific   1
ChargeSeparation Excited
$end

$molecule
read moms1opt_eth.mol
$end

--------------------------------------------------------------

   14   -2927.8928025832      9.03e-09  Convergence criterion met
 Total energy in the final basis set =    -2927.8928025832

                    Orbital Energies (a.u.)
 --------------------------------------------------------------

 Alpha MOs
 -- Occupied --
-14.672 -14.672 -10.493 -10.493 -10.493 -10.493 -10.488 -10.486
-10.469 -10.468 -10.467 -10.467 -10.467 -10.467 -10.466 -10.466
-10.466 -10.466 -10.465 -10.465 -10.464 -10.463 -10.463 -10.463
-10.463 -10.463 -10.459 -10.459 -10.459 -10.459 -10.458 -10.457
-10.457 -10.456 -10.456 -10.456 -10.452 -10.452 -10.451 -10.451
-10.450 -10.450 -10.450 -10.450 -10.449 -10.449 -10.448 -10.448
-10.448 -10.448 -10.448 -10.448 -10.446 -10.446 -10.446 -10.445
-10.445 -10.445 -10.443 -10.442 -10.440 -10.439 -10.438 -10.438
-10.438 -10.437 -10.432 -10.432 -10.427 -10.427 -10.425 -10.425
-10.425 -10.418  -6.951  -6.945  -1.088  -1.082  -1.018  -1.018
 -0.965  -0.964  -0.962  -0.961  -0.961  -0.959  -0.941  -0.940
 -0.935  -0.934  -0.910  -0.901  -0.875  -0.874  -0.865  -0.860
 -0.858  -0.855  -0.852  -0.852  -0.848  -0.848  -0.842  -0.841
 -0.839  -0.838  -0.825  -0.816  -0.813  -0.806  -0.801  -0.800
 -0.770  -0.765  -0.764  -0.764  -0.737  -0.732  -0.728  -0.722
 -0.711  -0.710  -0.705  -0.705  -0.690  -0.686  -0.685  -0.681
 -0.681  -0.678  -0.671  -0.669  -0.650  -0.648  -0.646  -0.641
 -0.640  -0.639  -0.607  -0.605  -0.598  -0.596  -0.592  -0.589
 -0.588  -0.588  -0.584  -0.577  -0.577  -0.563  -0.562  -0.553
 -0.552  -0.545  -0.545  -0.543  -0.540  -0.538  -0.528  -0.525
 -0.524  -0.521  -0.518  -0.514  -0.510  -0.509  -0.505  -0.501
 -0.500  -0.497  -0.497  -0.495  -0.494  -0.491  -0.489  -0.488
 -0.488  -0.487  -0.486  -0.484  -0.483  -0.481  -0.480  -0.477
 -0.472  -0.472  -0.469  -0.466  -0.466  -0.466  -0.463  -0.462
 -0.461  -0.456  -0.446  -0.443  -0.442  -0.441  -0.440  -0.439
 -0.435  -0.430  -0.429  -0.427  -0.426  -0.425  -0.423  -0.422
 -0.420  -0.416  -0.412  -0.411  -0.408  -0.406  -0.402  -0.401
 -0.401  -0.399  -0.398  -0.397  -0.397  -0.395  -0.392  -0.392
 -0.388  -0.382  -0.382  -0.371  -0.362  -0.361  -0.356  -0.354
 -0.348  -0.340  -0.324  -0.318  -0.310  -0.305  -0.303  -0.302
 -0.299  -0.298  -0.297  -0.297  -0.287  -0.285  -0.284  -0.278
 -0.278  -0.265  -0.260  -0.258  -0.224  -0.216

          Ground-State Mulliken Net Atomic Charges

     Atom                 Charge (a.u.)
  ----------------------------------------
      1 N                    -0.657387
      2 C                     0.329233
      3 C                    -0.401827
      4 H                     0.253070
      5 C                     0.063942
      6 C                    -0.402894
      7 H                     0.252945
      8 C                     0.061926
      9 C                     0.264156
     10 C                    -0.275710
     11 H                     0.263031
     12 C                    -0.242825
     13 H                     0.247984
     14 C                    -0.259202
     15 H                     0.244010
     16 C                    -0.241524
     17 H                     0.248148
     18 C                    -0.283982
     19 H                     0.261054
     20 C                     0.260592
     21 C                    -0.273092
     22 H                     0.262599
     23 C                    -0.243031
     24 H                     0.247870
     25 C                    -0.258916
     26 H                     0.244024
     27 C                    -0.241901
     28 H                     0.248148
     29 C                    -0.283030
     30 H                     0.261160
     31 C                    -0.248180
     32 C                    -0.770228
     33 H                     0.250530
     34 H                     0.247492
     35 H                     0.246379
     36 C                    -0.769169
     37 H                     0.250214
     38 H                     0.246564
     39 H                     0.246401
     40 B                     0.676447
     41 C                    -0.150800
     42 C                    -0.392786
     43 H                     0.245638
     44 C                     0.079926
     45 C                     0.097704
     46 C                    -0.397345
     47 H                     0.245868
     48 C                    -0.153971
     49 C                     0.182277
     50 C                    -0.388645
     51 H                     0.249983
     52 C                    -0.068136
     53 C                     0.221252
     54 C                     0.180100
     55 C                    -0.391604
     56 H                     0.249409
     57 C                    -0.230440
     58 H                     0.255583
     59 C                    -0.344394
     60 H                     0.252859
     61 C                    -0.229902
     62 H                     0.255094
     63 C                    -0.346309
     64 H                     0.253133
     65 C                    -0.150076
     66 C                    -0.390307
     67 H                     0.247127
     68 C                     0.080965
     69 C                     0.099545
     70 C                    -0.401828
     71 H                     0.243603
     72 C                    -0.154507
     73 C                     0.180090
     74 C                    -0.386165
     75 H                     0.249976
     76 C                    -0.067708
     77 C                     0.222881
     78 C                     0.179391
     79 C                    -0.392751
     80 H                     0.249886
     81 C                    -0.231456
     82 H                     0.255462
     83 C                    -0.344658
     84 H                     0.252790
     85 C                    -0.229326
     86 H                     0.255206
     87 C                    -0.347522
     88 H                     0.253061
     89 B                     0.693494
     90 C                    -0.216027
     91 C                     0.043822
     92 C                    -0.362364
     93 H                     0.247126
     94 C                     0.283307
     95 C                    -0.361278
     96 H                     0.247035
     97 C                     0.043053
     98 N                    -0.671541
     99 C                     0.307212
    100 C                    -0.299164
    101 H                     0.260275
    102 C                    -0.238736
    103 H                     0.245779
    104 C                    -0.267052
    105 H                     0.242355
    106 C                    -0.237450
    107 H                     0.244765
    108 C                    -0.304248
    109 H                     0.258373
    110 C                     0.297920
    111 C                    -0.299182
    112 H                     0.260096
    113 C                    -0.239356
    114 H                     0.246236
    115 C                    -0.265331
    116 H                     0.243050
    117 C                    -0.237620
    118 H                     0.245464
    119 C                    -0.296320
    120 H                     0.257787
    121 C                    -0.771384
    122 H                     0.252724
    123 H                     0.248137
    124 H                     0.248049
    125 C                    -0.770869
    126 H                     0.252679
    127 H                     0.247896
    128 H                     0.248096
  ----------------------------------------
  Sum of atomic charges =    -0.000000

                    Cartesian Multipole Moments
 -----------------------------------------------------------------
    Charge (ESU x 10^10)
                -0.0000
    Dipole Moment (Debye)
         X      -0.1928      Y      -0.0265      Z      -1.7202
       Tot       1.7311
    Quadrupole Moments (Debye-Ang)
        XX    -433.0158     XY       1.6264     YY    -351.2530
        XZ      -3.4510     YZ      -5.0956     ZZ    -411.2164

 Total job time:  15407.04s(wall), 42463.82s(cpu)
        *  Thank you very much for using Q-Chem.  Have a nice day.  *
 Q-Chem 5.1, Q-Chem, Inc., Pleasanton, CA (2018)
 Q-Chem 5.1.1 for Intel X86 EM64T Linux

User input:
--------------------------------------------------------------
$rem
threads 8
jobtype sp
method PBEh-3c
basis def2-mSVP
mem_static      1024
mem_total       14000
sym_ignore      true
cis_n_roots             6
cis_singlets            true
cis_triplets            true
rpa                     false
calc_soc                true
cis_moments             true
cis_relaxed_density     true
solvent_method          pcm
$end

$molecule
read
$end

$pcm
statespecific           Marcus
$end

$solvent
dielectric      4.33
dielectric_infi 1.83
$end

--------------------------------------------------------------

             Standard Nuclear Orientation (Angstroms)
    I     Atom           X                Y                Z
 ----------------------------------------------------------------
    1      N       0.0000000000     0.0000000000     0.0000000000
    2      C       0.0000000000     0.0000000000     1.3665230000
    3      C       1.2199585664     0.0000000000     2.0747388072
    4      H       2.1540536377    -0.0710198883     1.5320727290
    5      C       1.2251516398     0.0378276369     3.4482561926
    6      C      -1.2177681719     0.0138913024     2.0785592058
    7      H      -2.1550352546     0.0488071710     1.5376016844
    8      C      -1.2175380311     0.0632273856     3.4518592679
    9      C      -1.0795495370    -0.5349396927    -0.7369050372
   10      C      -1.5959591550    -1.7855515545    -0.4040152317
   11      H      -1.1713735549    -2.3520821553     0.4146155911
   12      C      -2.6363795648    -2.3099246807    -1.1515540139
   13      H      -3.0328753503    -3.2848139056    -0.9024854365
   14      C      -3.1556226234    -1.5984719179    -2.2249279685
   15      H      -3.9665744849    -2.0146225111    -2.8075380853
   16      C      -2.6311292868    -0.3546370536    -2.5548695464
   17      H      -3.0381728879     0.2037783728    -3.3868637333
   18      C      -1.5907232448     0.1812182125    -1.8178446181
   19      H      -1.1893962150     1.1546025862    -2.0684790413
   20      C       1.0760431023     0.5522212006    -0.7301441893
   21      C       1.5825016822     1.8032398389    -0.3829600882
   22      H       1.1494060477     2.3585807471     0.4388211125
   23      C       2.6223551253     2.3421446146    -1.1210057386
   24      H       3.0118225085     3.3165383339    -0.8596089587
   25      C       3.1507941204     1.6444497365    -2.1991075274
   26      H       3.9623454782     2.0705806678    -2.7735067375
   27      C       2.6333698745     0.4020039686    -2.5455981586
   28      H       3.0459981127    -0.1444164042    -3.3828837919
   29      C       1.5931260394    -0.1476518727    -1.8187539105
   30      H       1.1955080273    -1.1188965631    -2.0828340940
   31      C       0.0055017057     0.0933663430     4.1697281249
   32      C      -2.5151841265     0.1194780290     4.1975768462
   33      H      -3.3692805238     0.1073050242     3.5215960704
   34      H      -2.5753513024     1.0205548409     4.8095132887
   35      H      -2.6062478932    -0.7286410128     4.8780026334
   36      C       2.5252911148     0.0161455180     4.1916121388
   37      H       3.3749137740    -0.0405650419     3.5125678921
   38      H       2.5726423168    -0.8348805483     4.8722594656
   39      H       2.6355162117     0.9135698750     4.8023680686
   40      B       0.0042384799     0.2198620408     5.7478560725
   41      C      -0.0147861299    -1.0321677229     6.6194941251
   42      C      -0.0222593773    -2.3186223335     6.0396870443
   43      H      -0.0097342290    -2.4240213376     4.9580744522
   44      C      -0.0470533896    -3.4394955932     6.8289930253
   45      C      -0.0632862722    -3.3192368911     8.2511291111
   46      C      -0.0549195275    -2.0735563388     8.8332008070
   47      H      -0.0674405773    -1.9805999108     9.9139492660
   48      C      -0.0312154710    -0.9056906641     8.0433711235
   49      C      -0.0633263452    -4.8607999964     6.4891269774
   50      C      -0.0569644276    -5.5873696882     5.3230152355
   51      H      -0.0349397299    -5.1100069710     4.3505816038
   52      C      -0.0891155430    -5.5560957421     7.7150111345
   53      C      -0.1091015133    -6.9450563691     7.8233142271
   54      C      -0.0892217068    -4.6693157035     8.8124014960
   55      C      -0.1093718411    -5.2047302160    10.0769787292
   56      H      -0.1103289896    -4.5796476401    10.9611232525
   57      C      -0.0784181105    -6.9991643152     5.4042578387
   58      H      -0.0736978693    -7.5701147360     4.4839616086
   59      C      -0.1034251074    -7.6705463537     6.6059614875
   60      H      -0.1186727715    -8.7538283368     6.6195100122
   61      C      -0.1298798789    -6.6126675115    10.2175805434
   62      H      -0.1459252901    -7.0304538660    11.2161895092
   63      C      -0.1300280382    -7.4683596033     9.1392564777
   64      H      -0.1454314055    -8.5402295955     9.2961142124
   65      C       0.0059637112     1.6078044024     6.3891169449
   66      C       0.0193642280     2.7695223084     5.5902801795
   67      H       0.0339506518     2.6779892664     4.5077630282
   68      C       0.0119644736     4.0141597735     6.1650398352
   69      C      -0.0064510739     4.1549702079     7.5845772504
   70      C      -0.0192442454     3.0319262232     8.3805725842
   71      H      -0.0353607306     3.1317253578     9.4611973198
   72      C      -0.0132726175     1.7403679536     7.8131936215
   73      C       0.0154952669     5.3448817280     5.5696415926
   74      C       0.0256049959     5.8346898699     4.2867248002
   75      H       0.0350833028     5.1792200746     3.4238733358
   76      C       0.0020785648     6.2562902723     6.6446074257
   77      C      -0.0006262782     7.6396698702     6.4900173746
   78      C      -0.0108757725     5.5862768025     7.8870195889
   79      C      -0.0260137062     6.3468669169     9.0298130588
   80      H      -0.0374544132     5.8959870597    10.0142580417
   81      C       0.0231520376     7.2361774645     4.1017112866
   82      H       0.0307826322     7.6253034516     3.0911339156
   83      C       0.0106708739     8.1211171637     5.1568617208
   84      H       0.0086706711     9.1874950073     4.9661441711
   85      C      -0.0268786020     7.7567032009     8.9050638174
   86      H      -0.0378424851     8.3521052428     9.8091314791
   87      C      -0.0155155565     8.3979602079     7.6865727493
   88      H      -0.0174559129     9.4802963275     7.6435649826
   89      B      -0.0277093766     0.4854649997     8.7030415456
   90      C      -0.0371099352     0.5937356166    10.2813122496
   91      C      -1.2449088807     0.5899391466    10.9906218863
   92      C      -1.2459675349     0.6199132264    12.3804332951
   93      H      -2.1881342038     0.5959204360    12.9165128054
   94      C      -0.0525223116     0.6812433255    13.0874779409
   95      C       1.1493309186     0.7078176818    12.3909309433
   96      H       2.0839224633     0.7617792101    12.9378740809
   97      C       1.1633869254     0.6508020486    11.0021699105
   98      N      -0.0597871816     0.7088900106    14.5006018530
   99      C       0.7245020506    -0.2093930012    15.2102369621
  100      C       1.3135206845     0.1442687363    16.4257960302
  101      H       1.1641895922     1.1384947406    16.8271027799
  102      C       2.0922268770    -0.7693280242    17.1172735531
  103      H       2.5405235175    -0.4761832755    18.0580627938
  104      C       2.3184210497    -2.0401297354    16.6054974616
  105      H       2.9359453029    -2.7469681124    17.1436350165
  106      C       1.7429626660    -2.3897941275    15.3916463134
  107      H       1.9043215279    -3.3774592261    14.9783872443
  108      C       0.9456602480    -1.4911629443    14.7022017502
  109      H       0.4946181233    -1.7840372341    13.7628556571
  110      C      -0.9577276318     1.5633987805    15.1565527034
  111      C      -1.6873463900     1.1326817082    16.2650050044
  112      H      -1.5551483914     0.1257419854    16.6395982040
  113      C      -2.5907905395     1.9843851608    16.8812833082
  114      H      -3.1511219277     1.6305987298    17.7373788917
  115      C      -2.7982262985     3.2682973254    16.3965260735
  116      H      -3.5128624387     3.9258900843    16.8734367603
  117      C      -2.0791528495     3.6958973417    15.2881444350
  118      H      -2.2266491639     4.6946576544    14.8972291980
  119      C      -1.1604687697     2.8588423061    14.6774170612
  120      H      -0.6035773802     3.2048072768    13.8157693185
  121      C       2.4744806635     0.6550645220    10.2660230476
  122      H       3.3219512861     0.7195073026    10.9483983359
  123      H       2.5375573127     1.4950521424     9.5714700497
  124      H       2.5944572290    -0.2524635341     9.6699771870
  125      C      -2.5506593842     0.5244890703    10.2467815756
  126      H      -3.4030481212     0.5593169883    10.9250836823
  127      H      -2.6487736194     1.3544395954     9.5441756957
  128      H      -2.6284469013    -0.3928878904     9.6593227991
 ----------------------------------------------------------------

   15   -2927.8852186728      6.11e-09  Convergence criterion met
 Total energy in the final basis set =    -2927.8852186728

         TDDFT/TDA Excitation Energies
 ---------------------------------------------------

 Excited state   1: excitation energy (eV) =    1.6884
 Total energy for state  1:                 -2927.82317283 au
    Multiplicity: Triplet
    Trans. Mom.:  0.0000 X   0.0000 Y   0.0000 Z
    Strength   :     0.0000000000
    D(254) --> V(  1) amplitude =  0.9724

 Excited state   2: excitation energy (eV) =    1.7052
 Total energy for state  2:                 -2927.82255438 au
    Multiplicity: Singlet
    Trans. Mom.:  0.0040 X  -0.0146 Y  -0.1171 Z
    Strength   :     0.0005822994
    D(254) --> V(  1) amplitude =  0.9758

 Excited state   3: excitation energy (eV) =    2.2308
 Total energy for state  3:                 -2927.80323727 au
    Multiplicity: Triplet
    Trans. Mom.:  0.0000 X   0.0000 Y   0.0000 Z
    Strength   :     0.0000000000
    D(244) --> V(  2) amplitude =  0.2447
    D(251) --> V(  1) amplitude =  0.9047

 Excited state   4: excitation energy (eV) =    2.4308
 Total energy for state  4:                 -2927.79589023 au
    Multiplicity: Triplet
    Trans. Mom.:  0.0000 X   0.0000 Y   0.0000 Z
    Strength   :     0.0000000000
    D(249) --> V(  2) amplitude =  0.4752
    D(252) --> V(  1) amplitude =  0.8067

 Excited state   5: excitation energy (eV) =    2.4741
 Total energy for state  5:                 -2927.79429897 au
    Multiplicity: Triplet
    Trans. Mom.:  0.0000 X   0.0000 Y   0.0000 Z
    Strength   :     0.0000000000
    D(253) --> V(  1) amplitude =  0.9670

 Excited state   6: excitation energy (eV) =    2.4892
 Total energy for state  6:                 -2927.79374294 au
    Multiplicity: Singlet
    Trans. Mom.:  0.0041 X  -0.0096 Y  -0.0346 Z
    Strength   :     0.0000797532
    D(253) --> V(  1) amplitude =  0.9734

 Excited state   7: excitation energy (eV) =    2.4933
 Total energy for state  7:                 -2927.79359287 au
    Multiplicity: Triplet
    Trans. Mom.:  0.0000 X   0.0000 Y   0.0000 Z
    Strength   :     0.0000000000
    D(249) --> V(  1) amplitude =  0.7394
    D(249) --> V(  4) amplitude = -0.2262
    D(252) --> V(  2) amplitude =  0.5503

 Excited state   8: excitation energy (eV) =    2.7347
 Total energy for state  8:                 -2927.78471855 au
    Multiplicity: Triplet
    Trans. Mom.:  0.0000 X   0.0000 Y   0.0000 Z
    Strength   :     0.0000000000
    D(244) --> V(  1) amplitude = -0.7056
    D(251) --> V(  2) amplitude = -0.5484

 Excited state   9: excitation energy (eV) =    2.9011
 Total energy for state  9:                 -2927.77860615 au
    Multiplicity: Singlet
    Trans. Mom.: -0.0017 X   0.0781 Y  -0.0118 Z
    Strength   :     0.0004434341
    D(251) --> V(  1) amplitude =  0.9570

 Excited state  10: excitation energy (eV) =    2.9468
 Total energy for state 10:                 -2927.77692558 au
    Multiplicity: Singlet
    Trans. Mom.:  0.0145 X  -0.0589 Y  -0.0088 Z
    Strength   :     0.0002708843
    D(254) --> V(  2) amplitude =  0.9946

 Excited state  11: excitation energy (eV) =    3.1429
 Total energy for state 11:                 -2927.76971945 au
    Multiplicity: Singlet
    Trans. Mom.: -0.0290 X  -3.9905 Y   0.3713 Z
    Strength   :     1.2367972497
    D(252) --> V(  1) amplitude =  0.9566

 Excited state  12: excitation energy (eV) =    3.3293
 Total energy for state 12:                 -2927.76286975 au
    Multiplicity: Singlet
    Trans. Mom.: -0.0014 X   0.0090 Y   0.0063 Z
    Strength   :     0.0000100923
    D(248) --> V(  1) amplitude =  0.3053
    D(254) --> V(  3) amplitude =  0.7340
    D(254) --> V(  4) amplitude =  0.5311

 ---------------------------------------------------
