 Q-Chem 5.1, Q-Chem, Inc., Pleasanton, CA (2018)
 Q-Chem 5.1.1 for Intel X86 EM64T Linux

User input:
--------------------------------------------------------------
$solvent
dielectric      4.33
dielectric_infi 1.83
$end

$rem
threads 8
jobtype	sp
method PBEh-3c
basis def2-mSVP
mem_static	1024
mem_total	14000
sym_ignore	true
cis_n_roots             2
cis_singlets            false
cis_triplets		true
rpa                     false
calc_soc 		true
cis_moments             true
cis_relaxed_density	true
solvent_method		pcm
$end

$pcm
StateSpecific   1
ChargeSeparation Excited
$end

$molecule
read ut1opt_eth.mol
$end

--------------------------------------------------------------

   22   -2927.8320851997      7.20e-09  Convergence criterion met
 Total energy in the final basis set =    -2927.8320851997

                    Orbital Energies (a.u.)
 --------------------------------------------------------------

 Alpha MOs
 -- Occupied --
-14.768 -14.664 -10.540 -10.529 -10.529 -10.488 -10.487 -10.485
-10.485 -10.484 -10.484 -10.481 -10.481 -10.478 -10.478 -10.477
-10.477 -10.475 -10.475 -10.475 -10.475 -10.474 -10.465 -10.455
-10.455 -10.452 -10.452 -10.451 -10.451 -10.451 -10.450 -10.450
-10.450 -10.450 -10.449 -10.449 -10.449 -10.449 -10.448 -10.448
-10.448 -10.444 -10.444 -10.444 -10.443 -10.442 -10.442 -10.442
-10.441 -10.441 -10.441 -10.441 -10.440 -10.440 -10.439 -10.438
-10.438 -10.438 -10.437 -10.437 -10.437 -10.435 -10.435 -10.434
-10.434 -10.427 -10.427 -10.415 -10.415 -10.413 -10.413 -10.410
-10.409 -10.407  -6.905  -6.902  -1.157  -1.074  -1.003  -1.002
 -0.999  -0.997  -0.976  -0.956  -0.952  -0.945  -0.943  -0.932
 -0.922  -0.921  -0.903  -0.900  -0.890  -0.886  -0.883  -0.872
 -0.872  -0.862  -0.852  -0.846  -0.841  -0.839  -0.836  -0.835
 -0.835  -0.833  -0.832  -0.806  -0.801  -0.798  -0.793  -0.793
 -0.787  -0.786  -0.756  -0.754  -0.751  -0.742  -0.720  -0.719
 -0.717  -0.714  -0.710  -0.706  -0.701  -0.699  -0.676  -0.676
 -0.674  -0.671  -0.670  -0.666  -0.659  -0.650  -0.639  -0.635
 -0.634  -0.630  -0.630  -0.626  -0.601  -0.598  -0.587  -0.586
 -0.582  -0.582  -0.580  -0.579  -0.576  -0.570  -0.562  -0.561
 -0.556  -0.555  -0.554  -0.545  -0.543  -0.535  -0.529  -0.529
 -0.528  -0.525  -0.518  -0.515  -0.514  -0.514  -0.513  -0.508
 -0.503  -0.501  -0.495  -0.493  -0.492  -0.491  -0.489  -0.488
 -0.482  -0.480  -0.478  -0.477  -0.476  -0.476  -0.474  -0.474
 -0.473  -0.472  -0.469  -0.467  -0.464  -0.461  -0.460  -0.455
 -0.454  -0.452  -0.451  -0.450  -0.450  -0.445  -0.445  -0.441
 -0.436  -0.435  -0.431  -0.429  -0.429  -0.429  -0.426  -0.422
 -0.421  -0.416  -0.414  -0.412  -0.411  -0.409  -0.406  -0.401
 -0.397  -0.397  -0.393  -0.390  -0.387  -0.387  -0.386  -0.383
 -0.379  -0.376  -0.374  -0.360  -0.359  -0.354  -0.350  -0.340
 -0.337  -0.336  -0.333  -0.325  -0.323  -0.315  -0.312  -0.311
 -0.305  -0.300  -0.296  -0.291  -0.289  -0.288  -0.275  -0.274
 -0.271  -0.266  -0.256  -0.246  -0.243  -0.215  -0.153

 Beta MOs
 -- Occupied --
-14.758 -14.664 -10.540 -10.531 -10.530 -10.488 -10.487 -10.483
-10.483 -10.482 -10.482 -10.482 -10.482 -10.476 -10.476 -10.476
-10.476 -10.476 -10.476 -10.476 -10.476 -10.474 -10.460 -10.456
-10.456 -10.452 -10.452 -10.451 -10.451 -10.451 -10.450 -10.450
-10.450 -10.449 -10.449 -10.449 -10.448 -10.448 -10.448 -10.447
-10.447 -10.444 -10.444 -10.444 -10.443 -10.442 -10.441 -10.441
-10.441 -10.441 -10.441 -10.440 -10.440 -10.440 -10.439 -10.438
-10.438 -10.437 -10.437 -10.437 -10.437 -10.436 -10.435 -10.434
-10.434 -10.427 -10.427 -10.415 -10.415 -10.412 -10.412 -10.409
-10.408 -10.407  -6.903  -6.899  -1.141  -1.074  -1.002  -1.002
 -0.996  -0.994  -0.971  -0.956  -0.952  -0.944  -0.942  -0.932
 -0.921  -0.921  -0.902  -0.895  -0.888  -0.885  -0.882  -0.871
 -0.870  -0.861  -0.851  -0.846  -0.839  -0.838  -0.835  -0.834
 -0.833  -0.832  -0.829  -0.803  -0.799  -0.797  -0.793  -0.789
 -0.785  -0.782  -0.755  -0.754  -0.746  -0.739  -0.718  -0.716
 -0.715  -0.713  -0.709  -0.705  -0.701  -0.699  -0.676  -0.675
 -0.672  -0.669  -0.669  -0.665  -0.656  -0.648  -0.637  -0.634
 -0.633  -0.630  -0.630  -0.623  -0.601  -0.595  -0.583  -0.583
 -0.580  -0.579  -0.579  -0.574  -0.570  -0.569  -0.560  -0.560
 -0.555  -0.553  -0.551  -0.543  -0.543  -0.535  -0.528  -0.528
 -0.527  -0.523  -0.516  -0.514  -0.513  -0.513  -0.513  -0.506
 -0.502  -0.496  -0.493  -0.492  -0.491  -0.491  -0.488  -0.487
 -0.481  -0.478  -0.476  -0.476  -0.476  -0.474  -0.473  -0.473
 -0.472  -0.469  -0.467  -0.466  -0.461  -0.460  -0.459  -0.454
 -0.454  -0.451  -0.450  -0.449  -0.446  -0.444  -0.441  -0.439
 -0.435  -0.433  -0.429  -0.429  -0.428  -0.427  -0.425  -0.422
 -0.418  -0.416  -0.412  -0.411  -0.408  -0.407  -0.406  -0.399
 -0.397  -0.393  -0.390  -0.386  -0.385  -0.384  -0.382  -0.378
 -0.376  -0.374  -0.370  -0.357  -0.352  -0.350  -0.350  -0.336
 -0.335  -0.328  -0.327  -0.322  -0.321  -0.305  -0.305  -0.300
 -0.300  -0.297  -0.296  -0.291  -0.286  -0.285  -0.274  -0.266
 -0.263  -0.248  -0.243  -0.235  -0.215

          Ground-State Mulliken Net Atomic Charges

     Atom                 Charge (a.u.)    Spin (a.u.)
  --------------------------------------------------------
      1 N                    -0.578066       0.366055
      2 C                     0.345880       0.011086
      3 C                    -0.358183       0.164581
      4 H                     0.289411      -0.008401
      5 C                     0.053026      -0.124100
      6 C                    -0.359022       0.164229
      7 H                     0.288977      -0.008426
      8 C                     0.050905      -0.123327
      9 C                     0.253284      -0.071415
     10 C                    -0.257094       0.097012
     11 H                     0.290751      -0.004963
     12 C                    -0.238496      -0.066900
     13 H                     0.270787       0.003662
     14 C                    -0.230903       0.107345
     15 H                     0.268778      -0.005877
     16 C                    -0.237186      -0.062318
     17 H                     0.269493       0.003224
     18 C                    -0.260417       0.092397
     19 H                     0.285249      -0.004800
     20 C                     0.246965      -0.070300
     21 C                    -0.253671       0.096176
     22 H                     0.290839      -0.004938
     23 C                    -0.238902      -0.066187
     24 H                     0.271086       0.003657
     25 C                    -0.230425       0.105956
     26 H                     0.268841      -0.005800
     27 C                    -0.237732      -0.061217
     28 H                     0.269396       0.003160
     29 C                    -0.258889       0.090801
     30 H                     0.284933      -0.004724
     31 C                    -0.145259       0.351734
     32 C                    -0.758535       0.009787
     33 H                     0.250763       0.001028
     34 H                     0.265444      -0.004620
     35 H                     0.263818      -0.003530
     36 C                    -0.757436       0.010045
     37 H                     0.250572       0.000991
     38 H                     0.263621      -0.004554
     39 H                     0.264637      -0.003590
     40 B                     0.546006       0.331463
     41 C                    -0.137431       0.020746
     42 C                    -0.409239      -0.011839
     43 H                     0.213766      -0.001236
     44 C                     0.057627       0.038878
     45 C                     0.075923       0.092461
     46 C                    -0.408570      -0.056531
     47 H                     0.229310       0.002255
     48 C                    -0.146207       0.063087
     49 C                     0.178641      -0.044474
     50 C                    -0.405870       0.069487
     51 H                     0.233025      -0.004077
     52 C                    -0.079290       0.023431
     53 C                     0.221131      -0.037908
     54 C                     0.177232      -0.057273
     55 C                    -0.408082       0.085207
     56 H                     0.240245      -0.004974
     57 C                    -0.230007      -0.045819
     58 H                     0.243777       0.002248
     59 C                    -0.358936       0.064539
     60 H                     0.241994      -0.003747
     61 C                    -0.228518      -0.052965
     62 H                     0.246013       0.002548
     63 C                    -0.361909       0.077435
     64 H                     0.241937      -0.004538
     65 C                    -0.136196       0.023338
     66 C                    -0.405825      -0.014384
     67 H                     0.213304      -0.001398
     68 C                     0.058187       0.041813
     69 C                     0.077731       0.090932
     70 C                    -0.413269      -0.055216
     71 H                     0.227034       0.002187
     72 C                    -0.146492       0.061350
     73 C                     0.176713      -0.045539
     74 C                    -0.403645       0.071213
     75 H                     0.231949      -0.004176
     76 C                    -0.079058       0.023627
     77 C                     0.222744      -0.038336
     78 C                     0.176458      -0.057133
     79 C                    -0.409257       0.085319
     80 H                     0.240779      -0.004978
     81 C                    -0.230960      -0.046796
     82 H                     0.243238       0.002294
     83 C                    -0.359528       0.066429
     84 H                     0.241820      -0.003863
     85 C                    -0.227891      -0.053251
     86 H                     0.246173       0.002564
     87 C                    -0.363161       0.077715
     88 H                     0.241858      -0.004555
     89 B                     0.563737       0.276355
     90 C                    -0.185637      -0.023981
     91 C                     0.034358       0.003139
     92 C                    -0.365505      -0.000787
     93 H                     0.239454       0.000342
     94 C                     0.278237       0.000641
     95 C                    -0.364288      -0.000816
     96 H                     0.239268       0.000337
     97 C                     0.033366       0.003051
     98 N                    -0.670696       0.000012
     99 C                     0.307585      -0.000014
    100 C                    -0.300125       0.000031
    101 H                     0.258631      -0.000002
    102 C                    -0.239240      -0.000025
    103 H                     0.243561       0.000001
    104 C                    -0.268329       0.000034
    105 H                     0.240140      -0.000002
    106 C                    -0.237891      -0.000025
    107 H                     0.244025       0.000002
    108 C                    -0.304309       0.000032
    109 H                     0.260299      -0.000002
    110 C                     0.298550      -0.000018
    111 C                    -0.300132       0.000033
    112 H                     0.258654      -0.000002
    113 C                    -0.239813      -0.000026
    114 H                     0.244132       0.000001
    115 C                    -0.266592       0.000035
    116 H                     0.240843      -0.000002
    117 C                    -0.238031      -0.000026
    118 H                     0.244416       0.000002
    119 C                    -0.296012       0.000030
    120 H                     0.258929      -0.000002
    121 C                    -0.761738       0.000647
    122 H                     0.241294       0.001440
    123 H                     0.244330      -0.000737
    124 H                     0.243981      -0.000758
    125 C                    -0.761349       0.000573
    126 H                     0.241279       0.001450
    127 H                     0.243754      -0.000770
    128 H                     0.244350      -0.000691
  --------------------------------------------------------
  Sum of atomic charges =    -0.000000

                    Cartesian Multipole Moments
 -----------------------------------------------------------------
    Charge (ESU x 10^10)
                -0.0000
    Dipole Moment (Debye)
         X      -0.0915      Y      -1.4923      Z     -28.7241
       Tot      28.7630
    Quadrupole Moments (Debye-Ang)
        XX    -421.1365     XY       7.6314     YY    -422.0484
        XZ      -2.3499     YZ     -11.1517     ZZ    -627.6898

 Total job time:  17314.74s(wall), 62779.36s(cpu)
        *  Thank you very much for using Q-Chem.  Have a nice day.  *
 Q-Chem 5.1, Q-Chem, Inc., Pleasanton, CA (2018)
 Q-Chem 5.1.1 for Intel X86 EM64T Linux

User input:
--------------------------------------------------------------
$rem
threads 8
jobtype sp
method PBEh-3c
basis def2-mSVP
mem_static      1024
mem_total       14000
sym_ignore      true
cis_n_roots             6
cis_singlets            true
cis_triplets            true
rpa                     false
calc_soc                true
cis_moments             true
cis_relaxed_density     true
solvent_method          pcm
$end

$molecule
read
$end

$pcm
statespecific           Marcus
$end

$solvent
dielectric      4.33
dielectric_infi 1.83
$end

--------------------------------------------------------------

             Standard Nuclear Orientation (Angstroms)
    I     Atom           X                Y                Z
 ----------------------------------------------------------------
    1      N       0.0000000000     0.0000000000     0.0000000000
    2      C       0.0000000000     0.0000000000     1.3667930000
    3      C       1.2201918163     0.0000000000     2.0742859459
    4      H       2.1539451703    -0.0725130933     1.5311855315
    5      C       1.2261228794     0.0402655448     3.4477750550
    6      C      -1.2173720618     0.0157567682     2.0792536159
    7      H      -2.1548171842     0.0509145458     1.5385943269
    8      C      -1.2164480072     0.0680346130     3.4524815747
    9      C      -1.0780210848    -0.5359515357    -0.7376960133
   10      C      -1.5976572535    -1.7846538009    -0.4020504947
   11      H      -1.1758560740    -2.3495937606     0.4191032077
   12      C      -2.6376406832    -2.3092507441    -1.1499698381
   13      H      -3.0364965648    -3.2825855120    -0.8986049295
   14      C      -3.1533679648    -1.6002735518    -2.2266987097
   15      H      -3.9639934789    -2.0166950056    -2.8095601145
   16      C      -2.6255837835    -0.3586215798    -2.5596471818
   17      H      -3.0297450635     0.1979320354    -3.3942872332
   18      C      -1.5857537088     0.1775624564    -1.8221837682
   19      H      -1.1822855325     1.1494241548    -2.0751833481
   20      C       1.0749027042     0.5567488568    -0.7285967737
   21      C       1.5745060133     1.8103352120    -0.3809469977
   22      H       1.1370130456     2.3638992319     0.4397465533
   23      C       2.6127564555     2.3542597450    -1.1176032394
   24      H       2.9968284696     3.3307405050    -0.8560404113
   25      C       3.1464741405     1.6587715804    -2.1945453709
   26      H       3.9567578088     2.0887760086    -2.7678427380
   27      C       2.6360557827     0.4134779356    -2.5412316686
   28      H       3.0529437391    -0.1313133104    -3.3774681475
   29      C       1.5974206216    -0.1411536511    -1.8158167349
   30      H       1.2051978408    -1.1146099311    -2.0798180084
   31      C       0.0069631940     0.0992322599     4.1694320522
   32      C      -2.5135938002     0.1282992301     4.1987658202
   33      H      -3.3680607472     0.1152920083     3.5232803314
   34      H      -2.5721656439     1.0314028177     4.8079217677
   35      H      -2.6055015705    -0.7175274333     4.8818702115
   36      C       2.5266577392     0.0179842678     4.1904818097
   37      H       3.3755864564    -0.0454456966     3.5111769543
   38      H       2.5713033703    -0.8295558603     4.8756322680
   39      H       2.6408034183     0.9182188491     4.7963732277
   40      B       0.0068988885     0.2330821578     5.7465904711
   41      C      -0.0266712108    -1.0138698316     6.6249169774
   42      C      -0.0487102507    -2.3033462554     6.0522049315
   43      H      -0.0367570402    -2.4150091080     4.9712165829
   44      C      -0.0868437564    -3.4194373144     6.8477278023
   45      C      -0.1017768058    -3.2911235786     8.2692041253
   46      C      -0.0787410054    -2.0424576238     8.8443501395
   47      H      -0.0900302120    -1.9433028242     9.9245571135
   48      C      -0.0414731150    -0.8792723801     8.0480813613
   49      C      -0.1200188554    -4.8422665141     6.5157213559
   50      C      -0.1223090408    -5.5752716409     5.3536182812
   51      H      -0.0945340709    -5.1035646832     4.3785776758
   52      C      -0.1541787595    -5.5304447462     7.7454111725
   53      C      -0.1907912296    -6.9184548482     7.8613629991
   54      C      -0.1437574551    -4.6376957901     8.8378886018
   55      C      -0.1703760489    -5.1658348848    10.1054044193
   56      H      -0.1639313655    -4.5358921010    10.9860671839
   57      C      -0.1606843115    -6.9862304188     5.4426392166
   58      H      -0.1627884935    -7.5622558916     4.5255000734
   59      C      -0.1937577868    -7.6506491840     6.6480124786
   60      H      -0.2219883320    -8.7335788135     6.6675110882
   61      C      -0.2077317848    -6.5726183923    10.2537636388
   62      H      -0.2288386792    -6.9846788053    11.2546549791
   63      C      -0.2180497500    -7.4341845935     9.1801702544
   64      H      -0.2462852936    -8.5049108809     9.3429426854
   65      C       0.0246659377     1.6244419687     6.3802375800
   66      C       0.0506308171     2.7815242005     5.5750079367
   67      H       0.0628869162     2.6840006423     4.4930021843
   68      C       0.0582607768     4.0292752608     6.1429590451
   69      C       0.0424140868     4.1780340639     7.5617075097
   70      C       0.0166760589     3.0596113171     8.3638395632
   71      H       0.0021891958     3.1655028432     9.4439053954
   72      C       0.0073930883     1.7649393569     7.8035790595
   73      C       0.0775951908     5.3565332441     5.5402554873
   74      C       0.0931500779     5.8391222048     4.2546536288
   75      H       0.0941333873     5.1788350051     3.3954262685
   76      C       0.0760027748     6.2739226542     6.6102059712
   77      C       0.0904844606     7.6563581773     6.4480036244
   78      C       0.0556062932     5.6109455217     7.8562863578
   79      C       0.0507520531     6.3779226175     8.9948897689
   80      H       0.0344688014     5.9326271601     9.9818042056
   81      C       0.1080183837     7.2394883285     4.0619357397
   82      H       0.1199910775     7.6229415721     3.0492332598
   83      C       0.1070903912     8.1302987757     5.1122082640
   84      H       0.1183083918     9.1955534062     4.9156288854
   85      C       0.0673546818     7.7869506487     8.8623856670
   86      H       0.0644773358     8.3874008027     9.7631693833
   87      C       0.0858671038     8.4213216173     7.6403817108
   88      H       0.0974295658     9.5033453499     7.5914341842
   89      B      -0.0214507911     0.5151905663     8.7002419817
   90      C      -0.0296363388     0.6324285926    10.2778997389
   91      C      -1.2375192398     0.6468563366    10.9869534890
   92      C      -1.2385139341     0.6851200617    12.3765604248
   93      H      -2.1810186442     0.6751929985    12.9124826000
   94      C      -0.0445779600     0.7368059641    13.0835571405
   95      C       1.1576211103     0.7452255522    12.3871409555
   96      H       2.0926905249     0.7914671229    12.9339744811
   97      C       1.1712814137     0.6797521307    10.9987470102
   98      N      -0.0515875919     0.7726785868    14.4965054563
   99      C       0.7211844568    -0.1512621852    15.2114516894
  100      C       1.3135226533     0.2017330498    16.4255951813
  101      H       1.1757355825     1.1997537671    16.8215742668
  102      C       2.0808352104    -0.7174114858    17.1224288913
  103      H       2.5319269928    -0.4246889685    18.0620127613
  104      C       2.2922838956    -1.9934668209    16.6174684781
  105      H       2.9009936246    -2.7047641963    17.1597573607
  106      C       1.7135820333    -2.3426065020    15.4050136619
  107      H       1.8635128864    -3.3342527467    14.9970205412
  108      C       0.9274830951    -1.4381915747    14.7102810772
  109      H       0.4737093113    -1.7305919241    13.7721082999
  110      C      -0.9406711070     1.6402779019    15.1474226387
  111      C      -1.6760663259     1.2232508023    16.2572766915
  112      H      -1.5554261784     0.2168011706    16.6370431728
  113      C      -2.5706162505     2.0880107771    16.8683564580
  114      H      -3.1356772725     1.7447738479    17.7256346350
  115      C      -2.7633081279     3.3716824233    16.3769628281
  116      H      -3.4710728576     4.0395490646    16.8498311154
  117      C      -2.0384327564     3.7857425724    15.2672179480
  118      H      -2.1744456448     4.7841221771    14.8712021134
  119      C      -1.1285097927     2.9354993154    14.6616369009
  120      H      -0.5669475596     3.2709166766    13.7988534202
  121      C       2.4824558345     0.6646272911    10.2628951155
  122      H       3.3305767716     0.7204105974    10.9452268830
  123      H       2.5564994507     1.5014875846     9.5656359617
  124      H       2.5907800911    -0.2462941679     9.6698198079
  125      C      -2.5438329793     0.5920927868    10.2432385805
  126      H      -3.3958527813     0.6403652719    10.9211837660
  127      H      -2.6324587215     1.4191738556     9.5360064290
  128      H      -2.6319363274    -0.3275887842     9.6608692209
 ----------------------------------------------------------------

   29   -2927.8135664682      8.49e-09  Convergence criterion met
 Total energy in the final basis set =    -2927.8135664682

         TDDFT/TDA Excitation Energies
 ---------------------------------------------------

 Excited state   1: excitation energy (eV) =    0.1031
 Total energy for state  1:                 -2927.80977646 au
    <S**2>     :  2.0680
    Trans. Mom.: -0.0549 X   0.3983 Y   7.9790 Z
    Strength   :     0.1612665634
    D(253) --> S(  1) amplitude =  0.9887 beta

 Excited state   2: excitation energy (eV) =    0.7020
 Total energy for state  2:                 -2927.78776989 au
    <S**2>     :  2.0636
    Trans. Mom.:  0.0034 X   0.0140 Y   0.0059 Z
    Strength   :     0.0000041840
    D(252) --> S(  1) amplitude =  0.9967 beta

 Excited state   3: excitation energy (eV) =    1.0075
 Total energy for state  3:                 -2927.77654104 au
    <S**2>     :  2.0580
    Trans. Mom.:  0.0097 X   0.0290 Y   0.0294 Z
    Strength   :     0.0000444169
    D(251) --> S(  1) amplitude =  0.9921 beta

 Excited state   4: excitation energy (eV) =    1.1711
 Total energy for state  4:                 -2927.77053089 au
    <S**2>     :  2.0560
    Trans. Mom.:  0.0003 X   0.0096 Y   0.0242 Z
    Strength   :     0.0000194146
    D(250) --> S(  1) amplitude =  0.9918 beta

 Excited state   5: excitation energy (eV) =    1.4547
 Total energy for state  5:                 -2927.76010625 au
    <S**2>     :  2.0673
    Trans. Mom.:  0.1186 X  -0.0902 Y   0.0119 Z
    Strength   :     0.0007963560
    D(249) --> S(  1) amplitude =  0.9966 beta

 Excited state   6: excitation energy (eV) =    1.4838
 Total energy for state  6:                 -2927.75903760 au
    <S**2>     :  2.0616
    Trans. Mom.: -0.0011 X  -0.0259 Y   0.0356 Z
    Strength   :     0.0000706582
    D(247) --> S(  1) amplitude =  0.2226 beta
    D(248) --> S(  1) amplitude =  0.9702 beta

 ---------------------------------------------------
