 Q-Chem 5.1, Q-Chem, Inc., Pleasanton, CA (2018)
 Q-Chem 5.1.1 for Intel X86 EM64T Linux

User input:
--------------------------------------------------------------
$solvent
dielectric      2.38
dielectric_infi 2.25
$end

$rem
threads 8
jobtype	sp
method PBEh-3c
basis def2-mSVP
mem_static	1024
mem_total	14000
sym_ignore	true
cis_n_roots             2
cis_singlets            false
cis_triplets		true
rpa                     false
calc_soc 		true
cis_moments             true
cis_relaxed_density	true
solvent_method		pcm
$end

$pcm
StateSpecific   1
ChargeSeparation Excited
$end

$molecule
read ut1opt_tol.mol
$end

--------------------------------------------------------------

   22   -2927.8188173058      8.85e-09  Convergence criterion met
 Total energy in the final basis set =    -2927.8188173058
 Total job time:  17171.42s(wall), 63074.76s(cpu)
        *  Thank you very much for using Q-Chem.  Have a nice day.  *
 Q-Chem 5.1, Q-Chem, Inc., Pleasanton, CA (2018)
 Q-Chem 5.1.1 for Intel X86 EM64T Linux

User input:
--------------------------------------------------------------
$rem
threads 8
jobtype sp
method PBEh-3c
basis def2-mSVP
mem_static      1024
mem_total       14000
sym_ignore      true
cis_n_roots             6
cis_singlets            true
cis_triplets            true
rpa                     false
calc_soc                true
cis_moments             true
cis_relaxed_density     true
solvent_method          pcm
$end

$molecule
read
$end

$pcm
statespecific           Marcus
$end

$solvent
dielectric      2.38
dielectric_infi 2.25
$end

--------------------------------------------------------------

             Standard Nuclear Orientation (Angstroms)
    I     Atom           X                Y                Z
 ----------------------------------------------------------------
    1      N       0.0000000000     0.0000000000     0.0000000000
    2      C       0.0000000000     0.0000000000     1.3645800000
    3      C       1.2208932533     0.0000000000     2.0740417198
    4      H       2.1546512709    -0.0700429520     1.5307945914
    5      C       1.2266754320     0.0364105079     3.4461275199
    6      C      -1.2187632479     0.0128817992     2.0778633707
    7      H      -2.1556117540     0.0470720902     1.5362689096
    8      C      -1.2193818580     0.0619923463     3.4496854462
    9      C      -1.0873783256    -0.5203005982    -0.7388590735
   10      C      -1.6123783759    -1.7690888568    -0.4154101849
   11      H      -1.1914719606    -2.3437315250     0.3995162633
   12      C      -2.6595306539    -2.2795712956    -1.1634250319
   13      H      -3.0638259835    -3.2525752501    -0.9196439599
   14      C      -3.1758826746    -1.5564615645    -2.2297821073
   15      H      -3.9918249568    -1.9615502546    -2.8130997769
   16      C      -2.6419298458    -0.3150081744    -2.5515015076
   17      H      -3.0459114144     0.2525700016    -3.3787613726
   18      C      -1.5957466993     0.2071882417    -1.8125075550
   19      H      -1.1853595463     1.1781390058    -2.0579162764
   20      C       1.0840414579     0.5368823981    -0.7327720659
   21      C       1.5981275524    -0.1759287771    -1.8133775093
   22      H       1.1913232100    -1.1451012894    -2.0709919793
   23      C       2.6441353869     0.3589200201    -2.5432903469
   24      H       3.0535020350    -0.1979655867    -3.3752481374
   25      C       3.1712651063     1.5995327506    -2.2068639879
   26      H       3.9877381131     2.0137647776    -2.7828661603
   27      C       2.6461351407     2.3104218023    -1.1363801506
   28      H       3.0437094974     3.2832569868    -0.8815354795
   29      C       1.5995245736     1.7865559826    -0.3967200843
   30      H       1.1706551359     2.3513806476     0.4208465665
   31      C       0.0053579097     0.0927039725     4.1688792519
   32      C      -2.5142827345     0.1202290356     4.1982042396
   33      H      -3.3708117831     0.1044493203     3.5253057243
   34      H      -2.5713379139     1.0235804905     4.8070559407
   35      H      -2.6005886521    -0.7239889233     4.8839667063
   36      C       2.5239496265     0.0117703831     4.1926239929
   37      H       3.3759310545    -0.0493282389     3.5168321559
   38      H       2.5643288546    -0.8373316143     4.8760362738
   39      H       2.6336107620     0.9094479436     4.8030377863
   40      B       0.0036087024     0.2199383612     5.7452909872
   41      C      -0.0298897608    -1.0326364584     6.6134336065
   42      C      -0.0483505930    -2.3194042822     6.0343438195
   43      H      -0.0330558626    -2.4263784594     4.9527104579
   44      C      -0.0870674545    -3.4389071119     6.8240375824
   45      C      -0.1064912379    -3.3174660258     8.2454399757
   46      C      -0.0865887389    -2.0715808914     8.8266087379
   47      H      -0.1008920158    -1.9763052072     9.9070537722
   48      C      -0.0486598746    -0.9051063430     8.0364492666
   49      C      -0.1168807245    -4.8602605719     6.4850421354
   50      C      -0.1141606482    -5.5877719594     5.3200115770
   51      H      -0.0835377283    -5.1112035750     4.3474133043
   52      C      -0.1539943403    -5.5543770643     7.7109545183
   53      C      -0.1889037751    -6.9426334865     7.8201784246
   54      C      -0.1484507513    -4.6665720031     8.8072650206
   55      C      -0.1786614264    -5.2008227790    10.0716660822
   56      H      -0.1763620763    -4.5747865707    10.9550191649
   57      C      -0.1506110112    -6.9988601611     5.4017756502
   58      H      -0.1485682225    -7.5707926108     4.4820465785
   59      C      -0.1867224913    -7.6686868235     6.6035883487
   60      H      -0.2132948149    -8.7517321338     6.6176894078
   61      C      -0.2144424061    -6.6080261318    10.2134137641
   62      H      -0.2384576500    -7.0247664061    11.2122804211
   63      C      -0.2198013351    -7.4644014817     9.1362344337
   64      H      -0.2469757191    -8.5358536829     9.2941519968
   65      C       0.0179981692     1.6083386594     6.3819652293
   66      C       0.0432395484     2.7698347098     5.5829492983
   67      H       0.0570608166     2.6784616230     4.5001938160
   68      C       0.0481739256     4.0139780356     6.1573981576
   69      C       0.0305911257     4.1549477051     7.5764097392
   70      C       0.0045885959     3.0321496635     8.3723021467
   71      H      -0.0122006036     3.1306109987     9.4529610237
   72      C      -0.0023953312     1.7411666486     7.8052886362
   73      C       0.0659780906     5.3445722709     5.5619261351
   74      C       0.0809902924     5.8344660070     4.2795289420
   75      H       0.0825045557     5.1786769220     3.4168517919
   76      C       0.0625352879     6.2560741172     6.6365186904
   77      C       0.0752428089     7.6390668111     6.4819545732
   78      C       0.0419436154     5.5859111995     7.8785596263
   79      C       0.0355322855     6.3466320552     9.0208726010
   80      H       0.0191966585     5.8956080448    10.0050856754
   81      C       0.0938755362     7.2354466892     4.0941343881
   82      H       0.1052120570     7.6248137698     3.0836482264
   83      C       0.0916090422     8.1200620939     5.1490969853
   84      H       0.1013096266     9.1863555103     4.9582175121
   85      C       0.0506307143     7.7560779306     8.8963322378
   86      H       0.0466007184     8.3514828555     9.8004375374
   87      C       0.0690434241     8.3971928602     7.6783599689
   88      H       0.0792998939     9.4794623671     7.6356875118
   89      B      -0.0323510603     0.4865015060     8.6952300232
   90      C      -0.0458381921     0.5961361850    10.2727904941
   91      C      -1.2560519200     0.6043768419    10.9773917945
   92      C      -1.2614507750     0.6372242439    12.3667790790
   93      H      -2.2050817899     0.6232985585    12.9004719065
   94      C      -0.0699448856     0.6901456594    13.0773781325
   95      C       1.1344061041     0.7043678948    12.3852544094
   96      H       2.0670904192     0.7507587576    12.9359623251
   97      C       1.1526854549     0.6437855961    10.9969868721
   98      N      -0.0820781834     0.7217062157    14.4906507088
   99      C       0.6919594606    -0.2008225642    15.2052283886
  100      C       1.2775510988     0.1496998354    16.4231916678
  101      H       1.1330577601     1.1455886042    16.8219007736
  102      C       2.0458348939    -0.7686358028    17.1193375762
  103      H       2.4915741086    -0.4776994698    18.0619911528
  104      C       2.2653855495    -2.0412749921    16.6102886903
  105      H       2.8750517862    -2.7519666039    17.1521854180
  106      C       1.6939247733    -2.3876845826    15.3939886722
  107      H       1.8508756216    -3.3766650548    14.9822802094
  108      C       0.9068252638    -1.4844712200    14.6996591686
  109      H       0.4590592815    -1.7735335232    13.7577021964
  110      C      -0.9720541832     1.5882192729    15.1406722449
  111      C      -1.7037419731     1.1725991076    16.2534189533
  112      H      -1.5783899181     0.1676826021    16.6355013625
  113      C      -2.5994880148     2.0362211854    16.8635430665
  114      H      -3.1615654067     1.6937798306    17.7230650558
  115      C      -2.7975962891     3.3173660177    16.3687486766
  116      H      -3.5065548726     3.9843557378    16.8409422540
  117      C      -2.0767943927     3.7298711106    15.2562090758
  118      H      -2.2174320977     4.7262835197    14.8569575555
  119      C      -1.1656259718     2.8811364580    14.6513062466
  120      H      -0.6077019454     3.2143537014    13.7854784085
  121      C       2.4652072268     0.6342883578    10.2637416804
  122      H       3.3120128285     0.6862867353    10.9480335790
  123      H       2.5397166709     1.4756132800     9.5719356728
  124      H       2.5748890331    -0.2729248103     9.6653148858
  125      C      -2.5589250905     0.5496249756    10.2278737008
  126      H      -3.4139955827     0.5921357171    10.9023824090
  127      H      -2.6464056834     1.3803467818     9.5248045455
  128      H      -2.6417491700    -0.3672458723     9.6403504797
 ----------------------------------------------------------------

   22   -2927.8174573511      9.06e-09  Convergence criterion met
 Total energy in the final basis set =    -2927.8174573511

         TDDFT/TDA Excitation Energies
 ---------------------------------------------------

 Excited state   1: excitation energy (eV) =    0.7791
 Total energy for state  1:                 -2927.78882727 au
    <S**2>     :  2.0779
    Trans. Mom.:  0.0032 X  -0.0212 Y  -0.4211 Z
    Strength   :     0.0033930865
    D(253) --> S(  1) amplitude =  0.9976 beta

 Excited state   2: excitation energy (eV) =    0.9065
 Total energy for state  2:                 -2927.78414515 au
    <S**2>     :  2.0755
    Trans. Mom.: -0.0023 X  -0.0033 Y  -0.0100 Z
    Strength   :     0.0000025737
    D(252) --> S(  1) amplitude =  0.9957 beta

 Excited state   3: excitation energy (eV) =    1.2318
 Total energy for state  3:                 -2927.77218778 au
    <S**2>     :  2.0703
    Trans. Mom.: -0.0094 X   0.0049 Y  -0.0250 Z
    Strength   :     0.0000222707
    D(251) --> S(  1) amplitude =  0.9895 beta

 Excited state   4: excitation energy (eV) =    1.3976
 Total energy for state  4:                 -2927.76609697 au
    <S**2>     :  2.0684
    Trans. Mom.: -0.0007 X   0.0798 Y  -0.0330 Z
    Strength   :     0.0002556108
    D(250) --> S(  1) amplitude =  0.9894 beta

 Excited state   5: excitation energy (eV) =    1.4385
 Total energy for state  5:                 -2927.76459202 au
    <S**2>     :  2.1392
    Trans. Mom.: -0.0748 X  -4.4028 Y   0.3865 Z
    Strength   :     0.6886311534
    S(  2) --> V(  1) amplitude =  0.9770 alpha

 Excited state   6: excitation energy (eV) =    1.6927
 Total energy for state  6:                 -2927.75525036 au
    <S**2>     :  2.0736
    Trans. Mom.: -0.0004 X   0.0192 Y   0.0140 Z
    Strength   :     0.0000234236
    D(249) --> S(  1) amplitude =  0.9946 beta

 ---------------------------------------------------

                    Orbital Energies (a.u.)
 --------------------------------------------------------------

 Alpha MOs
 -- Occupied --
-14.773 -14.658 -10.549 -10.537 -10.537 -10.492 -10.492 -10.492
-10.492 -10.487 -10.487 -10.485 -10.485 -10.484 -10.484 -10.484
-10.484 -10.483 -10.483 -10.481 -10.481 -10.471 -10.467 -10.451
-10.451 -10.449 -10.449 -10.447 -10.447 -10.447 -10.447 -10.447
-10.446 -10.446 -10.446 -10.445 -10.445 -10.445 -10.444 -10.444
-10.444 -10.439 -10.438 -10.438 -10.438 -10.438 -10.438 -10.437
-10.437 -10.437 -10.436 -10.435 -10.434 -10.434 -10.434 -10.434
-10.434 -10.434 -10.433 -10.433 -10.433 -10.433 -10.432 -10.430
-10.429 -10.420 -10.420 -10.409 -10.409 -10.409 -10.409 -10.404
-10.404 -10.400  -6.902  -6.897  -1.163  -1.068  -1.006  -1.005
 -0.998  -0.998  -0.983  -0.950  -0.946  -0.941  -0.939  -0.926
 -0.918  -0.918  -0.909  -0.906  -0.893  -0.887  -0.880  -0.880
 -0.879  -0.855  -0.846  -0.844  -0.840  -0.835  -0.835  -0.832
 -0.831  -0.827  -0.826  -0.802  -0.799  -0.797  -0.794  -0.790
 -0.787  -0.783  -0.757  -0.749  -0.749  -0.747  -0.727  -0.720
 -0.716  -0.713  -0.711  -0.702  -0.695  -0.693  -0.681  -0.677
 -0.672  -0.670  -0.666  -0.662  -0.655  -0.647  -0.646  -0.633
 -0.630  -0.627  -0.626  -0.625  -0.604  -0.596  -0.593  -0.590
 -0.588  -0.578  -0.577  -0.574  -0.572  -0.566  -0.563  -0.560
 -0.558  -0.556  -0.551  -0.549  -0.538  -0.537  -0.533  -0.529
 -0.527  -0.525  -0.523  -0.522  -0.511  -0.510  -0.509  -0.506
 -0.504  -0.500  -0.499  -0.494  -0.489  -0.487  -0.485  -0.485
 -0.484  -0.478  -0.477  -0.474  -0.472  -0.472  -0.471  -0.471
 -0.471  -0.470  -0.469  -0.465  -0.463  -0.458  -0.458  -0.457
 -0.455  -0.453  -0.452  -0.448  -0.448  -0.446  -0.443  -0.441
 -0.439  -0.438  -0.437  -0.429  -0.427  -0.423  -0.423  -0.417
 -0.416  -0.413  -0.412  -0.409  -0.408  -0.407  -0.402  -0.401
 -0.397  -0.391  -0.387  -0.385  -0.383  -0.383  -0.382  -0.380
 -0.376  -0.372  -0.369  -0.357  -0.355  -0.352  -0.348  -0.345
 -0.341  -0.339  -0.333  -0.331  -0.319  -0.318  -0.317  -0.307
 -0.300  -0.293  -0.290  -0.285  -0.285  -0.283  -0.277  -0.269
 -0.268  -0.259  -0.252  -0.241  -0.238  -0.209  -0.149

 Beta MOs
 -- Occupied --
-14.763 -14.658 -10.548 -10.538 -10.538 -10.491 -10.491 -10.490
-10.490 -10.488 -10.488 -10.485 -10.485 -10.484 -10.484 -10.484
-10.484 -10.482 -10.482 -10.481 -10.481 -10.467 -10.466 -10.452
-10.451 -10.448 -10.448 -10.448 -10.447 -10.447 -10.447 -10.447
-10.446 -10.446 -10.445 -10.445 -10.445 -10.444 -10.444 -10.444
-10.443 -10.439 -10.438 -10.438 -10.438 -10.438 -10.437 -10.437
-10.437 -10.435 -10.435 -10.435 -10.434 -10.434 -10.434 -10.434
-10.434 -10.434 -10.433 -10.433 -10.433 -10.433 -10.432 -10.431
-10.430 -10.420 -10.420 -10.409 -10.409 -10.409 -10.408 -10.404
-10.403 -10.400  -6.899  -6.895  -1.148  -1.068  -1.004  -1.001
 -0.998  -0.997  -0.978  -0.950  -0.945  -0.939  -0.938  -0.926
 -0.918  -0.917  -0.908  -0.901  -0.892  -0.885  -0.879  -0.878
 -0.878  -0.855  -0.845  -0.840  -0.838  -0.834  -0.833  -0.831
 -0.831  -0.827  -0.826  -0.799  -0.796  -0.795  -0.793  -0.787
 -0.785  -0.781  -0.752  -0.749  -0.747  -0.746  -0.724  -0.718
 -0.715  -0.711  -0.709  -0.701  -0.695  -0.693  -0.678  -0.675
 -0.671  -0.670  -0.664  -0.661  -0.652  -0.644  -0.644  -0.631
 -0.629  -0.627  -0.626  -0.625  -0.602  -0.595  -0.590  -0.584
 -0.578  -0.577  -0.576  -0.574  -0.570  -0.566  -0.560  -0.559
 -0.557  -0.554  -0.549  -0.548  -0.537  -0.536  -0.531  -0.529
 -0.525  -0.524  -0.522  -0.521  -0.510  -0.510  -0.509  -0.502
 -0.501  -0.498  -0.496  -0.492  -0.488  -0.485  -0.485  -0.483
 -0.478  -0.477  -0.474  -0.473  -0.472  -0.471  -0.471  -0.470
 -0.468  -0.468  -0.467  -0.465  -0.463  -0.457  -0.456  -0.455
 -0.452  -0.452  -0.450  -0.448  -0.447  -0.445  -0.443  -0.438
 -0.437  -0.436  -0.434  -0.429  -0.425  -0.423  -0.421  -0.416
 -0.413  -0.412  -0.411  -0.408  -0.406  -0.403  -0.401  -0.396
 -0.391  -0.387  -0.385  -0.382  -0.381  -0.380  -0.379  -0.379
 -0.375  -0.370  -0.368  -0.353  -0.348  -0.347  -0.344  -0.343
 -0.336  -0.331  -0.331  -0.323  -0.317  -0.312  -0.302  -0.300
 -0.296  -0.293  -0.290  -0.284  -0.282  -0.281  -0.268  -0.259
 -0.258  -0.244  -0.238  -0.230  -0.209

          Ground-State Mulliken Net Atomic Charges

     Atom                 Charge (a.u.)    Spin (a.u.)
  --------------------------------------------------------
      1 N                    -0.585186       0.342307
      2 C                     0.348592       0.037891
      3 C                    -0.360414       0.151817
      4 H                     0.283337      -0.007934
      5 C                     0.057086      -0.113535
      6 C                    -0.361578       0.151468
      7 H                     0.283097      -0.007949
      8 C                     0.055131      -0.112887
      9 C                     0.251127      -0.067632
     10 C                    -0.256351       0.087641
     11 H                     0.284493      -0.004525
     12 C                    -0.233769      -0.060222
     13 H                     0.265655       0.003361
     14 C                    -0.227755       0.095066
     15 H                     0.263153      -0.005230
     16 C                    -0.232422      -0.055614
     17 H                     0.263632       0.002890
     18 C                    -0.258529       0.083232
     19 H                     0.277870      -0.004370
     20 C                     0.247325      -0.067290
     21 C                    -0.257842       0.082929
     22 H                     0.277638      -0.004356
     23 C                    -0.232734      -0.055437
     24 H                     0.263489       0.002871
     25 C                    -0.227484       0.095184
     26 H                     0.263251      -0.005235
     27 C                    -0.233975      -0.060347
     28 H                     0.266183       0.003383
     29 C                    -0.253909       0.087938
     30 H                     0.284852      -0.004560
     31 C                    -0.139880       0.373225
     32 C                    -0.756155       0.009126
     33 H                     0.244090       0.001113
     34 H                     0.271159      -0.004172
     35 H                     0.269067      -0.003038
     36 C                    -0.754900       0.009410
     37 H                     0.243891       0.001066
     38 H                     0.268937      -0.004135
     39 H                     0.269986      -0.003062
     40 B                     0.545717       0.343522
     41 C                    -0.133370       0.012713
     42 C                    -0.407508      -0.003199
     43 H                     0.201219      -0.001815
     44 C                     0.064163       0.028980
     45 C                     0.081997       0.100222
     46 C                    -0.404706      -0.061803
     47 H                     0.228484       0.002571
     48 C                    -0.146500       0.070124
     49 C                     0.184827      -0.041431
     50 C                    -0.402362       0.065521
     51 H                     0.220281      -0.003879
     52 C                    -0.078050       0.023077
     53 C                     0.230172      -0.037272
     54 C                     0.183423      -0.058687
     55 C                    -0.403977       0.086553
     56 H                     0.233550      -0.005073
     57 C                    -0.222572      -0.043851
     58 H                     0.233725       0.002177
     59 C                    -0.355034       0.061205
     60 H                     0.232857      -0.003569
     61 C                    -0.220867      -0.053342
     62 H                     0.238186       0.002576
     63 C                    -0.358330       0.078448
     64 H                     0.232764      -0.004636
     65 C                    -0.132369       0.015414
     66 C                    -0.403569      -0.006112
     67 H                     0.200078      -0.001956
     68 C                     0.064551       0.032180
     69 C                     0.083883       0.099345
     70 C                    -0.409393      -0.061072
     71 H                     0.226179       0.002529
     72 C                    -0.146798       0.068975
     73 C                     0.182875      -0.042695
     74 C                    -0.399988       0.067656
     75 H                     0.218376      -0.004007
     76 C                    -0.077898       0.023408
     77 C                     0.231801      -0.037949
     78 C                     0.182669      -0.058876
     79 C                    -0.405322       0.087258
     80 H                     0.234125      -0.005112
     81 C                    -0.223458      -0.045097
     82 H                     0.232925       0.002237
     83 C                    -0.355658       0.063505
     84 H                     0.232662      -0.003710
     85 C                    -0.220201      -0.053976
     86 H                     0.238290       0.002608
     87 C                    -0.359699       0.079299
     88 H                     0.232667      -0.004687
     89 B                     0.580294       0.267551
     90 C                    -0.189129      -0.023433
     91 C                     0.039271       0.003122
     92 C                    -0.360538      -0.000775
     93 H                     0.235859       0.000335
     94 C                     0.276772       0.000660
     95 C                    -0.359394      -0.000802
     96 H                     0.235371       0.000331
     97 C                     0.038508       0.003035
     98 N                    -0.671296       0.000048
     99 C                     0.309245      -0.000024
    100 C                    -0.296128       0.000044
    101 H                     0.255055      -0.000002
    102 C                    -0.232575      -0.000033
    103 H                     0.235245       0.000002
    104 C                    -0.261407       0.000050
    105 H                     0.231881      -0.000003
    106 C                    -0.230987      -0.000035
    107 H                     0.235765       0.000002
    108 C                    -0.299167       0.000046
    109 H                     0.257268      -0.000002
    110 C                     0.300205      -0.000027
    111 C                    -0.296335       0.000046
    112 H                     0.255299      -0.000002
    113 C                    -0.233134      -0.000034
    114 H                     0.235800       0.000002
    115 C                    -0.259897       0.000050
    116 H                     0.232511      -0.000003
    117 C                    -0.231139      -0.000035
    118 H                     0.236142       0.000002
    119 C                    -0.291082       0.000044
    120 H                     0.255909      -0.000002
    121 C                    -0.760208       0.000639
    122 H                     0.237117       0.001408
    123 H                     0.244310      -0.000710
    124 H                     0.244110      -0.000741
    125 C                    -0.759789       0.000565
    126 H                     0.237217       0.001416
    127 H                     0.243703      -0.000744
    128 H                     0.244374      -0.000671
  --------------------------------------------------------
  Sum of atomic charges =    -0.000000

                    Cartesian Multipole Moments
 -----------------------------------------------------------------
    Charge (ESU x 10^10)
                -0.0000
    Dipole Moment (Debye)
         X      -0.0417      Y      -1.3395      Z     -26.6461
       Tot      26.6797
    Quadrupole Moments (Debye-Ang)
        XX    -422.0923     XY       7.3592     YY    -427.1733
        XZ      -1.7982     YZ      -9.5375     ZZ    -616.0462

 Total job time:  25823.35s(wall), 85393.68s(cpu)
        *  Thank you very much for using Q-Chem.  Have a nice day.  *
