 Q-Chem 5.1, Q-Chem, Inc., Pleasanton, CA (2018)
 Q-Chem 5.1.1 for Intel X86 EM64T Linux

User input:
--------------------------------------------------------------
$solvent
dielectric      2.03
dielectric_infi 2.02
$end

$rem
threads 8
jobtype	sp
method PBEh-3c
basis def2-mSVP
mem_static	1024
mem_total	14000
sym_ignore	true
cis_n_roots             2
cis_singlets            false
cis_triplets		true
rpa                     false
calc_soc 		true
cis_moments             true
cis_relaxed_density	true
solvent_method		pcm
$end

$pcm
StateSpecific   1
ChargeSeparation Excited
$end

$molecule
read ut1opt_chx.mol
$end

--------------------------------------------------------------

   22   -2927.8140480502      9.50e-09  Convergence criterion met
 Total energy in the final basis set =    -2927.8140480502

                    Orbital Energies (a.u.)
 --------------------------------------------------------------

 Alpha MOs
 -- Occupied --
-14.772 -14.658 -10.550 -10.537 -10.537 -10.493 -10.493 -10.492
-10.492 -10.487 -10.487 -10.486 -10.486 -10.485 -10.485 -10.485
-10.485 -10.484 -10.484 -10.481 -10.481 -10.471 -10.466 -10.450
-10.449 -10.448 -10.447 -10.446 -10.446 -10.445 -10.445 -10.445
-10.445 -10.445 -10.444 -10.444 -10.444 -10.443 -10.443 -10.443
-10.443 -10.439 -10.438 -10.438 -10.438 -10.438 -10.437 -10.436
-10.436 -10.435 -10.435 -10.434 -10.434 -10.434 -10.433 -10.433
-10.433 -10.433 -10.432 -10.432 -10.432 -10.432 -10.432 -10.428
-10.427 -10.419 -10.419 -10.408 -10.408 -10.408 -10.407 -10.403
-10.402 -10.399  -6.901  -6.896  -1.163  -1.068  -1.006  -1.006
 -0.997  -0.996  -0.984  -0.950  -0.945  -0.939  -0.937  -0.926
 -0.917  -0.916  -0.910  -0.906  -0.894  -0.885  -0.881  -0.881
 -0.877  -0.854  -0.846  -0.844  -0.840  -0.834  -0.833  -0.831
 -0.830  -0.827  -0.826  -0.801  -0.799  -0.796  -0.792  -0.790
 -0.787  -0.781  -0.758  -0.749  -0.748  -0.747  -0.728  -0.721
 -0.714  -0.711  -0.709  -0.701  -0.695  -0.693  -0.681  -0.677
 -0.671  -0.670  -0.665  -0.661  -0.655  -0.647  -0.645  -0.634
 -0.629  -0.627  -0.625  -0.624  -0.605  -0.596  -0.594  -0.590
 -0.588  -0.577  -0.576  -0.574  -0.570  -0.565  -0.563  -0.559
 -0.556  -0.556  -0.550  -0.549  -0.538  -0.537  -0.534  -0.529
 -0.527  -0.524  -0.523  -0.522  -0.510  -0.509  -0.509  -0.506
 -0.504  -0.501  -0.499  -0.494  -0.488  -0.487  -0.485  -0.485
 -0.483  -0.478  -0.476  -0.473  -0.472  -0.472  -0.471  -0.470
 -0.470  -0.468  -0.467  -0.464  -0.462  -0.459  -0.459  -0.456
 -0.454  -0.453  -0.452  -0.447  -0.446  -0.445  -0.443  -0.441
 -0.440  -0.439  -0.436  -0.429  -0.425  -0.423  -0.421  -0.416
 -0.416  -0.413  -0.412  -0.408  -0.407  -0.405  -0.402  -0.401
 -0.396  -0.391  -0.386  -0.385  -0.382  -0.381  -0.381  -0.378
 -0.375  -0.371  -0.368  -0.355  -0.353  -0.351  -0.349  -0.344
 -0.341  -0.339  -0.331  -0.331  -0.319  -0.317  -0.316  -0.305
 -0.298  -0.293  -0.290  -0.284  -0.284  -0.282  -0.277  -0.267
 -0.267  -0.259  -0.250  -0.240  -0.236  -0.208  -0.147

 Beta MOs
 -- Occupied --
-14.763 -14.658 -10.549 -10.538 -10.538 -10.492 -10.492 -10.491
-10.491 -10.488 -10.488 -10.486 -10.486 -10.485 -10.485 -10.485
-10.484 -10.483 -10.483 -10.481 -10.481 -10.466 -10.466 -10.450
-10.450 -10.447 -10.447 -10.446 -10.446 -10.446 -10.446 -10.445
-10.445 -10.445 -10.444 -10.444 -10.444 -10.443 -10.442 -10.442
-10.442 -10.439 -10.438 -10.438 -10.438 -10.438 -10.437 -10.436
-10.435 -10.435 -10.434 -10.434 -10.434 -10.433 -10.433 -10.433
-10.433 -10.433 -10.432 -10.432 -10.432 -10.431 -10.431 -10.429
-10.428 -10.419 -10.419 -10.408 -10.408 -10.407 -10.407 -10.402
-10.401 -10.399  -6.898  -6.893  -1.148  -1.068  -1.004  -1.002
 -0.996  -0.996  -0.979  -0.950  -0.945  -0.938  -0.936  -0.926
 -0.916  -0.916  -0.908  -0.901  -0.893  -0.884  -0.880  -0.879
 -0.877  -0.854  -0.845  -0.840  -0.838  -0.832  -0.832  -0.830
 -0.829  -0.827  -0.826  -0.797  -0.795  -0.794  -0.792  -0.787
 -0.785  -0.779  -0.752  -0.748  -0.747  -0.746  -0.725  -0.719
 -0.713  -0.709  -0.708  -0.700  -0.695  -0.693  -0.679  -0.676
 -0.670  -0.670  -0.664  -0.660  -0.652  -0.645  -0.643  -0.631
 -0.628  -0.626  -0.625  -0.624  -0.603  -0.595  -0.591  -0.584
 -0.579  -0.576  -0.575  -0.573  -0.569  -0.565  -0.561  -0.558
 -0.555  -0.554  -0.549  -0.548  -0.537  -0.537  -0.532  -0.528
 -0.526  -0.523  -0.523  -0.521  -0.509  -0.509  -0.508  -0.502
 -0.501  -0.498  -0.496  -0.492  -0.487  -0.485  -0.484  -0.482
 -0.478  -0.476  -0.474  -0.472  -0.472  -0.471  -0.470  -0.470
 -0.468  -0.466  -0.466  -0.463  -0.462  -0.458  -0.455  -0.454
 -0.453  -0.452  -0.451  -0.447  -0.446  -0.444  -0.443  -0.439
 -0.438  -0.435  -0.435  -0.429  -0.424  -0.422  -0.420  -0.416
 -0.413  -0.411  -0.411  -0.407  -0.405  -0.401  -0.401  -0.395
 -0.391  -0.386  -0.385  -0.381  -0.379  -0.379  -0.378  -0.378
 -0.374  -0.369  -0.367  -0.352  -0.347  -0.346  -0.344  -0.343
 -0.337  -0.332  -0.330  -0.322  -0.316  -0.312  -0.302  -0.298
 -0.294  -0.293  -0.290  -0.284  -0.280  -0.279  -0.267  -0.258
 -0.256  -0.242  -0.237  -0.229  -0.208

          Ground-State Mulliken Net Atomic Charges

     Atom                 Charge (a.u.)    Spin (a.u.)
  --------------------------------------------------------
      1 N                    -0.587290       0.335982
      2 C                     0.349835       0.044804
      3 C                    -0.360410       0.148567
      4 H                     0.281592      -0.007818
      5 C                     0.058802      -0.110819
      6 C                    -0.361614       0.148182
      7 H                     0.281401      -0.007828
      8 C                     0.056907      -0.110204
      9 C                     0.250891      -0.066603
     10 C                    -0.255586       0.085239
     11 H                     0.282471      -0.004415
     12 C                    -0.231774      -0.058519
     13 H                     0.263290       0.003285
     14 C                    -0.226123       0.091958
     15 H                     0.260678      -0.005069
     16 C                    -0.230405      -0.053949
     17 H                     0.261104       0.002810
     18 C                    -0.257272       0.080944
     19 H                     0.275517      -0.004263
     20 C                     0.247357      -0.066355
     21 C                    -0.256699       0.080769
     22 H                     0.275287      -0.004256
     23 C                    -0.230686      -0.053859
     24 H                     0.260947       0.002795
     25 C                    -0.225883       0.092202
     26 H                     0.260779      -0.005082
     27 C                    -0.231961      -0.058713
     28 H                     0.263873       0.003309
     29 C                    -0.253238       0.085626
     30 H                     0.282836      -0.004455
     31 C                    -0.139015       0.378977
     32 C                    -0.755337       0.008957
     33 H                     0.242108       0.001125
     34 H                     0.272354      -0.004046
     35 H                     0.270178      -0.002908
     36 C                    -0.754060       0.009247
     37 H                     0.241920       0.001077
     38 H                     0.270038      -0.004018
     39 H                     0.271097      -0.002922
     40 B                     0.547391       0.345189
     41 C                    -0.132573       0.011799
     42 C                    -0.406646      -0.001860
     43 H                     0.198286      -0.001915
     44 C                     0.066336       0.027590
     45 C                     0.084181       0.101196
     46 C                    -0.403594      -0.062447
     47 H                     0.226554       0.002615
     48 C                    -0.146156       0.070817
     49 C                     0.187060      -0.040967
     50 C                    -0.400893       0.064922
     51 H                     0.216475      -0.003853
     52 C                    -0.077630       0.023011
     53 C                     0.233376      -0.037162
     54 C                     0.185553      -0.058819
     55 C                    -0.402507       0.086676
     56 H                     0.230037      -0.005092
     57 C                    -0.219765      -0.043549
     58 H                     0.230363       0.002169
     59 C                    -0.353561       0.060716
     60 H                     0.229504      -0.003549
     61 C                    -0.218040      -0.053369
     62 H                     0.234934       0.002583
     63 C                    -0.356890       0.078551
     64 H                     0.229406      -0.004654
     65 C                    -0.131617       0.014310
     66 C                    -0.402507      -0.004720
     67 H                     0.197028      -0.002059
     68 C                     0.066677       0.030733
     69 C                     0.086118       0.100341
     70 C                    -0.408350      -0.061724
     71 H                     0.224321       0.002572
     72 C                    -0.146413       0.069706
     73 C                     0.185104      -0.042198
     74 C                    -0.398468       0.067008
     75 H                     0.214387      -0.003979
     76 C                    -0.077483       0.023329
     77 C                     0.234995      -0.037823
     78 C                     0.184802      -0.059002
     79 C                    -0.403894       0.087364
     80 H                     0.230781      -0.005129
     81 C                    -0.220638      -0.044769
     82 H                     0.229514       0.002228
     83 C                    -0.354161       0.062973
     84 H                     0.229313      -0.003687
     85 C                    -0.217385      -0.053988
     86 H                     0.235075       0.002614
     87 C                    -0.358263       0.079383
     88 H                     0.229314      -0.004704
     89 B                     0.584052       0.266927
     90 C                    -0.189292      -0.023263
     91 C                     0.040409       0.003102
     92 C                    -0.359179      -0.000778
     93 H                     0.233859       0.000334
     94 C                     0.275496       0.000670
     95 C                    -0.358043      -0.000804
     96 H                     0.233285       0.000330
     97 C                     0.039701       0.003013
     98 N                    -0.671312       0.000056
     99 C                     0.309458      -0.000026
    100 C                    -0.295006       0.000047
    101 H                     0.253433      -0.000002
    102 C                    -0.230292      -0.000035
    103 H                     0.232596       0.000002
    104 C                    -0.259179       0.000053
    105 H                     0.229300      -0.000003
    106 C                    -0.228615      -0.000037
    107 H                     0.233327       0.000002
    108 C                    -0.297652       0.000049
    109 H                     0.256166      -0.000002
    110 C                     0.300514      -0.000029
    111 C                    -0.295417       0.000048
    112 H                     0.253757      -0.000003
    113 C                    -0.230813      -0.000036
    114 H                     0.233157       0.000002
    115 C                    -0.257740       0.000054
    116 H                     0.229911      -0.000003
    117 C                    -0.228757      -0.000037
    118 H                     0.233668       0.000002
    119 C                    -0.289568       0.000047
    120 H                     0.254727      -0.000002
    121 C                    -0.759392       0.000652
    122 H                     0.235188       0.001412
    123 H                     0.244852      -0.000712
    124 H                     0.244611      -0.000739
    125 C                    -0.758991       0.000577
    126 H                     0.235309       0.001421
    127 H                     0.244206      -0.000748
    128 H                     0.244906      -0.000669
  --------------------------------------------------------
  Sum of atomic charges =    -0.000000

                    Cartesian Multipole Moments
 -----------------------------------------------------------------
    Charge (ESU x 10^10)
                -0.0000
    Dipole Moment (Debye)
         X      -0.0304      Y      -1.3145      Z     -26.3383
       Tot      26.3711
    Quadrupole Moments (Debye-Ang)
        XX    -422.4915     XY       7.2322     YY    -428.9236
        XZ      -1.6353     YZ      -9.3322     ZZ    -617.4988

 Total job time:  19268.67s(wall), 64339.88s(cpu)
        *  Thank you very much for using Q-Chem.  Have a nice day.  *
 Q-Chem 5.1, Q-Chem, Inc., Pleasanton, CA (2018)
 Q-Chem 5.1.1 for Intel X86 EM64T Linux

User input:
--------------------------------------------------------------
$rem
threads 8
jobtype sp
method PBEh-3c
basis def2-mSVP
mem_static      1024
mem_total       14000
sym_ignore      true
cis_n_roots             6
cis_singlets            true
cis_triplets            true
rpa                     false
calc_soc                true
cis_moments             true
cis_relaxed_density     true
solvent_method          pcm
$end

$molecule
read
$end

$pcm
statespecific           Marcus
$end

$solvent
dielectric      2.03
dielectric_infi 2.02
$end

--------------------------------------------------------------

             Standard Nuclear Orientation (Angstroms)
    I     Atom           X                Y                Z
 ----------------------------------------------------------------
    1      N       0.0000000000     0.0000000000     0.0000000000
    2      C       0.0000000000     0.0000000000     1.3640090000
    3      C       1.2211296754     0.0000000000     2.0739176673
    4      H       2.1548113119    -0.0695830846     1.5305419486
    5      C       1.2270341317     0.0356604288     3.4455734903
    6      C      -1.2191387205     0.0123621455     2.0776024174
    7      H      -2.1558325026     0.0463218388     1.5357758543
    8      C      -1.2201147461     0.0610107906     3.4489334242
    9      C      -1.0899990612    -0.5152913083    -0.7394685615
   10      C      -1.6174574686    -1.7637695372    -0.4197742137
   11      H      -1.1974746028    -2.3414448852     0.3934988548
   12      C      -2.6667767745    -2.2695057386    -1.1680613801
   13      H      -3.0733099671    -3.2421344724    -0.9265417085
   14      C      -3.1825350596    -1.5420694409    -2.2315705816
   15      H      -4.0000885518    -1.9433700632    -2.8152115881
   16      C      -2.6458730567    -0.3010863447    -2.5499183478
   17      H      -3.0491173475     0.2698880116    -3.3751945531
   18      C      -1.5978145055     0.2164190747    -1.8101624384
   19      H      -1.1846900672     1.1867845721    -2.0532960148
   20      C       1.0867519204     0.5311107289    -0.7338543510
   21      C       1.5991615751    -0.1864784279    -1.8117772051
   22      H       1.1887218576    -1.1547776810    -2.0668970622
   23      C       2.6471561363     0.3426893652    -2.5430724732
   24      H       3.0548783545    -0.2180520213    -3.3732407900
   25      C       3.1782634902     1.5824419988    -2.2103964592
   26      H       3.9964035761     1.9921623323    -2.7872219333
   27      C       2.6549318712     2.2981970331    -1.1424589865
   28      H       3.0557820822     3.2703377226    -0.8901250635
   29      C       1.6060285326     1.7800959671    -0.4018895060
   30      H       1.1791808823     2.3484447364     0.4143037105
   31      C       0.0051287552     0.0917420912     4.1687788872
   32      C      -2.5141123408     0.1192532597     4.1983874325
   33      H      -3.3714360067     0.1030738777     3.5264900406
   34      H      -2.5699994315     1.0227300470     4.8071704606
   35      H      -2.5988458146    -0.7244578190     4.8849661419
   36      C       2.5234063627     0.0105266050     4.1930563276
   37      H       3.3762192050    -0.0506424262     3.5182913177
   38      H       2.5622761183    -0.8384494925     4.8766997334
   39      H       2.6319437837     0.9079613901     4.8040401870
   40      B       0.0032517495     0.2181272996     5.7447160471
   41      C      -0.0311533016    -1.0355729579     6.6105671089
   42      C      -0.0500512484    -2.3219607019     6.0305186242
   43      H      -0.0341094932    -2.4285030794     4.9487736009
   44      C      -0.0899966849    -3.4418184222     6.8193177726
   45      C      -0.1102585359    -3.3213993923     8.2406368370
   46      C      -0.0897449306    -2.0759431076     8.8226579675
   47      H      -0.1045318384    -1.9809314066     9.9030986542
   48      C      -0.0505371416    -0.9090981613     8.0334436896
   49      C      -0.1207369189    -4.8629196119     6.4792500152
   50      C      -0.1178270560    -5.5895663189     5.3138477438
   51      H      -0.0860612240    -5.1122391091     4.3416572162
   52      C      -0.1592105223    -5.5578836209     7.7045159919
   53      C      -0.1953253898    -6.9460854906     7.8126972928
   54      C      -0.1536550491    -4.6708122790     8.8013507525
   55      C      -0.1851914105    -5.2059797146    10.0651839952
   56      H      -0.1830602941    -4.5805213313    10.9489111948
   57      C      -0.1554625820    -7.0005781160     5.3944309119
   58      H      -0.1532153114    -7.5719129398     4.4743297760
   59      C      -0.1929388818    -7.6711296653     6.5956508659
   60      H      -0.2204019845    -8.7541554341     6.6089060208
   61      C      -0.2222121778    -6.6131557613    10.2059427488
   62      H      -0.2472944843    -7.0305706198    11.2044884507
   63      C      -0.2275329949    -7.4687015155     9.1282918963
   64      H      -0.2557051474    -8.5402190396     9.2854937242
   65      C       0.0180254332     1.6060467084     6.3813313311
   66      C       0.0435370764     2.7682136634     5.5832170984
   67      H       0.0570227645     2.6778870228     4.5002913082
   68      C       0.0489850876     4.0116824476     6.1586867993
   69      C       0.0318000490     4.1513792059     7.5776542784
   70      C       0.0052270125     3.0279024077     8.3725797932
   71      H      -0.0115616481     3.1250568143     9.4533338636
   72      C      -0.0024385612     1.7376029769     7.8045471795
   73      C       0.0669463756     5.3428141900     5.5643508919
   74      C       0.0812568686     5.8338796508     4.2825502573
   75      H       0.0818558982     5.1787781633     3.4193447003
   76      C       0.0643188936     6.2533359701     6.6396465808
   77      C       0.0772963760     7.6363536916     6.4863151243
   78      C       0.0439327264     5.5819893371     7.8809912271
   79      C       0.0381977473     6.3416916023     9.0238233639
   80      H       0.0220221873     5.8897300836    10.0075781046
   81      C       0.0943852545     7.2348961735     4.0982778685
   82      H       0.1051125930     7.6252440719     3.0881603193
   83      C       0.0930298563     8.1184335345     5.1539716330
   84      H       0.1028703537     9.1848792301     4.9640032980
   85      C       0.0536976551     7.7511591654     8.9005958653
   86      H       0.0501924197     8.3457317945     9.8052389492
   87      C       0.0718216571     8.3933366747     7.6833453903
   88      H       0.0823628255     9.4756296698     7.6417058956
   89      B      -0.0335701098     0.4819972265     8.6933265946
   90      C      -0.0483066234     0.5904605427    10.2707383342
   91      C      -1.2592946354     0.5992364443    10.9738860729
   92      C      -1.2660424180     0.6310941226    12.3631544697
   93      H      -2.2100235777     0.6178465540    12.8961921288
   94      C      -0.0751787817     0.6825667786    13.0748380450
   95      C       1.1298667022     0.6960919473    12.3841434583
   96      H       2.0618154413     0.7410414113    12.9361575585
   97      C       1.1495294688     0.6363988167    10.9959303842
   98      N      -0.0887251822     0.7130783690    14.4882318495
   99      C       0.6820246806    -0.2122510461    15.2024775685
  100      C       1.2662587686     0.1346328511    16.4220932589
  101      H       1.1230359103     1.1300909836    16.8222493857
  102      C       2.0313194635    -0.7865986845    17.1177256585
  103      H       2.4760082856    -0.4984214819    18.0617081442
  104      C       2.2491390281    -2.0586117895    16.6066857355
  105      H       2.8563678089    -2.7715880452    17.1482721572
  106      C       1.6792631663    -2.4013347360    15.3887311845
  107      H       1.8350676865    -3.3897530892    14.9752805448
  108      C       0.8953401987    -1.4952588940    14.6947729375
  109      H       0.4488590832    -1.7811237909    13.7512660400
  110      C      -0.9768739751     1.5815997084    15.1377270118
  111      C      -1.7089206105     1.1685620159    16.2511789981
  112      H      -1.5849723046     0.1638722249    16.6342293699
  113      C      -2.6030069225     2.0342869355    16.8605115889
  114      H      -3.1653703588     1.6937056835    17.7205690030
  115      C      -2.7992399145     3.3150751237    16.3643960972
  116      H      -3.5069777867     3.9837422699    16.8360000069
  117      C      -2.0781655413     3.7250091295    15.2512251661
  118      H      -2.2174193537     4.7211292951    14.8507963040
  119      C      -1.1686319852     2.8742454022    14.6470056346
  120      H      -0.6105888109     3.2052192074    13.7804469135
  121      C       2.4624514437     0.6258471823    10.2634800812
  122      H       3.3089132400     0.6773676808    10.9482253818
  123      H       2.5378826762     1.4669652997     9.5715572254
  124      H       2.5717024641    -0.2816380419     9.6653925558
  125      C      -2.5611414773     0.5460095461    10.2225512373
  126      H      -3.4171140551     0.5900647658    10.8958171363
  127      H      -2.6463534571     1.3766069234     9.5190783130
  128      H      -2.6443674377    -0.3710362074     9.6353522988
 ----------------------------------------------------------------

   22   -2927.8139177007      9.52e-09  Convergence criterion met
 Total energy in the final basis set =    -2927.8139177007

         TDDFT/TDA Excitation Energies
 ---------------------------------------------------

 Excited state   1: excitation energy (eV) =    0.7520
 Total energy for state  1:                 -2927.78628386 au
    <S**2>     :  2.0770
    Trans. Mom.:  0.0037 X  -0.0223 Y  -0.4462 Z
    Strength   :     0.0036780606
    D(253) --> S(  1) amplitude =  0.9975 beta

 Excited state   2: excitation energy (eV) =    0.8403
 Total energy for state  2:                 -2927.78303892 au
    <S**2>     :  2.0744
    Trans. Mom.:  0.0026 X   0.0065 Y   0.0104 Z
    Strength   :     0.0000032134
    D(252) --> S(  1) amplitude =  0.9956 beta

 Excited state   3: excitation energy (eV) =    1.1723
 Total energy for state  3:                 -2927.77083724 au
    <S**2>     :  2.0693
    Trans. Mom.:  0.0097 X   0.0062 Y   0.0246 Z
    Strength   :     0.0000211778
    D(251) --> S(  1) amplitude =  0.9893 beta

 Excited state   4: excitation energy (eV) =    1.3386
 Total energy for state  4:                 -2927.76472327 au
    <S**2>     :  2.0674
    Trans. Mom.:  0.0015 X  -0.0199 Y   0.0295 Z
    Strength   :     0.0000414976
    D(250) --> S(  1) amplitude =  0.9894 beta

 Excited state   5: excitation energy (eV) =    1.4527
 Total energy for state  5:                 -2927.76053197 au
    <S**2>     :  2.1400
    Trans. Mom.:  0.0761 X   4.3359 Y  -0.3766 Z
    Strength   :     0.6743628392
    S(  2) --> V(  1) amplitude =  0.9763 alpha

 Excited state   6: excitation energy (eV) =    1.6279
 Total energy for state  6:                 -2927.75409418 au
    <S**2>     :  2.0725
    Trans. Mom.:  0.0001 X  -0.0264 Y  -0.0183 Z
    Strength   :     0.0000412003
    D(249) --> S(  1) amplitude =  0.9946 beta

 ---------------------------------------------------
