 Q-Chem 5.1, Q-Chem, Inc., Pleasanton, CA (2018)
 Q-Chem 5.1.1 for Intel X86 EM64T Linux

User input:
--------------------------------------------------------------
$solvent
dielectric      4.33
dielectric_infi 1.83
$end

$rem
threads 8
jobtype	sp
method PBEh-3c
basis def2-mSVP
mem_static	1024
mem_total	14000
sym_ignore	true
cis_n_roots             2
cis_singlets            false
cis_triplets		true
rpa                     false
calc_soc 		true
cis_moments             true
cis_relaxed_density	true
solvent_method		pcm
$end

$pcm
StateSpecific   1
ChargeSeparation Excited
$end

$molecule
read ut1opt_eth.mol
$end

--------------------------------------------------------------

   14   -2927.8928413273      9.03e-09  Convergence criterion met
 Total energy in the final basis set =    -2927.8928413273
 Total job time:  11994.62s(wall), 35331.75s(cpu)
        *  Thank you very much for using Q-Chem.  Have a nice day.  *
 Q-Chem 5.1, Q-Chem, Inc., Pleasanton, CA (2018)
 Q-Chem 5.1.1 for Intel X86 EM64T Linux

User input:
--------------------------------------------------------------
$rem
threads 8
jobtype sp
method PBEh-3c
basis def2-mSVP
mem_static      1024
mem_total       14000
sym_ignore      true
cis_n_roots             6
cis_singlets            true
cis_triplets            true
rpa                     false
calc_soc                true
cis_moments             true
cis_relaxed_density     true
solvent_method          pcm
$end

$molecule
read
$end

$pcm
statespecific           Marcus
$end

$solvent
dielectric      4.33
dielectric_infi 1.83
$end

--------------------------------------------------------------

             Standard Nuclear Orientation (Angstroms)
    I     Atom           X                Y                Z
 ----------------------------------------------------------------
    1      N       0.0000000000     0.0000000000     0.0000000000
    2      C       0.0000000000     0.0000000000     1.3667930000
    3      C       1.2201918163     0.0000000000     2.0742859459
    4      H       2.1539451703    -0.0725130933     1.5311855315
    5      C       1.2261228794     0.0402655448     3.4477750550
    6      C      -1.2173720618     0.0157567682     2.0792536159
    7      H      -2.1548171842     0.0509145458     1.5385943269
    8      C      -1.2164480072     0.0680346130     3.4524815747
    9      C      -1.0780210848    -0.5359515357    -0.7376960133
   10      C      -1.5976572535    -1.7846538009    -0.4020504947
   11      H      -1.1758560740    -2.3495937606     0.4191032077
   12      C      -2.6376406832    -2.3092507441    -1.1499698381
   13      H      -3.0364965648    -3.2825855120    -0.8986049295
   14      C      -3.1533679648    -1.6002735518    -2.2266987097
   15      H      -3.9639934789    -2.0166950056    -2.8095601145
   16      C      -2.6255837835    -0.3586215798    -2.5596471818
   17      H      -3.0297450635     0.1979320354    -3.3942872332
   18      C      -1.5857537088     0.1775624564    -1.8221837682
   19      H      -1.1822855325     1.1494241548    -2.0751833481
   20      C       1.0749027042     0.5567488568    -0.7285967737
   21      C       1.5745060133     1.8103352120    -0.3809469977
   22      H       1.1370130456     2.3638992319     0.4397465533
   23      C       2.6127564555     2.3542597450    -1.1176032394
   24      H       2.9968284696     3.3307405050    -0.8560404113
   25      C       3.1464741405     1.6587715804    -2.1945453709
   26      H       3.9567578088     2.0887760086    -2.7678427380
   27      C       2.6360557827     0.4134779356    -2.5412316686
   28      H       3.0529437391    -0.1313133104    -3.3774681475
   29      C       1.5974206216    -0.1411536511    -1.8158167349
   30      H       1.2051978408    -1.1146099311    -2.0798180084
   31      C       0.0069631940     0.0992322599     4.1694320522
   32      C      -2.5135938002     0.1282992301     4.1987658202
   33      H      -3.3680607472     0.1152920083     3.5232803314
   34      H      -2.5721656439     1.0314028177     4.8079217677
   35      H      -2.6055015705    -0.7175274333     4.8818702115
   36      C       2.5266577392     0.0179842678     4.1904818097
   37      H       3.3755864564    -0.0454456966     3.5111769543
   38      H       2.5713033703    -0.8295558603     4.8756322680
   39      H       2.6408034183     0.9182188491     4.7963732277
   40      B       0.0068988885     0.2330821578     5.7465904711
   41      C      -0.0266712108    -1.0138698316     6.6249169774
   42      C      -0.0487102507    -2.3033462554     6.0522049315
   43      H      -0.0367570402    -2.4150091080     4.9712165829
   44      C      -0.0868437564    -3.4194373144     6.8477278023
   45      C      -0.1017768058    -3.2911235786     8.2692041253
   46      C      -0.0787410054    -2.0424576238     8.8443501395
   47      H      -0.0900302120    -1.9433028242     9.9245571135
   48      C      -0.0414731150    -0.8792723801     8.0480813613
   49      C      -0.1200188554    -4.8422665141     6.5157213559
   50      C      -0.1223090408    -5.5752716409     5.3536182812
   51      H      -0.0945340709    -5.1035646832     4.3785776758
   52      C      -0.1541787595    -5.5304447462     7.7454111725
   53      C      -0.1907912296    -6.9184548482     7.8613629991
   54      C      -0.1437574551    -4.6376957901     8.8378886018
   55      C      -0.1703760489    -5.1658348848    10.1054044193
   56      H      -0.1639313655    -4.5358921010    10.9860671839
   57      C      -0.1606843115    -6.9862304188     5.4426392166
   58      H      -0.1627884935    -7.5622558916     4.5255000734
   59      C      -0.1937577868    -7.6506491840     6.6480124786
   60      H      -0.2219883320    -8.7335788135     6.6675110882
   61      C      -0.2077317848    -6.5726183923    10.2537636388
   62      H      -0.2288386792    -6.9846788053    11.2546549791
   63      C      -0.2180497500    -7.4341845935     9.1801702544
   64      H      -0.2462852936    -8.5049108809     9.3429426854
   65      C       0.0246659377     1.6244419687     6.3802375800
   66      C       0.0506308171     2.7815242005     5.5750079367
   67      H       0.0628869162     2.6840006423     4.4930021843
   68      C       0.0582607768     4.0292752608     6.1429590451
   69      C       0.0424140868     4.1780340639     7.5617075097
   70      C       0.0166760589     3.0596113171     8.3638395632
   71      H       0.0021891958     3.1655028432     9.4439053954
   72      C       0.0073930883     1.7649393569     7.8035790595
   73      C       0.0775951908     5.3565332441     5.5402554873
   74      C       0.0931500779     5.8391222048     4.2546536288
   75      H       0.0941333873     5.1788350051     3.3954262685
   76      C       0.0760027748     6.2739226542     6.6102059712
   77      C       0.0904844606     7.6563581773     6.4480036244
   78      C       0.0556062932     5.6109455217     7.8562863578
   79      C       0.0507520531     6.3779226175     8.9948897689
   80      H       0.0344688014     5.9326271601     9.9818042056
   81      C       0.1080183837     7.2394883285     4.0619357397
   82      H       0.1199910775     7.6229415721     3.0492332598
   83      C       0.1070903912     8.1302987757     5.1122082640
   84      H       0.1183083918     9.1955534062     4.9156288854
   85      C       0.0673546818     7.7869506487     8.8623856670
   86      H       0.0644773358     8.3874008027     9.7631693833
   87      C       0.0858671038     8.4213216173     7.6403817108
   88      H       0.0974295658     9.5033453499     7.5914341842
   89      B      -0.0214507911     0.5151905663     8.7002419817
   90      C      -0.0296363388     0.6324285926    10.2778997389
   91      C      -1.2375192398     0.6468563366    10.9869534890
   92      C      -1.2385139341     0.6851200617    12.3765604248
   93      H      -2.1810186442     0.6751929985    12.9124826000
   94      C      -0.0445779600     0.7368059641    13.0835571405
   95      C       1.1576211103     0.7452255522    12.3871409555
   96      H       2.0926905249     0.7914671229    12.9339744811
   97      C       1.1712814137     0.6797521307    10.9987470102
   98      N      -0.0515875919     0.7726785868    14.4965054563
   99      C       0.7211844568    -0.1512621852    15.2114516894
  100      C       1.3135226533     0.2017330498    16.4255951813
  101      H       1.1757355825     1.1997537671    16.8215742668
  102      C       2.0808352104    -0.7174114858    17.1224288913
  103      H       2.5319269928    -0.4246889685    18.0620127613
  104      C       2.2922838956    -1.9934668209    16.6174684781
  105      H       2.9009936246    -2.7047641963    17.1597573607
  106      C       1.7135820333    -2.3426065020    15.4050136619
  107      H       1.8635128864    -3.3342527467    14.9970205412
  108      C       0.9274830951    -1.4381915747    14.7102810772
  109      H       0.4737093113    -1.7305919241    13.7721082999
  110      C      -0.9406711070     1.6402779019    15.1474226387
  111      C      -1.6760663259     1.2232508023    16.2572766915
  112      H      -1.5554261784     0.2168011706    16.6370431728
  113      C      -2.5706162505     2.0880107771    16.8683564580
  114      H      -3.1356772725     1.7447738479    17.7256346350
  115      C      -2.7633081279     3.3716824233    16.3769628281
  116      H      -3.4710728576     4.0395490646    16.8498311154
  117      C      -2.0384327564     3.7857425724    15.2672179480
  118      H      -2.1744456448     4.7841221771    14.8712021134
  119      C      -1.1285097927     2.9354993154    14.6616369009
  120      H      -0.5669475596     3.2709166766    13.7988534202
  121      C       2.4824558345     0.6646272911    10.2628951155
  122      H       3.3305767716     0.7204105974    10.9452268830
  123      H       2.5564994507     1.5014875846     9.5656359617
  124      H       2.5907800911    -0.2462941679     9.6698198079
  125      C      -2.5438329793     0.5920927868    10.2432385805
  126      H      -3.3958527813     0.6403652719    10.9211837660
  127      H      -2.6324587215     1.4191738556     9.5360064290
  128      H      -2.6319363274    -0.3275887842     9.6608692209
 ----------------------------------------------------------------

   15   -2927.8854475865      6.08e-09  Convergence criterion met
 Total energy in the final basis set =    -2927.8854475865

         TDDFT/TDA Excitation Energies
 ---------------------------------------------------

 Excited state   1: excitation energy (eV) =    1.6946
 Total energy for state  1:                 -2927.82317317 au
    Multiplicity: Triplet
    Trans. Mom.:  0.0000 X   0.0000 Y   0.0000 Z
    Strength   :     0.0000000000
    D(254) --> V(  1) amplitude =  0.9724

 Excited state   2: excitation energy (eV) =    1.7118
 Total energy for state  2:                 -2927.82254079 au
    Multiplicity: Singlet
    Trans. Mom.:  0.0041 X  -0.0174 Y  -0.1618 Z
    Strength   :     0.0011112879
    D(254) --> V(  1) amplitude =  0.9758

 Excited state   3: excitation energy (eV) =    2.2305
 Total energy for state  3:                 -2927.80347808 au
    Multiplicity: Triplet
    Trans. Mom.:  0.0000 X   0.0000 Y   0.0000 Z
    Strength   :     0.0000000000
    D(244) --> V(  2) amplitude = -0.2447
    D(251) --> V(  1) amplitude =  0.9064

 Excited state   4: excitation energy (eV) =    2.4306
 Total energy for state  4:                 -2927.79612623 au
    Multiplicity: Triplet
    Trans. Mom.:  0.0000 X   0.0000 Y   0.0000 Z
    Strength   :     0.0000000000
    D(249) --> V(  2) amplitude =  0.4751
    D(252) --> V(  1) amplitude =  0.8069

 Excited state   5: excitation energy (eV) =    2.4735
 Total energy for state  5:                 -2927.79454911 au
    Multiplicity: Triplet
    Trans. Mom.:  0.0000 X   0.0000 Y   0.0000 Z
    Strength   :     0.0000000000
    D(253) --> V(  1) amplitude =  0.9671

 Excited state   6: excitation energy (eV) =    2.4886
 Total energy for state  6:                 -2927.79399312 au
    Multiplicity: Singlet
    Trans. Mom.:  0.0038 X  -0.0089 Y  -0.0364 Z
    Strength   :     0.0000865715
    D(253) --> V(  1) amplitude =  0.9733

 Excited state   7: excitation energy (eV) =    2.4931
 Total energy for state  7:                 -2927.79382623 au
    Multiplicity: Triplet
    Trans. Mom.:  0.0000 X   0.0000 Y   0.0000 Z
    Strength   :     0.0000000000
    D(249) --> V(  1) amplitude = -0.7389
    D(249) --> V(  4) amplitude =  0.2266
    D(252) --> V(  2) amplitude = -0.5505

 Excited state   8: excitation energy (eV) =    2.7346
 Total energy for state  8:                 -2927.78495365 au
    Multiplicity: Triplet
    Trans. Mom.:  0.0000 X   0.0000 Y   0.0000 Z
    Strength   :     0.0000000000
    D(244) --> V(  1) amplitude = -0.7053
    D(251) --> V(  2) amplitude =  0.5497

 Excited state   9: excitation energy (eV) =    2.9007
 Total energy for state  9:                 -2927.77884757 au
    Multiplicity: Singlet
    Trans. Mom.: -0.0013 X   0.0791 Y  -0.0129 Z
    Strength   :     0.0004569271
    D(251) --> V(  1) amplitude =  0.9584

 Excited state  10: excitation energy (eV) =    2.9532
 Total energy for state 10:                 -2927.77691800 au
    Multiplicity: Singlet
    Trans. Mom.:  0.0134 X  -0.0816 Y  -0.0051 Z
    Strength   :     0.0004961710
    D(254) --> V(  2) amplitude =  0.9945

 Excited state  11: excitation energy (eV) =    3.1426
 Total energy for state 11:                 -2927.76995764 au
    Multiplicity: Singlet
    Trans. Mom.: -0.0757 X  -3.9894 Y   0.3930 Z
    Strength   :     1.2377336142
    D(252) --> V(  1) amplitude =  0.9566

 Excited state  12: excitation energy (eV) =    3.3251
 Total energy for state 12:                 -2927.76325165 au
    Multiplicity: Singlet
    Trans. Mom.:  0.0023 X   0.1962 Y  -0.0345 Z
    Strength   :     0.0032327278
    D(250) --> V(  1) amplitude =  0.9545

 ---------------------------------------------------

                    Orbital Energies (a.u.)
 --------------------------------------------------------------

 Alpha MOs
 -- Occupied --
-14.677 -14.659 -10.498 -10.498 -10.493 -10.479 -10.479 -10.478
-10.474 -10.474 -10.473 -10.473 -10.473 -10.473 -10.473 -10.472
-10.471 -10.471 -10.471 -10.471 -10.470 -10.469 -10.469 -10.469
-10.468 -10.468 -10.466 -10.466 -10.465 -10.465 -10.464 -10.464
-10.463 -10.463 -10.461 -10.460 -10.457 -10.457 -10.453 -10.453
-10.453 -10.453 -10.451 -10.451 -10.450 -10.450 -10.448 -10.447
-10.445 -10.445 -10.445 -10.445 -10.445 -10.445 -10.442 -10.442
-10.437 -10.437 -10.437 -10.437 -10.435 -10.435 -10.435 -10.435
-10.435 -10.435 -10.433 -10.432 -10.432 -10.422 -10.422 -10.421
-10.421 -10.412  -6.957  -6.947  -1.087  -1.075  -1.024  -1.024
 -0.971  -0.968  -0.967  -0.966  -0.951  -0.949  -0.946  -0.940
 -0.940  -0.930  -0.916  -0.907  -0.882  -0.870  -0.867  -0.863
 -0.863  -0.857  -0.854  -0.853  -0.848  -0.844  -0.843  -0.839
 -0.831  -0.829  -0.828  -0.821  -0.819  -0.812  -0.806  -0.790
 -0.777  -0.773  -0.759  -0.756  -0.743  -0.737  -0.734  -0.728
 -0.716  -0.710  -0.703  -0.696  -0.692  -0.687  -0.687  -0.686
 -0.677  -0.674  -0.673  -0.666  -0.654  -0.653  -0.653  -0.645
 -0.632  -0.629  -0.612  -0.603  -0.599  -0.597  -0.594  -0.594
 -0.593  -0.589  -0.582  -0.582  -0.578  -0.568  -0.559  -0.553
 -0.550  -0.548  -0.548  -0.541  -0.538  -0.534  -0.529  -0.528
 -0.526  -0.520  -0.515  -0.515  -0.512  -0.511  -0.505  -0.503
 -0.502  -0.501  -0.501  -0.497  -0.494  -0.494  -0.492  -0.489
 -0.489  -0.486  -0.485  -0.484  -0.482  -0.481  -0.479  -0.476
 -0.474  -0.473  -0.472  -0.470  -0.469  -0.468  -0.463  -0.462
 -0.458  -0.454  -0.451  -0.449  -0.448  -0.447  -0.442  -0.437
 -0.434  -0.432  -0.432  -0.431  -0.426  -0.426  -0.418  -0.417
 -0.416  -0.416  -0.412  -0.407  -0.407  -0.404  -0.403  -0.403
 -0.403  -0.402  -0.400  -0.398  -0.397  -0.397  -0.394  -0.390
 -0.388  -0.387  -0.380  -0.371  -0.366  -0.365  -0.360  -0.359
 -0.342  -0.340  -0.330  -0.324  -0.310  -0.307  -0.304  -0.303
 -0.302  -0.296  -0.293  -0.291  -0.290  -0.286  -0.285  -0.274
 -0.271  -0.269  -0.265  -0.264  -0.229  -0.205

          Ground-State Mulliken Net Atomic Charges

     Atom                 Charge (a.u.)
  ----------------------------------------
      1 N                    -0.658551
      2 C                     0.337858
      3 C                    -0.397030
      4 H                     0.258736
      5 C                     0.068592
      6 C                    -0.397950
      7 H                     0.258570
      8 C                     0.066381
      9 C                     0.266524
     10 C                    -0.273349
     11 H                     0.263316
     12 C                    -0.241223
     13 H                     0.243893
     14 C                    -0.256982
     15 H                     0.240996
     16 C                    -0.240035
     17 H                     0.245438
     18 C                    -0.281292
     19 H                     0.262837
     20 C                     0.260714
     21 C                    -0.269293
     22 H                     0.261854
     23 C                    -0.241535
     24 H                     0.243393
     25 C                    -0.256289
     26 H                     0.241121
     27 C                    -0.240603
     28 H                     0.245667
     29 C                    -0.279203
     30 H                     0.263169
     31 C                    -0.255179
     32 C                    -0.770055
     33 H                     0.255902
     34 H                     0.239929
     35 H                     0.239793
     36 C                    -0.769012
     37 H                     0.255622
     38 H                     0.239559
     39 H                     0.239358
     40 B                     0.672698
     41 C                    -0.152063
     42 C                    -0.394627
     43 H                     0.257171
     44 C                     0.078880
     45 C                     0.095151
     46 C                    -0.400657
     47 H                     0.243060
     48 C                    -0.155056
     49 C                     0.180751
     50 C                    -0.389524
     51 H                     0.256129
     52 C                    -0.068548
     53 C                     0.220349
     54 C                     0.178335
     55 C                    -0.393936
     56 H                     0.247844
     57 C                    -0.231131
     58 H                     0.258926
     59 C                    -0.345444
     60 H                     0.253759
     61 C                    -0.230839
     62 H                     0.255698
     63 C                    -0.347471
     64 H                     0.253863
     65 C                    -0.151310
     66 C                    -0.392225
     67 H                     0.259460
     68 C                     0.079906
     69 C                     0.096852
     70 C                    -0.405227
     71 H                     0.240685
     72 C                    -0.155518
     73 C                     0.178484
     74 C                    -0.387131
     75 H                     0.256984
     76 C                    -0.068143
     77 C                     0.221950
     78 C                     0.177549
     79 C                    -0.395115
     80 H                     0.248243
     81 C                    -0.232219
     82 H                     0.259128
     83 C                    -0.345728
     84 H                     0.253680
     85 C                    -0.230301
     86 H                     0.255757
     87 C                    -0.348663
     88 H                     0.253773
     89 B                     0.679266
     90 C                    -0.213847
     91 C                     0.041497
     92 C                    -0.362835
     93 H                     0.247943
     94 C                     0.283386
     95 C                    -0.361581
     96 H                     0.247867
     97 C                     0.040679
     98 N                    -0.671419
     99 C                     0.306822
    100 C                    -0.299082
    101 H                     0.260976
    102 C                    -0.238620
    103 H                     0.247219
    104 C                    -0.266756
    105 H                     0.243768
    106 C                    -0.237260
    107 H                     0.244927
    108 C                    -0.304201
    109 H                     0.256038
    110 C                     0.297456
    111 C                    -0.299313
    112 H                     0.260634
    113 C                    -0.239254
    114 H                     0.247630
    115 C                    -0.265040
    116 H                     0.244489
    117 C                    -0.237565
    118 H                     0.245945
    119 C                    -0.296312
    120 H                     0.255997
    121 C                    -0.770159
    122 H                     0.254149
    123 H                     0.246689
    124 H                     0.246550
    125 C                    -0.769715
    126 H                     0.254090
    127 H                     0.246438
    128 H                     0.246678
  ----------------------------------------
  Sum of atomic charges =    -0.000000

                    Cartesian Multipole Moments
 -----------------------------------------------------------------
    Charge (ESU x 10^10)
                -0.0000
    Dipole Moment (Debye)
         X      -0.1832      Y      -0.1318      Z      -3.1782
       Tot       3.1862
    Quadrupole Moments (Debye-Ang)
        XX    -433.2654     XY       2.1790     YY    -351.9378
        XZ      -3.6087     YZ      -6.1535     ZZ    -422.4035

 Total job time:  27118.23s(wall), 87877.41s(cpu)
        *  Thank you very much for using Q-Chem.  Have a nice day.  *
