 Q-Chem 5.1, Q-Chem, Inc., Pleasanton, CA (2018)
 Q-Chem 5.1.1 for Intel X86 EM64T Linux

User input:
--------------------------------------------------------------
$solvent
dielectric      1.0001
dielectric_infi 1.00009
$end

$rem
threads 8
jobtype	sp
method PBEh-3c
basis def2-mSVP
mem_static	1024
mem_total	14000
sym_ignore	true
cis_n_roots             2
cis_singlets            false
cis_triplets		true
rpa                     false
calc_soc 		true
cis_moments             true
cis_relaxed_density	true
solvent_method		pcm
$end

$pcm
StateSpecific   1
ChargeSeparation Excited
$end

$molecule
read ut1opt_vac.mol
$end

--------------------------------------------------------------

   24   -2927.7844344854      9.65e-09  Convergence criterion met
 Total energy in the final basis set =    -2927.7844344854

         TDDFT/TDA Excitation Energies
 ---------------------------------------------------

 Excited state   1: excitation energy (eV) =    0.2187
 Total energy for state  1:                 -2927.77639806 au
    <S**2>     :  2.0707
    Trans. Mom.:  0.0241 X  -0.0899 Y  -1.8015 Z
    Strength   :     0.0174335462
    D(253) --> S(  1) amplitude =  0.9966 beta

 Excited state   2: excitation energy (eV) =    0.2855
 Total energy for state  2:                 -2927.77394432 au
    <S**2>     :  2.0664
    Trans. Mom.: -0.0058 X  -0.0280 Y  -0.0582 Z
    Strength   :     0.0000293986
    D(252) --> S(  1) amplitude =  0.9949 beta

 ---------------------------------------------------

                    Orbital Energies (a.u.)
 --------------------------------------------------------------

 Alpha MOs
 -- Occupied --
-14.778 -14.649 -10.562 -10.550 -10.549 -10.506 -10.506 -10.506
-10.505 -10.500 -10.500 -10.499 -10.499 -10.499 -10.499 -10.497
-10.497 -10.494 -10.494 -10.481 -10.472 -10.472 -10.456 -10.444
-10.443 -10.442 -10.442 -10.441 -10.441 -10.441 -10.440 -10.439
-10.438 -10.437 -10.437 -10.437 -10.436 -10.436 -10.436 -10.436
-10.435 -10.435 -10.435 -10.431 -10.430 -10.430 -10.429 -10.428
-10.427 -10.426 -10.426 -10.426 -10.426 -10.425 -10.425 -10.425
-10.425 -10.424 -10.424 -10.423 -10.423 -10.423 -10.423 -10.419
-10.418 -10.410 -10.409 -10.401 -10.401 -10.399 -10.399 -10.394
-10.394 -10.389  -6.894  -6.888  -1.172  -1.059  -1.019  -1.017
 -0.995  -0.988  -0.988  -0.942  -0.936  -0.931  -0.929  -0.920
 -0.917  -0.916  -0.910  -0.909  -0.906  -0.895  -0.894  -0.878
 -0.869  -0.856  -0.845  -0.836  -0.832  -0.826  -0.826  -0.824
 -0.823  -0.819  -0.818  -0.808  -0.800  -0.792  -0.787  -0.785
 -0.778  -0.773  -0.767  -0.761  -0.742  -0.739  -0.737  -0.734
 -0.707  -0.705  -0.702  -0.694  -0.693  -0.687  -0.686  -0.685
 -0.664  -0.662  -0.659  -0.658  -0.654  -0.649  -0.643  -0.637
 -0.623  -0.618  -0.618  -0.617  -0.616  -0.607  -0.602  -0.591
 -0.588  -0.575  -0.571  -0.570  -0.569  -0.566  -0.563  -0.559
 -0.557  -0.552  -0.550  -0.548  -0.546  -0.541  -0.541  -0.538
 -0.530  -0.521  -0.520  -0.515  -0.514  -0.509  -0.507  -0.502
 -0.501  -0.501  -0.495  -0.494  -0.491  -0.485  -0.483  -0.481
 -0.478  -0.477  -0.476  -0.474  -0.471  -0.469  -0.468  -0.468
 -0.465  -0.464  -0.464  -0.464  -0.459  -0.458  -0.457  -0.457
 -0.455  -0.454  -0.453  -0.448  -0.446  -0.446  -0.441  -0.441
 -0.437  -0.434  -0.430  -0.422  -0.421  -0.420  -0.415  -0.414
 -0.409  -0.407  -0.406  -0.405  -0.402  -0.398  -0.396  -0.394
 -0.390  -0.383  -0.378  -0.377  -0.375  -0.373  -0.372  -0.372
 -0.368  -0.365  -0.362  -0.359  -0.354  -0.352  -0.347  -0.345
 -0.344  -0.339  -0.334  -0.328  -0.322  -0.314  -0.309  -0.296
 -0.289  -0.285  -0.284  -0.280  -0.275  -0.275  -0.273  -0.258
 -0.257  -0.248  -0.242  -0.231  -0.226  -0.198  -0.140

 Beta MOs
 -- Occupied --
-14.770 -14.649 -10.561 -10.551 -10.551 -10.505 -10.505 -10.504
-10.504 -10.500 -10.500 -10.500 -10.500 -10.498 -10.498 -10.498
-10.498 -10.492 -10.492 -10.475 -10.472 -10.472 -10.456 -10.444
-10.443 -10.442 -10.442 -10.441 -10.441 -10.440 -10.440 -10.438
-10.438 -10.438 -10.438 -10.437 -10.437 -10.436 -10.436 -10.435
-10.435 -10.435 -10.434 -10.431 -10.430 -10.430 -10.429 -10.428
-10.427 -10.426 -10.425 -10.425 -10.425 -10.425 -10.425 -10.424
-10.424 -10.424 -10.423 -10.423 -10.423 -10.423 -10.422 -10.420
-10.419 -10.410 -10.409 -10.401 -10.401 -10.399 -10.399 -10.393
-10.392 -10.389  -6.891  -6.885  -1.159  -1.059  -1.018  -1.013
 -0.990  -0.988  -0.987  -0.942  -0.936  -0.930  -0.928  -0.918
 -0.917  -0.911  -0.909  -0.908  -0.905  -0.894  -0.893  -0.876
 -0.869  -0.849  -0.844  -0.836  -0.832  -0.825  -0.824  -0.823
 -0.822  -0.819  -0.817  -0.804  -0.794  -0.789  -0.786  -0.784
 -0.778  -0.772  -0.762  -0.759  -0.740  -0.739  -0.737  -0.732
 -0.706  -0.703  -0.701  -0.693  -0.691  -0.686  -0.685  -0.685
 -0.663  -0.662  -0.657  -0.656  -0.653  -0.646  -0.640  -0.635
 -0.622  -0.618  -0.617  -0.616  -0.616  -0.605  -0.592  -0.588
 -0.587  -0.573  -0.570  -0.569  -0.568  -0.565  -0.561  -0.558
 -0.556  -0.551  -0.549  -0.546  -0.544  -0.541  -0.540  -0.537
 -0.529  -0.519  -0.517  -0.514  -0.512  -0.505  -0.503  -0.501
 -0.500  -0.500  -0.493  -0.490  -0.486  -0.483  -0.481  -0.480
 -0.477  -0.477  -0.475  -0.473  -0.468  -0.467  -0.467  -0.465
 -0.465  -0.464  -0.463  -0.463  -0.458  -0.457  -0.456  -0.456
 -0.455  -0.453  -0.449  -0.446  -0.446  -0.445  -0.440  -0.440
 -0.437  -0.433  -0.429  -0.420  -0.419  -0.418  -0.414  -0.413
 -0.407  -0.405  -0.402  -0.401  -0.396  -0.393  -0.392  -0.389
 -0.388  -0.383  -0.378  -0.377  -0.374  -0.371  -0.371  -0.370
 -0.367  -0.362  -0.358  -0.358  -0.350  -0.346  -0.344  -0.341
 -0.337  -0.334  -0.323  -0.321  -0.320  -0.308  -0.305  -0.289
 -0.285  -0.284  -0.280  -0.275  -0.272  -0.271  -0.257  -0.248
 -0.247  -0.234  -0.228  -0.219  -0.198

          Ground-State Mulliken Net Atomic Charges

     Atom                 Charge (a.u.)    Spin (a.u.)
  --------------------------------------------------------
      1 N                    -0.601465       0.289500
      2 C                     0.350652       0.091883
      3 C                    -0.361520       0.115204
      4 H                     0.267853      -0.006409
      5 C                     0.066458      -0.081260
      6 C                    -0.363432       0.115141
      7 H                     0.268120      -0.006422
      8 C                     0.064517      -0.081327
      9 C                     0.251275      -0.059572
     10 C                    -0.250370       0.068304
     11 H                     0.260121      -0.003667
     12 C                    -0.216834      -0.044962
     13 H                     0.245651       0.002356
     14 C                    -0.216034       0.075422
     15 H                     0.245604      -0.004209
     16 C                    -0.218543      -0.049073
     17 H                     0.248934       0.002839
     18 C                    -0.252313       0.071621
     19 H                     0.268065      -0.003796
     20 C                     0.247499      -0.059359
     21 C                    -0.249964       0.068049
     22 H                     0.259670      -0.003656
     23 C                    -0.217122      -0.044799
     24 H                     0.245388       0.002340
     25 C                    -0.215844       0.075439
     26 H                     0.245728      -0.004209
     27 C                    -0.218854      -0.049104
     28 H                     0.249948       0.002851
     29 C                    -0.249740       0.071795
     30 H                     0.268502      -0.003826
     31 C                    -0.130224       0.398017
     32 C                    -0.748912       0.007224
     33 H                     0.228727       0.001335
     34 H                     0.279928      -0.002859
     35 H                     0.277674      -0.001733
     36 C                    -0.747351       0.007578
     37 H                     0.228662       0.001284
     38 H                     0.277092      -0.002932
     39 H                     0.278415      -0.001617
     40 B                     0.546222       0.367990
     41 C                    -0.125900      -0.000601
     42 C                    -0.401608       0.014258
     43 H                     0.174038      -0.002977
     44 C                     0.079524       0.011045
     45 C                     0.097427       0.112642
     46 C                    -0.396976      -0.069441
     47 H                     0.220089       0.003027
     48 C                    -0.145578       0.081600
     49 C                     0.198320      -0.060786
     50 C                    -0.392479       0.087955
     51 H                     0.211047      -0.005230
     52 C                    -0.075010       0.022332
     53 C                     0.252541      -0.035807
     54 C                     0.199971      -0.035876
     55 C                    -0.389862       0.057936
     56 H                     0.190004      -0.003497
     57 C                    -0.201307      -0.040073
     58 H                     0.208909       0.002045
     59 C                    -0.342537       0.054725
     60 H                     0.208775      -0.003230
     61 C                    -0.199827      -0.053627
     62 H                     0.216266       0.002625
     63 C                    -0.346402       0.079338
     64 H                     0.208738      -0.004775
     65 C                    -0.124923       0.001722
     66 C                    -0.395632       0.010969
     67 H                     0.171719      -0.003131
     68 C                     0.079492       0.014520
     69 C                     0.099673       0.112646
     70 C                    -0.402216      -0.069414
     71 H                     0.217686       0.003003
     72 C                    -0.146006       0.081153
     73 C                     0.198189      -0.037352
     74 C                    -0.386781       0.060481
     75 H                     0.186108      -0.003657
     76 C                    -0.075032       0.022817
     77 C                     0.254195      -0.036772
     78 C                     0.197411      -0.061381
     79 C                    -0.394225       0.089377
     80 H                     0.212198      -0.005309
     81 C                    -0.201992      -0.041611
     82 H                     0.207550       0.002122
     83 C                    -0.343068       0.057447
     84 H                     0.208565      -0.003398
     85 C                    -0.199107      -0.054681
     86 H                     0.216336       0.002678
     87 C                    -0.347931       0.080878
     88 H                     0.208636      -0.004870
     89 B                     0.610512       0.255016
     90 C                    -0.194352      -0.020684
     91 C                     0.049758       0.002964
     92 C                    -0.348541      -0.000496
     93 H                     0.224422       0.000304
     94 C                     0.272547       0.001530
     95 C                    -0.347077      -0.000500
     96 H                     0.223175       0.000301
     97 C                     0.049342       0.002842
     98 N                    -0.671741       0.002334
     99 C                     0.310968      -0.000519
    100 C                    -0.285113       0.000844
    101 H                     0.243822      -0.000045
    102 C                    -0.213626      -0.000593
    103 H                     0.214260       0.000029
    104 C                    -0.241732       0.001069
    105 H                     0.211254      -0.000060
    106 C                    -0.211597      -0.000630
    107 H                     0.214987       0.000034
    108 C                    -0.285293       0.000896
    109 H                     0.247060      -0.000047
    110 C                     0.301132      -0.000516
    111 C                    -0.285821       0.000818
    112 H                     0.244696      -0.000044
    113 C                    -0.214183      -0.000567
    114 H                     0.214882       0.000028
    115 C                    -0.240490       0.001026
    116 H                     0.211824      -0.000057
    117 C                    -0.211908      -0.000612
    118 H                     0.215340       0.000033
    119 C                    -0.276830       0.000860
    120 H                     0.245486      -0.000046
    121 C                    -0.753549       0.000669
    122 H                     0.225870       0.001364
    123 H                     0.244254      -0.000687
    124 H                     0.244185      -0.000695
    125 C                    -0.753207       0.000587
    126 H                     0.226202       0.001375
    127 H                     0.243483      -0.000704
    128 H                     0.244406      -0.000644
  --------------------------------------------------------
  Sum of atomic charges =    -0.000000

                    Cartesian Multipole Moments
 -----------------------------------------------------------------
    Charge (ESU x 10^10)
                -0.0000
    Dipole Moment (Debye)
         X       0.0126      Y      -1.1778      Z     -22.5554
       Tot      22.5861
    Quadrupole Moments (Debye-Ang)
        XX    -425.0408     XY       6.6560     YY    -436.2807
        XZ      -1.0554     YZ      -7.7754     ZZ    -595.5240

 Total job time:  17620.91s(wall), 61261.38s(cpu)
        *  Thank you very much for using Q-Chem.  Have a nice day.  *
 Q-Chem 5.1, Q-Chem, Inc., Pleasanton, CA (2018)
 Q-Chem 5.1.1 for Intel X86 EM64T Linux

User input:
--------------------------------------------------------------
$rem
threads 8
jobtype sp
method PBEh-3c
basis def2-mSVP
mem_static      1024
mem_total       14000
sym_ignore      true
cis_n_roots             6
cis_singlets            true
cis_triplets            true
rpa                     false
calc_soc                true
cis_moments             true
cis_relaxed_density     true
solvent_method          pcm
$end

$molecule
read
$end

$pcm
statespecific           Marcus
$end

$solvent
dielectric      1.0001
dielectric_infi 1.00009
$end

--------------------------------------------------------------

             Standard Nuclear Orientation (Angstroms)
    I     Atom           X                Y                Z
 ----------------------------------------------------------------
    1      N       0.0000000000     0.0000000000     0.0000000000
    2      C       0.0000000000     0.0000000000     1.3629540000
    3      C       1.2220498371     0.0000000000     2.0739916230
    4      H       2.1550524174    -0.0668265369     1.5293758443
    5      C       1.2287536639     0.0332168977     3.4436925067
    6      C      -1.2203466661     0.0107903248     2.0772292456
    7      H      -2.1561904682     0.0429882844     1.5339940447
    8      C      -1.2231216300     0.0591711114     3.4465620156
    9      C      -1.0987523916    -0.4975382693    -0.7417210190
   10      C      -1.6053782155     0.2485318002    -1.8016815601
   11      H      -1.1821833672     1.2164437334    -2.0368556442
   12      C      -2.6598837315    -0.2520489281    -2.5443518151
   13      H      -3.0599649566     0.3309835342    -3.3626814486
   14      C      -3.2069306662    -1.4906018341    -2.2379017218
   15      H      -4.0303746738    -1.8781970272    -2.8222774100
   16      C      -2.6934912852    -2.2328078914    -1.1843901060
   17      H      -3.1085810788    -3.2035778656    -0.9502102119
   18      C      -1.6359783585    -1.7444461259    -0.4359154188
   19      H      -1.2202117973    -2.3324796371     0.3720526916
   20      C       1.0956524009     0.5123343430    -0.7369038914
   21      C       1.6066561147    -0.2217997414    -1.8029482831
   22      H       1.1867558018    -1.1887452220    -2.0475476858
   23      C       2.6601987492     0.2896356097    -2.5392360356
   24      H       3.0645846410    -0.2847037298    -3.3616583159
   25      C       3.2009575546     1.5282770103    -2.2215634440
   26      H       4.0240652415     1.9238413481    -2.8009797382
   27      C       2.6805694845     2.2606584094    -1.1643484224
   28      H       3.0896549645     3.2317996365    -0.9216435032
   29      C       1.6243457764     1.7607734888    -0.4213849001
   30      H       1.2022941277     2.3407574033     0.3891602317
   31      C       0.0043348065     0.0913307243     4.1694795253
   32      C      -2.5130087901     0.1204426424     4.1998527720
   33      H      -3.3739069732     0.0959990576     3.5326592187
   34      H      -2.5643924257     1.0292319762     4.8012506367
   35      H      -2.5886995878    -0.7157653933     4.8965402809
   36      C       2.5199974536     0.0050927379     4.1970287972
   37      H       3.3773212123    -0.0652670731     3.5287031470
   38      H       2.5461276626    -0.8387436880     4.8876296938
   39      H       2.6261362977     0.9052930139     4.8044984925
   40      B       0.0013802173     0.2230418619     5.7410561733
   41      C      -0.0486046947    -1.0288706981     6.6060319624
   42      C      -0.0765664275    -2.3175194971     6.0305812070
   43      H      -0.0554797731    -2.4302021229     4.9491564852
   44      C      -0.1315476490    -3.4326500101     6.8236829831
   45      C      -0.1581012141    -3.3059450642     8.2434741926
   46      C      -0.1284760017    -2.0582629767     8.8202649012
   47      H      -0.1480101149    -1.9562945999     9.8998852964
   48      C      -0.0739840854    -0.8959256347     8.0268917292
   49      C      -0.2176662807    -4.6522936177     8.8092259567
   50      C      -0.2617152363    -5.1817153306    10.0743018550
   51      H      -0.2587383302    -4.5522746693    10.9550139547
   52      C      -0.2259917416    -5.5441247230     7.7166691045
   53      C      -0.2765144623    -6.9309390286     7.8303894174
   54      C      -0.1743559223    -4.8549616224     6.4892759194
   55      C      -0.1729540855    -5.5860459702     5.3275899574
   56      H      -0.1313675603    -5.1127131020     4.3538416302
   57      C      -0.2249326474    -6.9958007384     5.4132503641
   58      H      -0.2236447949    -7.5712273846     4.4957492259
   59      C      -0.2751785343    -7.6602970637     6.6166110934
   60      H      -0.3134572198    -8.7428669837     6.6339364739
   61      C      -0.3132261673    -6.5874310551    10.2210775389
   62      H      -0.3480054531    -7.0002511883    11.2211342397
   63      C      -0.3210312246    -7.4471410187     9.1477114943
   64      H      -0.3605951545    -8.5174997789     9.3096010092
   65      C       0.0263159993     1.6137724593     6.3666631111
   66      C       0.0649292411     2.7726834257     5.5637437663
   67      H       0.0810727114     2.6793252183     4.4807149714
   68      C       0.0799640357     4.0171311585     6.1345802952
   69      C       0.0594539312     4.1623124305     7.5522039647
   70      C       0.0185297525     3.0419556721     8.3510077136
   71      H      -0.0018588093     3.1408253618     9.4314338094
   72      C       0.0006194257     1.7505434863     7.7880246736
   73      C       0.1123706939     5.3457116749     5.5349337694
   74      C       0.1350867380     5.8312590061     4.2519580458
   75      H       0.1313639885     5.1721395716     3.3918143357
   76      C       0.1152689169     6.2601932293     6.6060888706
   77      C       0.1422443938     7.6419075242     6.4472218974
   78      C       0.0847073744     5.5936639733     7.8495449146
   79      C       0.0837024123     6.3578989789     8.9885472936
   80      H       0.0606294489     5.9098180085     9.9737734294
   81      C       0.1621262358     7.2306887675     4.0615184463
   82      H       0.1791398150     7.6171948842     3.0500494116
   83      C       0.1664174309     8.1177786403     5.1134008844
   84      H       0.1870028445     9.1831915606     4.9189667774
   85      C       0.1134354439     7.7662601652     8.8600008877
   86      H       0.1135261309     8.3644071610     9.7621846190
   87      C       0.1410957307     8.4032119627     7.6410195601
   88      H       0.1624317728     9.4850868791     7.5954592196
   89      B      -0.0475525189     0.4982591531     8.6814346627
   90      C      -0.0713651191     0.6114985200    10.2570170935
   91      C      -1.2869156636     0.6332010806    10.9511619449
   92      C      -1.3025009720     0.6661093094    12.3396575845
   93      H      -2.2493331086     0.6630902635    12.8674208937
   94      C      -0.1159064693     0.7055633423    13.0589165320
   95      C       1.0938499739     0.7067831935    12.3765815183
   96      H       2.0216642294     0.7423189835    12.9358163780
   97      C       1.1222030983     0.6461831857    10.9892608567
   98      N      -0.1389012955     0.7355292836    14.4718187324
   99      C       0.6209941493    -0.1946037600    15.1907386687
  100      C       1.1941870265     0.1456940093    16.4170721582
  101      H       1.0506762422     1.1407159673    16.8177498088
  102      C       1.9472865614    -0.7810418277    17.1173215269
  103      H       2.3833998949    -0.4981233076    18.0667513433
  104      C       2.1642843049    -2.0519807833    16.6049258717
  105      H       2.7622811022    -2.7694316173    17.1505706319
  106      C       1.6061004610    -2.3879413439    15.3803094475
  107      H       1.7620295117    -3.3756734593    14.9655480233
  108      C       0.8339194727    -1.4766946108    14.6812464668
  109      H       0.3961105803    -1.7555701982    13.7317542472
  110      C      -1.0247146506     1.6103941010    15.1151010621
  111      C      -1.7645112924     1.2044604083    16.2257077330
  112      H      -1.6469841518     0.1999675517    16.6108857709
  113      C      -2.6562884690     2.0765035344    16.8281341156
  114      H      -3.2248768929     1.7414653365    17.6861324299
  115      C      -2.8425632549     3.3566556229    16.3281634576
  116      H      -3.5486217646     4.0304896977    16.7945853079
  117      C      -2.1140066157     3.7594703835    15.2179714289
  118      H      -2.2458753890     4.7552913243    14.8146009591
  119      C      -1.2067353674     2.9025993278    14.6203823862
  120      H      -0.6426150740     3.2262413484    13.7552214216
  121      C       2.4382905588     0.6213680177    10.2633515507
  122      H       3.2821601412     0.6651925515    10.9517476173
  123      H       2.5252403920     1.4608167930     9.5708022103
  124      H       2.5407362563    -0.2882919321     9.6674036773
  125      C      -2.5828555033     0.5919110816    10.1892905556
  126      H      -3.4439759457     0.6473063585    10.8550362909
  127      H      -2.6528119165     1.4216019520     9.4831372388
  128      H      -2.6709145423    -0.3261308160     9.6043723783
 ----------------------------------------------------------------
