 Q-Chem 5.1, Q-Chem, Inc., Pleasanton, CA (2018)
 Q-Chem 5.1.1 for Intel X86 EM64T Linux

User input:
--------------------------------------------------------------
$solvent
dielectric      2.03
dielectric_infi 2.02
$end

$rem
threads 8
jobtype	sp
method PBEh-3c
basis def2-mSVP
mem_static	1024
mem_total	14000
sym_ignore	true
cis_n_roots             2
cis_singlets            false
cis_triplets		true
rpa                     false
calc_soc 		true
cis_moments             true
cis_relaxed_density	true
solvent_method		pcm
$end

$pcm
StateSpecific   1
ChargeSeparation Excited
$end

$molecule
read ut1opt_chx.mol
$end

--------------------------------------------------------------

   15   -2927.8809001858      6.08e-09  Convergence criterion met
 Total energy in the final basis set =    -2927.8809001858
 Total job time:  12135.99s(wall), 36486.15s(cpu)
        *  Thank you very much for using Q-Chem.  Have a nice day.  *
 Q-Chem 5.1, Q-Chem, Inc., Pleasanton, CA (2018)
 Q-Chem 5.1.1 for Intel X86 EM64T Linux

User input:
--------------------------------------------------------------
$rem
threads 8
jobtype sp
method PBEh-3c
basis def2-mSVP
mem_static      1024
mem_total       14000
sym_ignore      true
cis_n_roots             6
cis_singlets            true
cis_triplets            true
rpa                     false
calc_soc                true
cis_moments             true
cis_relaxed_density     true
solvent_method          pcm
$end

$molecule
read
$end

$pcm
statespecific           Marcus
$end

$solvent
dielectric      2.03
dielectric_infi 2.02
$end

--------------------------------------------------------------

             Standard Nuclear Orientation (Angstroms)
    I     Atom           X                Y                Z
 ----------------------------------------------------------------
    1      N       0.0000000000     0.0000000000     0.0000000000
    2      C       0.0000000000     0.0000000000     1.3640090000
    3      C       1.2211296754     0.0000000000     2.0739176673
    4      H       2.1548113119    -0.0695830846     1.5305419486
    5      C       1.2270341317     0.0356604288     3.4455734903
    6      C      -1.2191387205     0.0123621455     2.0776024174
    7      H      -2.1558325026     0.0463218388     1.5357758543
    8      C      -1.2201147461     0.0610107906     3.4489334242
    9      C      -1.0899990612    -0.5152913083    -0.7394685615
   10      C      -1.6174574686    -1.7637695372    -0.4197742137
   11      H      -1.1974746028    -2.3414448852     0.3934988548
   12      C      -2.6667767745    -2.2695057386    -1.1680613801
   13      H      -3.0733099671    -3.2421344724    -0.9265417085
   14      C      -3.1825350596    -1.5420694409    -2.2315705816
   15      H      -4.0000885518    -1.9433700632    -2.8152115881
   16      C      -2.6458730567    -0.3010863447    -2.5499183478
   17      H      -3.0491173475     0.2698880116    -3.3751945531
   18      C      -1.5978145055     0.2164190747    -1.8101624384
   19      H      -1.1846900672     1.1867845721    -2.0532960148
   20      C       1.0867519204     0.5311107289    -0.7338543510
   21      C       1.5991615751    -0.1864784279    -1.8117772051
   22      H       1.1887218576    -1.1547776810    -2.0668970622
   23      C       2.6471561363     0.3426893652    -2.5430724732
   24      H       3.0548783545    -0.2180520213    -3.3732407900
   25      C       3.1782634902     1.5824419988    -2.2103964592
   26      H       3.9964035761     1.9921623323    -2.7872219333
   27      C       2.6549318712     2.2981970331    -1.1424589865
   28      H       3.0557820822     3.2703377226    -0.8901250635
   29      C       1.6060285326     1.7800959671    -0.4018895060
   30      H       1.1791808823     2.3484447364     0.4143037105
   31      C       0.0051287552     0.0917420912     4.1687788872
   32      C      -2.5141123408     0.1192532597     4.1983874325
   33      H      -3.3714360067     0.1030738777     3.5264900406
   34      H      -2.5699994315     1.0227300470     4.8071704606
   35      H      -2.5988458146    -0.7244578190     4.8849661419
   36      C       2.5234063627     0.0105266050     4.1930563276
   37      H       3.3762192050    -0.0506424262     3.5182913177
   38      H       2.5622761183    -0.8384494925     4.8766997334
   39      H       2.6319437837     0.9079613901     4.8040401870
   40      B       0.0032517495     0.2181272996     5.7447160471
   41      C      -0.0311533016    -1.0355729579     6.6105671089
   42      C      -0.0500512484    -2.3219607019     6.0305186242
   43      H      -0.0341094932    -2.4285030794     4.9487736009
   44      C      -0.0899966849    -3.4418184222     6.8193177726
   45      C      -0.1102585359    -3.3213993923     8.2406368370
   46      C      -0.0897449306    -2.0759431076     8.8226579675
   47      H      -0.1045318384    -1.9809314066     9.9030986542
   48      C      -0.0505371416    -0.9090981613     8.0334436896
   49      C      -0.1207369189    -4.8629196119     6.4792500152
   50      C      -0.1178270560    -5.5895663189     5.3138477438
   51      H      -0.0860612240    -5.1122391091     4.3416572162
   52      C      -0.1592105223    -5.5578836209     7.7045159919
   53      C      -0.1953253898    -6.9460854906     7.8126972928
   54      C      -0.1536550491    -4.6708122790     8.8013507525
   55      C      -0.1851914105    -5.2059797146    10.0651839952
   56      H      -0.1830602941    -4.5805213313    10.9489111948
   57      C      -0.1554625820    -7.0005781160     5.3944309119
   58      H      -0.1532153114    -7.5719129398     4.4743297760
   59      C      -0.1929388818    -7.6711296653     6.5956508659
   60      H      -0.2204019845    -8.7541554341     6.6089060208
   61      C      -0.2222121778    -6.6131557613    10.2059427488
   62      H      -0.2472944843    -7.0305706198    11.2044884507
   63      C      -0.2275329949    -7.4687015155     9.1282918963
   64      H      -0.2557051474    -8.5402190396     9.2854937242
   65      C       0.0180254332     1.6060467084     6.3813313311
   66      C       0.0435370764     2.7682136634     5.5832170984
   67      H       0.0570227645     2.6778870228     4.5002913082
   68      C       0.0489850876     4.0116824476     6.1586867993
   69      C       0.0318000490     4.1513792059     7.5776542784
   70      C       0.0052270125     3.0279024077     8.3725797932
   71      H      -0.0115616481     3.1250568143     9.4533338636
   72      C      -0.0024385612     1.7376029769     7.8045471795
   73      C       0.0669463756     5.3428141900     5.5643508919
   74      C       0.0812568686     5.8338796508     4.2825502573
   75      H       0.0818558982     5.1787781633     3.4193447003
   76      C       0.0643188936     6.2533359701     6.6396465808
   77      C       0.0772963760     7.6363536916     6.4863151243
   78      C       0.0439327264     5.5819893371     7.8809912271
   79      C       0.0381977473     6.3416916023     9.0238233639
   80      H       0.0220221873     5.8897300836    10.0075781046
   81      C       0.0943852545     7.2348961735     4.0982778685
   82      H       0.1051125930     7.6252440719     3.0881603193
   83      C       0.0930298563     8.1184335345     5.1539716330
   84      H       0.1028703537     9.1848792301     4.9640032980
   85      C       0.0536976551     7.7511591654     8.9005958653
   86      H       0.0501924197     8.3457317945     9.8052389492
   87      C       0.0718216571     8.3933366747     7.6833453903
   88      H       0.0823628255     9.4756296698     7.6417058956
   89      B      -0.0335701098     0.4819972265     8.6933265946
   90      C      -0.0483066234     0.5904605427    10.2707383342
   91      C      -1.2592946354     0.5992364443    10.9738860729
   92      C      -1.2660424180     0.6310941226    12.3631544697
   93      H      -2.2100235777     0.6178465540    12.8961921288
   94      C      -0.0751787817     0.6825667786    13.0748380450
   95      C       1.1298667022     0.6960919473    12.3841434583
   96      H       2.0618154413     0.7410414113    12.9361575585
   97      C       1.1495294688     0.6363988167    10.9959303842
   98      N      -0.0887251822     0.7130783690    14.4882318495
   99      C       0.6820246806    -0.2122510461    15.2024775685
  100      C       1.2662587686     0.1346328511    16.4220932589
  101      H       1.1230359103     1.1300909836    16.8222493857
  102      C       2.0313194635    -0.7865986845    17.1177256585
  103      H       2.4760082856    -0.4984214819    18.0617081442
  104      C       2.2491390281    -2.0586117895    16.6066857355
  105      H       2.8563678089    -2.7715880452    17.1482721572
  106      C       1.6792631663    -2.4013347360    15.3887311845
  107      H       1.8350676865    -3.3897530892    14.9752805448
  108      C       0.8953401987    -1.4952588940    14.6947729375
  109      H       0.4488590832    -1.7811237909    13.7512660400
  110      C      -0.9768739751     1.5815997084    15.1377270118
  111      C      -1.7089206105     1.1685620159    16.2511789981
  112      H      -1.5849723046     0.1638722249    16.6342293699
  113      C      -2.6030069225     2.0342869355    16.8605115889
  114      H      -3.1653703588     1.6937056835    17.7205690030
  115      C      -2.7992399145     3.3150751237    16.3643960972
  116      H      -3.5069777867     3.9837422699    16.8360000069
  117      C      -2.0781655413     3.7250091295    15.2512251661
  118      H      -2.2174193537     4.7211292951    14.8507963040
  119      C      -1.1686319852     2.8742454022    14.6470056346
  120      H      -0.6105888109     3.2052192074    13.7804469135
  121      C       2.4624514437     0.6258471823    10.2634800812
  122      H       3.3089132400     0.6773676808    10.9482253818
  123      H       2.5378826762     1.4669652997     9.5715572254
  124      H       2.5717024641    -0.2816380419     9.6653925558
  125      C      -2.5611414773     0.5460095461    10.2225512373
  126      H      -3.4171140551     0.5900647658    10.8958171363
  127      H      -2.6463534571     1.3766069234     9.5190783130
  128      H      -2.6443674377    -0.3710362074     9.6353522988
 ----------------------------------------------------------------

   15   -2927.8808473651      6.09e-09  Convergence criterion met
 Total energy in the final basis set =    -2927.8808473651

         TDDFT/TDA Excitation Energies
 ---------------------------------------------------

 Excited state   1: excitation energy (eV) =    2.0789
 Total energy for state  1:                 -2927.80444998 au
    Multiplicity: Triplet
    Trans. Mom.:  0.0000 X   0.0000 Y   0.0000 Z
    Strength   :     0.0000000000
    D(254) --> V(  1) amplitude =  0.9678

 Excited state   2: excitation energy (eV) =    2.1006
 Total energy for state  2:                 -2927.80365152 au
    Multiplicity: Singlet
    Trans. Mom.: -0.0051 X   0.0188 Y   0.1353 Z
    Strength   :     0.0009619897
    D(254) --> V(  1) amplitude =  0.9727

 Excited state   3: excitation energy (eV) =    2.2090
 Total energy for state  3:                 -2927.79966752 au
    Multiplicity: Triplet
    Trans. Mom.:  0.0000 X   0.0000 Y   0.0000 Z
    Strength   :     0.0000000000
    D(246) --> V(  2) amplitude =  0.2411
    D(251) --> V(  1) amplitude =  0.9017

 Excited state   4: excitation energy (eV) =    2.4306
 Total energy for state  4:                 -2927.79152543 au
    Multiplicity: Triplet
    Trans. Mom.:  0.0000 X   0.0000 Y   0.0000 Z
    Strength   :     0.0000000000
    D(250) --> V(  2) amplitude =  0.4773
    D(252) --> V(  1) amplitude =  0.7896

 Excited state   5: excitation energy (eV) =    2.4559
 Total energy for state  5:                 -2927.79059564 au
    Multiplicity: Triplet
    Trans. Mom.:  0.0000 X   0.0000 Y   0.0000 Z
    Strength   :     0.0000000000
    D(253) --> V(  1) amplitude =  0.9669

 Excited state   6: excitation energy (eV) =    2.4706
 Total energy for state  6:                 -2927.79005492 au
    Multiplicity: Singlet
    Trans. Mom.: -0.0042 X   0.0083 Y   0.0435 Z
    Strength   :     0.0001200110
    D(253) --> V(  1) amplitude =  0.9733

 Excited state   7: excitation energy (eV) =    2.4935
 Total energy for state  7:                 -2927.78921278 au
    Multiplicity: Triplet
    Trans. Mom.:  0.0000 X   0.0000 Y   0.0000 Z
    Strength   :     0.0000000000
    D(250) --> V(  1) amplitude =  0.7416
    D(250) --> V(  4) amplitude =  0.2360
    D(252) --> V(  2) amplitude =  0.5435

 Excited state   8: excitation energy (eV) =    2.7178
 Total energy for state  8:                 -2927.78096880 au
    Multiplicity: Triplet
    Trans. Mom.:  0.0000 X   0.0000 Y   0.0000 Z
    Strength   :     0.0000000000
    D(246) --> V(  1) amplitude =  0.7000
    D(251) --> V(  2) amplitude =  0.5505

 Excited state   9: excitation energy (eV) =    2.8759
 Total energy for state  9:                 -2927.77515891 au
    Multiplicity: Singlet
    Trans. Mom.:  0.0046 X   0.0657 Y  -0.0031 Z
    Strength   :     0.0003066275
    D(251) --> V(  1) amplitude =  0.9498

 Excited state  10: excitation energy (eV) =    3.1355
 Total energy for state 10:                 -2927.76561980 au
    Multiplicity: Singlet
    Trans. Mom.:  0.0748 X   4.0621 Y  -0.3761 Z
    Strength   :     1.2788416605
    D(252) --> V(  1) amplitude =  0.9382

 Excited state  11: excitation energy (eV) =    3.3698
 Total energy for state 11:                 -2927.75700836 au
    Multiplicity: Singlet
    Trans. Mom.:  0.0148 X  -0.0231 Y  -0.0139 Z
    Strength   :     0.0000780508
    D(254) --> V(  2) amplitude =  0.9941

 Excited state  12: excitation energy (eV) =    3.6549
 Total energy for state 12:                 -2927.74653407 au
    Multiplicity: Singlet
    Trans. Mom.: -0.0146 X  -0.0012 Y   0.0031 Z
    Strength   :     0.0000200057
    D(253) --> V(  2) amplitude =  0.9946

 ---------------------------------------------------

                    Orbital Energies (a.u.)
 --------------------------------------------------------------

 Alpha MOs
 -- Occupied --
-14.670 -14.670 -10.492 -10.492 -10.491 -10.491 -10.486 -10.484
-10.466 -10.466 -10.466 -10.466 -10.466 -10.466 -10.466 -10.465
-10.465 -10.464 -10.464 -10.464 -10.463 -10.463 -10.463 -10.463
-10.462 -10.462 -10.460 -10.460 -10.459 -10.459 -10.456 -10.455
-10.455 -10.454 -10.454 -10.454 -10.450 -10.450 -10.450 -10.450
-10.449 -10.449 -10.449 -10.449 -10.448 -10.448 -10.447 -10.447
-10.447 -10.447 -10.447 -10.447 -10.446 -10.445 -10.444 -10.443
-10.443 -10.443 -10.441 -10.440 -10.437 -10.437 -10.437 -10.436
-10.435 -10.435 -10.429 -10.429 -10.427 -10.427 -10.424 -10.423
-10.423 -10.415  -6.949  -6.941  -1.086  -1.080  -1.017  -1.017
 -0.964  -0.963  -0.960  -0.960  -0.960  -0.958  -0.939  -0.938
 -0.934  -0.934  -0.909  -0.900  -0.873  -0.873  -0.863  -0.858
 -0.856  -0.854  -0.851  -0.850  -0.848  -0.847  -0.841  -0.840
 -0.837  -0.836  -0.824  -0.815  -0.813  -0.805  -0.799  -0.799
 -0.768  -0.764  -0.762  -0.762  -0.736  -0.731  -0.728  -0.721
 -0.710  -0.708  -0.704  -0.703  -0.690  -0.686  -0.684  -0.680
 -0.679  -0.677  -0.669  -0.667  -0.649  -0.646  -0.644  -0.639
 -0.638  -0.638  -0.606  -0.604  -0.597  -0.595  -0.592  -0.589
 -0.587  -0.586  -0.583  -0.576  -0.576  -0.562  -0.561  -0.552
 -0.551  -0.544  -0.544  -0.541  -0.539  -0.537  -0.528  -0.524
 -0.523  -0.520  -0.517  -0.513  -0.509  -0.508  -0.504  -0.501
 -0.498  -0.496  -0.495  -0.494  -0.493  -0.490  -0.488  -0.486
 -0.486  -0.486  -0.485  -0.482  -0.482  -0.480  -0.480  -0.476
 -0.471  -0.471  -0.468  -0.466  -0.465  -0.464  -0.462  -0.461
 -0.460  -0.455  -0.445  -0.442  -0.442  -0.440  -0.439  -0.437
 -0.433  -0.429  -0.428  -0.426  -0.424  -0.424  -0.422  -0.421
 -0.419  -0.415  -0.411  -0.410  -0.407  -0.404  -0.401  -0.401
 -0.400  -0.398  -0.397  -0.396  -0.395  -0.394  -0.392  -0.391
 -0.386  -0.380  -0.379  -0.369  -0.360  -0.360  -0.354  -0.352
 -0.346  -0.338  -0.322  -0.316  -0.309  -0.302  -0.301  -0.300
 -0.298  -0.297  -0.296  -0.295  -0.285  -0.283  -0.282  -0.276
 -0.276  -0.263  -0.257  -0.257  -0.221  -0.214

          Ground-State Mulliken Net Atomic Charges

     Atom                 Charge (a.u.)
  ----------------------------------------
      1 N                    -0.659273
      2 C                     0.332385
      3 C                    -0.399506
      4 H                     0.248323
      5 C                     0.070105
      6 C                    -0.400806
      7 H                     0.248352
      8 C                     0.068217
      9 C                     0.264128
     10 C                    -0.268951
     11 H                     0.257196
     12 C                    -0.234433
     13 H                     0.238400
     14 C                    -0.249447
     15 H                     0.235028
     16 C                    -0.233076
     17 H                     0.238749
     18 C                    -0.276485
     19 H                     0.254756
     20 C                     0.260848
     21 C                    -0.275652
     22 H                     0.255002
     23 C                    -0.233352
     24 H                     0.238796
     25 C                    -0.249249
     26 H                     0.235057
     27 C                    -0.234533
     28 H                     0.238249
     29 C                    -0.266265
     30 H                     0.256100
     31 C                    -0.251405
     32 C                    -0.766742
     33 H                     0.245183
     34 H                     0.246689
     35 H                     0.245567
     36 C                    -0.765520
     37 H                     0.244892
     38 H                     0.245648
     39 H                     0.245380
     40 B                     0.677333
     41 C                    -0.149149
     42 C                    -0.391816
     43 H                     0.240920
     44 C                     0.086394
     45 C                     0.104254
     46 C                    -0.396133
     47 H                     0.240069
     48 C                    -0.152944
     49 C                     0.189493
     50 C                    -0.385557
     51 H                     0.238874
     52 C                    -0.067051
     53 C                     0.232691
     54 C                     0.186616
     55 C                    -0.388231
     56 H                     0.237779
     57 C                    -0.220870
     58 H                     0.244922
     59 C                    -0.340684
     60 H                     0.240966
     61 C                    -0.220367
     62 H                     0.244474
     63 C                    -0.342510
     64 H                     0.241289
     65 C                    -0.148779
     66 C                    -0.388773
     67 H                     0.242373
     68 C                     0.087287
     69 C                     0.106209
     70 C                    -0.400786
     71 H                     0.237800
     72 C                    -0.153258
     73 C                     0.187265
     74 C                    -0.382970
     75 H                     0.238596
     76 C                    -0.066700
     77 C                     0.234302
     78 C                     0.185883
     79 C                    -0.389516
     80 H                     0.238474
     81 C                    -0.221869
     82 H                     0.244766
     83 C                    -0.340912
     84 H                     0.240919
     85 C                    -0.219790
     86 H                     0.244582
     87 C                    -0.343742
     88 H                     0.241247
     89 B                     0.696228
     90 C                    -0.216785
     91 C                     0.047521
     92 C                    -0.356636
     93 H                     0.242081
     94 C                     0.280461
     95 C                    -0.355475
     96 H                     0.241604
     97 C                     0.047009
     98 N                    -0.672065
     99 C                     0.308762
    100 C                    -0.294033
    101 H                     0.255644
    102 C                    -0.229743
    103 H                     0.236061
    104 C                    -0.257730
    105 H                     0.232743
    106 C                    -0.228042
    107 H                     0.234223
    108 C                    -0.297543
    109 H                     0.252183
    110 C                     0.299520
    111 C                    -0.294630
    112 H                     0.255648
    113 C                    -0.230316
    114 H                     0.236481
    115 C                    -0.256305
    116 H                     0.233372
    117 C                    -0.228331
    118 H                     0.235115
    119 C                    -0.289823
    120 H                     0.251921
    121 C                    -0.767699
    122 H                     0.247606
    123 H                     0.247271
    124 H                     0.247248
    125 C                    -0.767231
    126 H                     0.247687
    127 H                     0.246949
    128 H                     0.247324
  ----------------------------------------
  Sum of atomic charges =    -0.000000

                    Cartesian Multipole Moments
 -----------------------------------------------------------------
    Charge (ESU x 10^10)
                -0.0000
    Dipole Moment (Debye)
         X      -0.1681      Y      -0.0246      Z      -1.8065
       Tot       1.8145
    Quadrupole Moments (Debye-Ang)
        XX    -434.1688     XY       2.4318     YY    -359.5476
        XZ      -3.1147     YZ      -4.5383     ZZ    -416.9512

 Total job time:  23523.63s(wall), 73659.64s(cpu)
        *  Thank you very much for using Q-Chem.  Have a nice day.  *
