 Q-Chem 5.1, Q-Chem, Inc., Pleasanton, CA (2018)
 Q-Chem 5.1.1 for Intel X86 EM64T Linux

User input:
--------------------------------------------------------------
$solvent
dielectric      2.38
dielectric_infi 2.25
$end

$rem
threads 8
jobtype	sp
method PBEh-3c
basis def2-mSVP
mem_static	1024
mem_total	14000
sym_ignore	true
cis_n_roots             2
cis_singlets            false
cis_triplets		true
rpa                     false
calc_soc 		true
cis_moments             true
cis_relaxed_density	true
solvent_method		pcm
$end

$pcm
StateSpecific   1
ChargeSeparation Excited
$end

$molecule
read ut1opt_tol.mol
$end

--------------------------------------------------------------

   14   -2927.8841105021      9.99e-09  Convergence criterion met
 Total energy in the final basis set =    -2927.8841105021
 Total job time:  12399.60s(wall), 36367.04s(cpu)
        *  Thank you very much for using Q-Chem.  Have a nice day.  *
 Q-Chem 5.1, Q-Chem, Inc., Pleasanton, CA (2018)
 Q-Chem 5.1.1 for Intel X86 EM64T Linux

User input:
--------------------------------------------------------------
$rem
threads 8
jobtype sp
method PBEh-3c
basis def2-mSVP
mem_static      1024
mem_total       14000
sym_ignore      true
cis_n_roots             6
cis_singlets            true
cis_triplets            true
rpa                     false
calc_soc                true
cis_moments             true
cis_relaxed_density     true
solvent_method          pcm
$end

$molecule
read
$end

$pcm
statespecific           Marcus
$end

$solvent
dielectric      2.38
dielectric_infi 2.25
$end

--------------------------------------------------------------

             Standard Nuclear Orientation (Angstroms)
    I     Atom           X                Y                Z
 ----------------------------------------------------------------
    1      N       0.0000000000     0.0000000000     0.0000000000
    2      C       0.0000000000     0.0000000000     1.3645800000
    3      C       1.2208932533     0.0000000000     2.0740417198
    4      H       2.1546512709    -0.0700429520     1.5307945914
    5      C       1.2266754320     0.0364105079     3.4461275199
    6      C      -1.2187632479     0.0128817992     2.0778633707
    7      H      -2.1556117540     0.0470720902     1.5362689096
    8      C      -1.2193818580     0.0619923463     3.4496854462
    9      C      -1.0873783256    -0.5203005982    -0.7388590735
   10      C      -1.6123783759    -1.7690888568    -0.4154101849
   11      H      -1.1914719606    -2.3437315250     0.3995162633
   12      C      -2.6595306539    -2.2795712956    -1.1634250319
   13      H      -3.0638259835    -3.2525752501    -0.9196439599
   14      C      -3.1758826746    -1.5564615645    -2.2297821073
   15      H      -3.9918249568    -1.9615502546    -2.8130997769
   16      C      -2.6419298458    -0.3150081744    -2.5515015076
   17      H      -3.0459114144     0.2525700016    -3.3787613726
   18      C      -1.5957466993     0.2071882417    -1.8125075550
   19      H      -1.1853595463     1.1781390058    -2.0579162764
   20      C       1.0840414579     0.5368823981    -0.7327720659
   21      C       1.5981275524    -0.1759287771    -1.8133775093
   22      H       1.1913232100    -1.1451012894    -2.0709919793
   23      C       2.6441353869     0.3589200201    -2.5432903469
   24      H       3.0535020350    -0.1979655867    -3.3752481374
   25      C       3.1712651063     1.5995327506    -2.2068639879
   26      H       3.9877381131     2.0137647776    -2.7828661603
   27      C       2.6461351407     2.3104218023    -1.1363801506
   28      H       3.0437094974     3.2832569868    -0.8815354795
   29      C       1.5995245736     1.7865559826    -0.3967200843
   30      H       1.1706551359     2.3513806476     0.4208465665
   31      C       0.0053579097     0.0927039725     4.1688792519
   32      C      -2.5142827345     0.1202290356     4.1982042396
   33      H      -3.3708117831     0.1044493203     3.5253057243
   34      H      -2.5713379139     1.0235804905     4.8070559407
   35      H      -2.6005886521    -0.7239889233     4.8839667063
   36      C       2.5239496265     0.0117703831     4.1926239929
   37      H       3.3759310545    -0.0493282389     3.5168321559
   38      H       2.5643288546    -0.8373316143     4.8760362738
   39      H       2.6336107620     0.9094479436     4.8030377863
   40      B       0.0036087024     0.2199383612     5.7452909872
   41      C      -0.0298897608    -1.0326364584     6.6134336065
   42      C      -0.0483505930    -2.3194042822     6.0343438195
   43      H      -0.0330558626    -2.4263784594     4.9527104579
   44      C      -0.0870674545    -3.4389071119     6.8240375824
   45      C      -0.1064912379    -3.3174660258     8.2454399757
   46      C      -0.0865887389    -2.0715808914     8.8266087379
   47      H      -0.1008920158    -1.9763052072     9.9070537722
   48      C      -0.0486598746    -0.9051063430     8.0364492666
   49      C      -0.1168807245    -4.8602605719     6.4850421354
   50      C      -0.1141606482    -5.5877719594     5.3200115770
   51      H      -0.0835377283    -5.1112035750     4.3474133043
   52      C      -0.1539943403    -5.5543770643     7.7109545183
   53      C      -0.1889037751    -6.9426334865     7.8201784246
   54      C      -0.1484507513    -4.6665720031     8.8072650206
   55      C      -0.1786614264    -5.2008227790    10.0716660822
   56      H      -0.1763620763    -4.5747865707    10.9550191649
   57      C      -0.1506110112    -6.9988601611     5.4017756502
   58      H      -0.1485682225    -7.5707926108     4.4820465785
   59      C      -0.1867224913    -7.6686868235     6.6035883487
   60      H      -0.2132948149    -8.7517321338     6.6176894078
   61      C      -0.2144424061    -6.6080261318    10.2134137641
   62      H      -0.2384576500    -7.0247664061    11.2122804211
   63      C      -0.2198013351    -7.4644014817     9.1362344337
   64      H      -0.2469757191    -8.5358536829     9.2941519968
   65      C       0.0179981692     1.6083386594     6.3819652293
   66      C       0.0432395484     2.7698347098     5.5829492983
   67      H       0.0570608166     2.6784616230     4.5001938160
   68      C       0.0481739256     4.0139780356     6.1573981576
   69      C       0.0305911257     4.1549477051     7.5764097392
   70      C       0.0045885959     3.0321496635     8.3723021467
   71      H      -0.0122006036     3.1306109987     9.4529610237
   72      C      -0.0023953312     1.7411666486     7.8052886362
   73      C       0.0659780906     5.3445722709     5.5619261351
   74      C       0.0809902924     5.8344660070     4.2795289420
   75      H       0.0825045557     5.1786769220     3.4168517919
   76      C       0.0625352879     6.2560741172     6.6365186904
   77      C       0.0752428089     7.6390668111     6.4819545732
   78      C       0.0419436154     5.5859111995     7.8785596263
   79      C       0.0355322855     6.3466320552     9.0208726010
   80      H       0.0191966585     5.8956080448    10.0050856754
   81      C       0.0938755362     7.2354466892     4.0941343881
   82      H       0.1052120570     7.6248137698     3.0836482264
   83      C       0.0916090422     8.1200620939     5.1490969853
   84      H       0.1013096266     9.1863555103     4.9582175121
   85      C       0.0506307143     7.7560779306     8.8963322378
   86      H       0.0466007184     8.3514828555     9.8004375374
   87      C       0.0690434241     8.3971928602     7.6783599689
   88      H       0.0792998939     9.4794623671     7.6356875118
   89      B      -0.0323510603     0.4865015060     8.6952300232
   90      C      -0.0458381921     0.5961361850    10.2727904941
   91      C      -1.2560519200     0.6043768419    10.9773917945
   92      C      -1.2614507750     0.6372242439    12.3667790790
   93      H      -2.2050817899     0.6232985585    12.9004719065
   94      C      -0.0699448856     0.6901456594    13.0773781325
   95      C       1.1344061041     0.7043678948    12.3852544094
   96      H       2.0670904192     0.7507587576    12.9359623251
   97      C       1.1526854549     0.6437855961    10.9969868721
   98      N      -0.0820781834     0.7217062157    14.4906507088
   99      C       0.6919594606    -0.2008225642    15.2052283886
  100      C       1.2775510988     0.1496998354    16.4231916678
  101      H       1.1330577601     1.1455886042    16.8219007736
  102      C       2.0458348939    -0.7686358028    17.1193375762
  103      H       2.4915741086    -0.4776994698    18.0619911528
  104      C       2.2653855495    -2.0412749921    16.6102886903
  105      H       2.8750517862    -2.7519666039    17.1521854180
  106      C       1.6939247733    -2.3876845826    15.3939886722
  107      H       1.8508756216    -3.3766650548    14.9822802094
  108      C       0.9068252638    -1.4844712200    14.6996591686
  109      H       0.4590592815    -1.7735335232    13.7577021964
  110      C      -0.9720541832     1.5882192729    15.1406722449
  111      C      -1.7037419731     1.1725991076    16.2534189533
  112      H      -1.5783899181     0.1676826021    16.6355013625
  113      C      -2.5994880148     2.0362211854    16.8635430665
  114      H      -3.1615654067     1.6937798306    17.7230650558
  115      C      -2.7975962891     3.3173660177    16.3687486766
  116      H      -3.5065548726     3.9843557378    16.8409422540
  117      C      -2.0767943927     3.7298711106    15.2562090758
  118      H      -2.2174320977     4.7262835197    14.8569575555
  119      C      -1.1656259718     2.8811364580    14.6513062466
  120      H      -0.6077019454     3.2143537014    13.7854784085
  121      C       2.4652072268     0.6342883578    10.2637416804
  122      H       3.3120128285     0.6862867353    10.9480335790
  123      H       2.5397166709     1.4756132800     9.5719356728
  124      H       2.5748890331    -0.2729248103     9.6653148858
  125      C      -2.5589250905     0.5496249756    10.2278737008
  126      H      -3.4139955827     0.5921357171    10.9023824090
  127      H      -2.6464056834     1.3803467818     9.5248045455
  128      H      -2.6417491700    -0.3672458723     9.6403504797
 ----------------------------------------------------------------

   15   -2927.8835620213      5.92e-09  Convergence criterion met
 Total energy in the final basis set =    -2927.8835620213

         TDDFT/TDA Excitation Energies
 ---------------------------------------------------

 Excited state   1: excitation energy (eV) =    2.0575
 Total energy for state  1:                 -2927.80795194 au
    Multiplicity: Triplet
    Trans. Mom.:  0.0000 X   0.0000 Y   0.0000 Z
    Strength   :     0.0000000000
    D(254) --> V(  1) amplitude =  0.9682

 Excited state   2: excitation energy (eV) =    2.0786
 Total energy for state  2:                 -2927.80717339 au
    Multiplicity: Singlet
    Trans. Mom.:  0.0050 X  -0.0188 Y  -0.1360 Z
    Strength   :     0.0009616367
    D(254) --> V(  1) amplitude =  0.9729

 Excited state   3: excitation energy (eV) =    2.2116
 Total energy for state  3:                 -2927.80228837 au
    Multiplicity: Triplet
    Trans. Mom.:  0.0000 X   0.0000 Y   0.0000 Z
    Strength   :     0.0000000000
    D(246) --> V(  2) amplitude = -0.2431
    D(251) --> V(  1) amplitude =  0.9114

 Excited state   4: excitation energy (eV) =    2.4296
 Total energy for state  4:                 -2927.79427439 au
    Multiplicity: Triplet
    Trans. Mom.:  0.0000 X   0.0000 Y   0.0000 Z
    Strength   :     0.0000000000
    D(250) --> V(  2) amplitude = -0.4767
    D(252) --> V(  1) amplitude =  0.7991

 Excited state   5: excitation energy (eV) =    2.4576
 Total energy for state  5:                 -2927.79324651 au
    Multiplicity: Triplet
    Trans. Mom.:  0.0000 X   0.0000 Y   0.0000 Z
    Strength   :     0.0000000000
    D(253) --> V(  1) amplitude =  0.9668

 Excited state   6: excitation energy (eV) =    2.4724
 Total energy for state  6:                 -2927.79270194 au
    Multiplicity: Singlet
    Trans. Mom.:  0.0042 X  -0.0090 Y  -0.0438 Z
    Strength   :     0.0001223687
    D(253) --> V(  1) amplitude =  0.9732

 Excited state   7: excitation energy (eV) =    2.4929
 Total energy for state  7:                 -2927.79195138 au
    Multiplicity: Triplet
    Trans. Mom.:  0.0000 X   0.0000 Y   0.0000 Z
    Strength   :     0.0000000000
    D(250) --> V(  1) amplitude = -0.7422
    D(250) --> V(  4) amplitude =  0.2356
    D(252) --> V(  2) amplitude =  0.5474

 Excited state   8: excitation energy (eV) =    2.7204
 Total energy for state  8:                 -2927.78359088 au
    Multiplicity: Triplet
    Trans. Mom.:  0.0000 X   0.0000 Y   0.0000 Z
    Strength   :     0.0000000000
    D(246) --> V(  1) amplitude =  0.7071
    D(251) --> V(  2) amplitude = -0.5545

 Excited state   9: excitation energy (eV) =    2.8769
 Total energy for state  9:                 -2927.77783772 au
    Multiplicity: Singlet
    Trans. Mom.: -0.0038 X  -0.0516 Y   0.0015 Z
    Strength   :     0.0001889128
    D(251) --> V(  1) amplitude =  0.9597

 Excited state  10: excitation energy (eV) =    3.1249
 Total energy for state 10:                 -2927.76872345 au
    Multiplicity: Singlet
    Trans. Mom.: -0.0736 X  -4.1290 Y   0.3857 Z
    Strength   :     1.3170413848
    D(252) --> V(  1) amplitude =  0.9484

 Excited state  11: excitation energy (eV) =    3.3472
 Total energy for state 11:                 -2927.76055432 au
    Multiplicity: Singlet
    Trans. Mom.:  0.0152 X  -0.0210 Y  -0.0141 Z
    Strength   :     0.0000713065
    D(254) --> V(  2) amplitude =  0.9942

 Excited state  12: excitation energy (eV) =    3.6602
 Total energy for state 12:                 -2927.74905354 au
    Multiplicity: Singlet
    Trans. Mom.: -0.0151 X  -0.0011 Y   0.0036 Z
    Strength   :     0.0000217632
    D(253) --> V(  2) amplitude =  0.9945

 ---------------------------------------------------

                    Orbital Energies (a.u.)
 --------------------------------------------------------------

 Alpha MOs
 -- Occupied --
-14.671 -14.670 -10.492 -10.492 -10.491 -10.491 -10.486 -10.485
-10.467 -10.467 -10.467 -10.467 -10.466 -10.466 -10.466 -10.466
-10.466 -10.465 -10.465 -10.464 -10.463 -10.463 -10.463 -10.463
-10.463 -10.463 -10.460 -10.460 -10.460 -10.460 -10.457 -10.456
-10.456 -10.455 -10.455 -10.455 -10.450 -10.450 -10.450 -10.449
-10.449 -10.449 -10.449 -10.449 -10.448 -10.448 -10.448 -10.447
-10.447 -10.447 -10.447 -10.447 -10.445 -10.445 -10.445 -10.444
-10.444 -10.444 -10.442 -10.441 -10.438 -10.438 -10.438 -10.437
-10.436 -10.436 -10.429 -10.429 -10.427 -10.427 -10.424 -10.424
-10.424 -10.415  -6.950  -6.942  -1.085  -1.081  -1.018  -1.017
 -0.964  -0.963  -0.961  -0.960  -0.960  -0.957  -0.940  -0.938
 -0.935  -0.934  -0.910  -0.901  -0.874  -0.873  -0.864  -0.858
 -0.857  -0.854  -0.851  -0.850  -0.848  -0.848  -0.841  -0.840
 -0.838  -0.837  -0.825  -0.815  -0.813  -0.805  -0.800  -0.799
 -0.769  -0.765  -0.762  -0.762  -0.737  -0.732  -0.728  -0.722
 -0.710  -0.709  -0.704  -0.703  -0.690  -0.685  -0.684  -0.681
 -0.680  -0.677  -0.670  -0.668  -0.649  -0.647  -0.645  -0.639
 -0.638  -0.638  -0.607  -0.604  -0.598  -0.595  -0.592  -0.590
 -0.587  -0.586  -0.584  -0.577  -0.577  -0.562  -0.561  -0.552
 -0.551  -0.545  -0.544  -0.542  -0.539  -0.537  -0.528  -0.525
 -0.522  -0.520  -0.517  -0.513  -0.509  -0.509  -0.505  -0.500
 -0.499  -0.497  -0.496  -0.495  -0.493  -0.491  -0.488  -0.487
 -0.487  -0.486  -0.485  -0.483  -0.483  -0.481  -0.480  -0.476
 -0.472  -0.471  -0.468  -0.467  -0.466  -0.464  -0.462  -0.461
 -0.461  -0.456  -0.445  -0.443  -0.442  -0.441  -0.439  -0.437
 -0.434  -0.429  -0.428  -0.427  -0.425  -0.425  -0.422  -0.421
 -0.419  -0.414  -0.411  -0.411  -0.407  -0.405  -0.401  -0.401
 -0.400  -0.399  -0.397  -0.397  -0.396  -0.395  -0.392  -0.392
 -0.387  -0.381  -0.379  -0.370  -0.361  -0.360  -0.354  -0.353
 -0.346  -0.338  -0.323  -0.317  -0.308  -0.303  -0.301  -0.301
 -0.298  -0.297  -0.297  -0.296  -0.286  -0.284  -0.282  -0.277
 -0.276  -0.264  -0.258  -0.257  -0.222  -0.214

          Ground-State Mulliken Net Atomic Charges

     Atom                 Charge (a.u.)
  ----------------------------------------
      1 N                    -0.658849
      2 C                     0.332179
      3 C                    -0.399898
      4 H                     0.249991
      5 C                     0.068875
      6 C                    -0.401175
      7 H                     0.249986
      8 C                     0.066909
      9 C                     0.264342
     10 C                    -0.270592
     11 H                     0.258839
     12 C                    -0.236616
     13 H                     0.240708
     14 C                    -0.251933
     15 H                     0.237254
     16 C                    -0.235285
     17 H                     0.241107
     18 C                    -0.278376
     19 H                     0.256612
     20 C                     0.260798
     21 C                    -0.277418
     22 H                     0.256833
     23 C                    -0.235598
     24 H                     0.241161
     25 C                    -0.251683
     26 H                     0.237290
     27 C                    -0.236748
     28 H                     0.240540
     29 C                    -0.267808
     30 H                     0.257829
     31 C                    -0.251146
     32 C                    -0.767740
     33 H                     0.246975
     34 H                     0.246424
     35 H                     0.245375
     36 C                    -0.766533
     37 H                     0.246669
     38 H                     0.245441
     39 H                     0.245215
     40 B                     0.676912
     41 C                    -0.149632
     42 C                    -0.392218
     43 H                     0.242991
     44 C                     0.084643
     45 C                     0.102373
     46 C                    -0.396688
     47 H                     0.241433
     48 C                    -0.153271
     49 C                     0.187509
     50 C                    -0.386541
     51 H                     0.242296
     52 C                    -0.067368
     53 C                     0.229631
     54 C                     0.184778
     55 C                    -0.389348
     56 H                     0.240816
     57 C                    -0.223506
     58 H                     0.248005
     59 C                    -0.341845
     60 H                     0.244202
     61 C                    -0.223020
     62 H                     0.247354
     63 C                    -0.343690
     64 H                     0.244500
     65 C                    -0.149139
     66 C                    -0.389339
     67 H                     0.244490
     68 C                     0.085589
     69 C                     0.104278
     70 C                    -0.401281
     71 H                     0.239172
     72 C                    -0.153669
     73 C                     0.185285
     74 C                    -0.383975
     75 H                     0.242141
     76 C                    -0.067007
     77 C                     0.231253
     78 C                     0.184032
     79 C                    -0.390603
     80 H                     0.241445
     81 C                    -0.224514
     82 H                     0.247878
     83 C                    -0.342084
     84 H                     0.244151
     85 C                    -0.222441
     86 H                     0.247462
     87 C                    -0.344918
     88 H                     0.244451
     89 B                     0.694603
     90 C                    -0.216452
     91 C                     0.046398
     92 C                    -0.358349
     93 H                     0.243541
     94 C                     0.281402
     95 C                    -0.357200
     96 H                     0.243165
     97 C                     0.045820
     98 N                    -0.671930
     99 C                     0.308309
    100 C                    -0.295442
    101 H                     0.256979
    102 C                    -0.232188
    103 H                     0.238784
    104 C                    -0.260258
    105 H                     0.235434
    106 C                    -0.230605
    107 H                     0.237086
    108 C                    -0.299331
    109 H                     0.253731
    110 C                     0.299018
    111 C                    -0.295818
    112 H                     0.256916
    113 C                    -0.232788
    114 H                     0.239210
    115 C                    -0.258749
    116 H                     0.236083
    117 C                    -0.230877
    118 H                     0.237944
    119 C                    -0.291570
    120 H                     0.253426
    121 C                    -0.768658
    122 H                     0.249057
    123 H                     0.247436
    124 H                     0.247413
    125 C                    -0.768164
    126 H                     0.249098
    127 H                     0.247123
    128 H                     0.247481
  ----------------------------------------
  Sum of atomic charges =    -0.000000

                    Cartesian Multipole Moments
 -----------------------------------------------------------------
    Charge (ESU x 10^10)
                -0.0000
    Dipole Moment (Debye)
         X      -0.1713      Y      -0.0303      Z      -1.8839
       Tot       1.8919
    Quadrupole Moments (Debye-Ang)
        XX    -433.8707     XY       2.3921     YY    -357.5021
        XZ      -3.2099     YZ      -4.7412     ZZ    -416.2116

 Total job time:  24583.03s(wall), 76037.23s(cpu)
        *  Thank you very much for using Q-Chem.  Have a nice day.  *
