 Q-Chem 5.1, Q-Chem, Inc., Pleasanton, CA (2018)
 Q-Chem 5.1.1 for Intel X86 EM64T Linux

User input:
--------------------------------------------------------------
$solvent
dielectric      1.0001
dielectric_infi 1.00009
$end

$rem
threads 8
jobtype	sp
method PBEh-3c
basis def2-mSVP
mem_static	1024
mem_total	14000
sym_ignore	true
cis_n_roots             2
cis_singlets            false
cis_triplets		true
rpa                     false
calc_soc 		true
cis_moments             true
cis_relaxed_density	true
solvent_method		pcm
$end

$pcm
StateSpecific   1
ChargeSeparation Excited
$end

$molecule
read ut1opt_vac.mol
$end

--------------------------------------------------------------

   15   -2927.8604357663      7.57e-09  Convergence criterion met
 Total energy in the final basis set =    -2927.8604357663

         TDDFT/TDA Excitation Energies
 ---------------------------------------------------

 Excited state   1: excitation energy (eV) =    2.0537
 Total energy for state  1:                 -2927.78496422 au
    Multiplicity: Triplet
    Trans. Mom.:  0.0000 X   0.0000 Y   0.0000 Z
    Strength   :     0.0000000000
    D(254) --> V(  1) amplitude =  0.9676

 Excited state   2: excitation energy (eV) =    2.4352
 Total energy for state  2:                 -2927.77094460 au
    Multiplicity: Triplet
    Trans. Mom.:  0.0000 X   0.0000 Y   0.0000 Z
    Strength   :     0.0000000000
    D(253) --> V(  1) amplitude =  0.9686

 ---------------------------------------------------

                    Orbital Energies (a.u.)
 --------------------------------------------------------------

 Alpha MOs
 -- Occupied --
-14.668 -14.666 -10.490 -10.490 -10.487 -10.487 -10.483 -10.480
-10.465 -10.465 -10.465 -10.465 -10.465 -10.465 -10.464 -10.463
-10.463 -10.463 -10.463 -10.462 -10.462 -10.462 -10.462 -10.461
-10.461 -10.460 -10.460 -10.460 -10.460 -10.460 -10.454 -10.453
-10.452 -10.452 -10.451 -10.451 -10.450 -10.450 -10.450 -10.450
-10.448 -10.447 -10.447 -10.447 -10.447 -10.447 -10.446 -10.446
-10.446 -10.445 -10.445 -10.445 -10.444 -10.444 -10.441 -10.441
-10.440 -10.440 -10.439 -10.438 -10.434 -10.434 -10.434 -10.434
-10.432 -10.431 -10.426 -10.426 -10.426 -10.426 -10.422 -10.422
-10.420 -10.411  -6.946  -6.937  -1.083  -1.077  -1.015  -1.015
 -0.962  -0.961  -0.958  -0.957  -0.957  -0.956  -0.936  -0.935
 -0.934  -0.933  -0.907  -0.898  -0.871  -0.870  -0.861  -0.856
 -0.854  -0.852  -0.850  -0.848  -0.847  -0.847  -0.841  -0.840
 -0.835  -0.833  -0.822  -0.814  -0.812  -0.803  -0.798  -0.797
 -0.766  -0.762  -0.760  -0.758  -0.735  -0.730  -0.727  -0.720
 -0.709  -0.706  -0.703  -0.701  -0.689  -0.686  -0.682  -0.680
 -0.677  -0.676  -0.667  -0.666  -0.647  -0.645  -0.642  -0.638
 -0.636  -0.636  -0.604  -0.603  -0.597  -0.593  -0.593  -0.590
 -0.585  -0.584  -0.583  -0.576  -0.576  -0.562  -0.560  -0.551
 -0.549  -0.544  -0.542  -0.539  -0.538  -0.535  -0.528  -0.524
 -0.522  -0.518  -0.516  -0.513  -0.507  -0.507  -0.504  -0.501
 -0.497  -0.494  -0.494  -0.493  -0.493  -0.489  -0.488  -0.486
 -0.484  -0.483  -0.483  -0.482  -0.481  -0.480  -0.479  -0.474
 -0.471  -0.469  -0.467  -0.466  -0.464  -0.462  -0.461  -0.459
 -0.458  -0.455  -0.444  -0.442  -0.439  -0.439  -0.438  -0.435
 -0.431  -0.427  -0.426  -0.423  -0.423  -0.422  -0.421  -0.421
 -0.418  -0.415  -0.409  -0.409  -0.406  -0.402  -0.402  -0.400
 -0.399  -0.398  -0.395  -0.395  -0.395  -0.394  -0.391  -0.390
 -0.384  -0.378  -0.376  -0.366  -0.357  -0.357  -0.351  -0.349
 -0.343  -0.335  -0.319  -0.314  -0.307  -0.300  -0.299  -0.296
 -0.296  -0.296  -0.295  -0.291  -0.282  -0.281  -0.279  -0.273
 -0.272  -0.261  -0.255  -0.254  -0.218  -0.211

          Ground-State Mulliken Net Atomic Charges

     Atom                 Charge (a.u.)
  ----------------------------------------
      1 N                    -0.662454
      2 C                     0.335682
      3 C                    -0.392079
      4 H                     0.239681
      5 C                     0.078937
      6 C                    -0.393899
      7 H                     0.240011
      8 C                     0.077016
      9 C                     0.264420
     10 C                    -0.263503
     11 H                     0.243008
     12 C                    -0.217265
     13 H                     0.221988
     14 C                    -0.232572
     15 H                     0.218955
     16 C                    -0.218678
     17 H                     0.221454
     18 C                    -0.258410
     19 H                     0.246125
     20 C                     0.261105
     21 C                    -0.262684
     22 H                     0.243412
     23 C                    -0.217514
     24 H                     0.222113
     25 C                    -0.232386
     26 H                     0.219029
     27 C                    -0.218711
     28 H                     0.221251
     29 C                    -0.255118
     30 H                     0.243845
     31 C                    -0.254016
     32 C                    -0.759414
     33 H                     0.236159
     34 H                     0.244568
     35 H                     0.243701
     36 C                    -0.757948
     37 H                     0.235946
     38 H                     0.243475
     39 H                     0.243026
     40 B                     0.678543
     41 C                    -0.147740
     42 C                    -0.390043
     43 H                     0.232461
     44 C                     0.096375
     45 C                     0.114906
     46 C                    -0.393994
     47 H                     0.230330
     48 C                    -0.151292
     49 C                     0.197235
     50 C                    -0.381184
     51 H                     0.217456
     52 C                    -0.065416
     53 C                     0.250891
     54 C                     0.200672
     55 C                    -0.378722
     56 H                     0.219166
     57 C                    -0.203886
     58 H                     0.226565
     59 C                    -0.332543
     60 H                     0.220713
     61 C                    -0.203258
     62 H                     0.226353
     63 C                    -0.334404
     64 H                     0.221098
     65 C                    -0.147599
     66 C                    -0.385835
     67 H                     0.234051
     68 C                     0.096908
     69 C                     0.117169
     70 C                    -0.399272
     71 H                     0.227834
     72 C                    -0.151380
     73 C                     0.198472
     74 C                    -0.375831
     75 H                     0.218382
     76 C                    -0.065158
     77 C                     0.252472
     78 C                     0.196327
     79 C                    -0.382741
     80 H                     0.218523
     81 C                    -0.204865
     82 H                     0.226357
     83 C                    -0.332686
     84 H                     0.220705
     85 C                    -0.202655
     86 H                     0.226421
     87 C                    -0.335686
     88 H                     0.221102
     89 B                     0.699106
     90 C                    -0.218232
     91 C                     0.054292
     92 C                    -0.346854
     93 H                     0.232715
     94 C                     0.277457
     95 C                    -0.345324
     96 H                     0.231564
     97 C                     0.054027
     98 N                    -0.672908
     99 C                     0.309970
    100 C                    -0.284439
    101 H                     0.246477
    102 C                    -0.213278
    103 H                     0.218946
    104 C                    -0.240565
    105 H                     0.215873
    106 C                    -0.210877
    107 H                     0.215913
    108 C                    -0.285066
    109 H                     0.240744
    110 C                     0.299851
    111 C                    -0.285440
    112 H                     0.246915
    113 C                    -0.213885
    114 H                     0.219393
    115 C                    -0.239342
    116 H                     0.216498
    117 C                    -0.211511
    118 H                     0.217159
    119 C                    -0.277165
    120 H                     0.240862
    121 C                    -0.760278
    122 H                     0.238963
    123 H                     0.244953
    124 H                     0.244968
    125 C                    -0.759897
    126 H                     0.239222
    127 H                     0.244437
    128 H                     0.245207
  ----------------------------------------
  Sum of atomic charges =    -0.000000

                    Cartesian Multipole Moments
 -----------------------------------------------------------------
    Charge (ESU x 10^10)
                -0.0000
    Dipole Moment (Debye)
         X      -0.1409      Y      -0.0145      Z      -1.7767
       Tot       1.7823
    Quadrupole Moments (Debye-Ang)
        XX    -436.1112     XY       2.8187     YY    -371.6172
        XZ      -2.8491     YZ      -3.8533     ZZ    -423.7666

 Total job time:  12060.55s(wall), 36422.86s(cpu)
        *  Thank you very much for using Q-Chem.  Have a nice day.  *
 Q-Chem 5.1, Q-Chem, Inc., Pleasanton, CA (2018)
 Q-Chem 5.1.1 for Intel X86 EM64T Linux

User input:
--------------------------------------------------------------
$rem
threads 8
jobtype sp
method PBEh-3c
basis def2-mSVP
mem_static      1024
mem_total       14000
sym_ignore      true
cis_n_roots             6
cis_singlets            true
cis_triplets            true
rpa                     false
calc_soc                true
cis_moments             true
cis_relaxed_density     true
solvent_method          pcm
$end

$molecule
read
$end

$pcm
statespecific           Marcus
$end

$solvent
dielectric      1.0001
dielectric_infi 1.00009
$end

--------------------------------------------------------------

             Standard Nuclear Orientation (Angstroms)
    I     Atom           X                Y                Z
 ----------------------------------------------------------------
    1      N       0.0000000000     0.0000000000     0.0000000000
    2      C       0.0000000000     0.0000000000     1.3629540000
    3      C       1.2220498371     0.0000000000     2.0739916230
    4      H       2.1550524174    -0.0668265369     1.5293758443
    5      C       1.2287536639     0.0332168977     3.4436925067
    6      C      -1.2203466661     0.0107903248     2.0772292456
    7      H      -2.1561904682     0.0429882844     1.5339940447
    8      C      -1.2231216300     0.0591711114     3.4465620156
    9      C      -1.0987523916    -0.4975382693    -0.7417210190
   10      C      -1.6053782155     0.2485318002    -1.8016815601
   11      H      -1.1821833672     1.2164437334    -2.0368556442
   12      C      -2.6598837315    -0.2520489281    -2.5443518151
   13      H      -3.0599649566     0.3309835342    -3.3626814486
   14      C      -3.2069306662    -1.4906018341    -2.2379017218
   15      H      -4.0303746738    -1.8781970272    -2.8222774100
   16      C      -2.6934912852    -2.2328078914    -1.1843901060
   17      H      -3.1085810788    -3.2035778656    -0.9502102119
   18      C      -1.6359783585    -1.7444461259    -0.4359154188
   19      H      -1.2202117973    -2.3324796371     0.3720526916
   20      C       1.0956524009     0.5123343430    -0.7369038914
   21      C       1.6066561147    -0.2217997414    -1.8029482831
   22      H       1.1867558018    -1.1887452220    -2.0475476858
   23      C       2.6601987492     0.2896356097    -2.5392360356
   24      H       3.0645846410    -0.2847037298    -3.3616583159
   25      C       3.2009575546     1.5282770103    -2.2215634440
   26      H       4.0240652415     1.9238413481    -2.8009797382
   27      C       2.6805694845     2.2606584094    -1.1643484224
   28      H       3.0896549645     3.2317996365    -0.9216435032
   29      C       1.6243457764     1.7607734888    -0.4213849001
   30      H       1.2022941277     2.3407574033     0.3891602317
   31      C       0.0043348065     0.0913307243     4.1694795253
   32      C      -2.5130087901     0.1204426424     4.1998527720
   33      H      -3.3739069732     0.0959990576     3.5326592187
   34      H      -2.5643924257     1.0292319762     4.8012506367
   35      H      -2.5886995878    -0.7157653933     4.8965402809
   36      C       2.5199974536     0.0050927379     4.1970287972
   37      H       3.3773212123    -0.0652670731     3.5287031470
   38      H       2.5461276626    -0.8387436880     4.8876296938
   39      H       2.6261362977     0.9052930139     4.8044984925
   40      B       0.0013802173     0.2230418619     5.7410561733
   41      C      -0.0486046947    -1.0288706981     6.6060319624
   42      C      -0.0765664275    -2.3175194971     6.0305812070
   43      H      -0.0554797731    -2.4302021229     4.9491564852
   44      C      -0.1315476490    -3.4326500101     6.8236829831
   45      C      -0.1581012141    -3.3059450642     8.2434741926
   46      C      -0.1284760017    -2.0582629767     8.8202649012
   47      H      -0.1480101149    -1.9562945999     9.8998852964
   48      C      -0.0739840854    -0.8959256347     8.0268917292
   49      C      -0.2176662807    -4.6522936177     8.8092259567
   50      C      -0.2617152363    -5.1817153306    10.0743018550
   51      H      -0.2587383302    -4.5522746693    10.9550139547
   52      C      -0.2259917416    -5.5441247230     7.7166691045
   53      C      -0.2765144623    -6.9309390286     7.8303894174
   54      C      -0.1743559223    -4.8549616224     6.4892759194
   55      C      -0.1729540855    -5.5860459702     5.3275899574
   56      H      -0.1313675603    -5.1127131020     4.3538416302
   57      C      -0.2249326474    -6.9958007384     5.4132503641
   58      H      -0.2236447949    -7.5712273846     4.4957492259
   59      C      -0.2751785343    -7.6602970637     6.6166110934
   60      H      -0.3134572198    -8.7428669837     6.6339364739
   61      C      -0.3132261673    -6.5874310551    10.2210775389
   62      H      -0.3480054531    -7.0002511883    11.2211342397
   63      C      -0.3210312246    -7.4471410187     9.1477114943
   64      H      -0.3605951545    -8.5174997789     9.3096010092
   65      C       0.0263159993     1.6137724593     6.3666631111
   66      C       0.0649292411     2.7726834257     5.5637437663
   67      H       0.0810727114     2.6793252183     4.4807149714
   68      C       0.0799640357     4.0171311585     6.1345802952
   69      C       0.0594539312     4.1623124305     7.5522039647
   70      C       0.0185297525     3.0419556721     8.3510077136
   71      H      -0.0018588093     3.1408253618     9.4314338094
   72      C       0.0006194257     1.7505434863     7.7880246736
   73      C       0.1123706939     5.3457116749     5.5349337694
   74      C       0.1350867380     5.8312590061     4.2519580458
   75      H       0.1313639885     5.1721395716     3.3918143357
   76      C       0.1152689169     6.2601932293     6.6060888706
   77      C       0.1422443938     7.6419075242     6.4472218974
   78      C       0.0847073744     5.5936639733     7.8495449146
   79      C       0.0837024123     6.3578989789     8.9885472936
   80      H       0.0606294489     5.9098180085     9.9737734294
   81      C       0.1621262358     7.2306887675     4.0615184463
   82      H       0.1791398150     7.6171948842     3.0500494116
   83      C       0.1664174309     8.1177786403     5.1134008844
   84      H       0.1870028445     9.1831915606     4.9189667774
   85      C       0.1134354439     7.7662601652     8.8600008877
   86      H       0.1135261309     8.3644071610     9.7621846190
   87      C       0.1410957307     8.4032119627     7.6410195601
   88      H       0.1624317728     9.4850868791     7.5954592196
   89      B      -0.0475525189     0.4982591531     8.6814346627
   90      C      -0.0713651191     0.6114985200    10.2570170935
   91      C      -1.2869156636     0.6332010806    10.9511619449
   92      C      -1.3025009720     0.6661093094    12.3396575845
   93      H      -2.2493331086     0.6630902635    12.8674208937
   94      C      -0.1159064693     0.7055633423    13.0589165320
   95      C       1.0938499739     0.7067831935    12.3765815183
   96      H       2.0216642294     0.7423189835    12.9358163780
   97      C       1.1222030983     0.6461831857    10.9892608567
   98      N      -0.1389012955     0.7355292836    14.4718187324
   99      C       0.6209941493    -0.1946037600    15.1907386687
  100      C       1.1941870265     0.1456940093    16.4170721582
  101      H       1.0506762422     1.1407159673    16.8177498088
  102      C       1.9472865614    -0.7810418277    17.1173215269
  103      H       2.3833998949    -0.4981233076    18.0667513433
  104      C       2.1642843049    -2.0519807833    16.6049258717
  105      H       2.7622811022    -2.7694316173    17.1505706319
  106      C       1.6061004610    -2.3879413439    15.3803094475
  107      H       1.7620295117    -3.3756734593    14.9655480233
  108      C       0.8339194727    -1.4766946108    14.6812464668
  109      H       0.3961105803    -1.7555701982    13.7317542472
  110      C      -1.0247146506     1.6103941010    15.1151010621
  111      C      -1.7645112924     1.2044604083    16.2257077330
  112      H      -1.6469841518     0.1999675517    16.6108857709
  113      C      -2.6562884690     2.0765035344    16.8281341156
  114      H      -3.2248768929     1.7414653365    17.6861324299
  115      C      -2.8425632549     3.3566556229    16.3281634576
  116      H      -3.5486217646     4.0304896977    16.7945853079
  117      C      -2.1140066157     3.7594703835    15.2179714289
  118      H      -2.2458753890     4.7552913243    14.8146009591
  119      C      -1.2067353674     2.9025993278    14.6203823862
  120      H      -0.6426150740     3.2262413484    13.7552214216
  121      C       2.4382905588     0.6213680177    10.2633515507
  122      H       3.2821601412     0.6651925515    10.9517476173
  123      H       2.5252403920     1.4608167930     9.5708022103
  124      H       2.5407362563    -0.2882919321     9.6674036773
  125      C      -2.5828555033     0.5919110816    10.1892905556
  126      H      -3.4439759457     0.6473063585    10.8550362909
  127      H      -2.6528119165     1.4216019520     9.4831372388
  128      H      -2.6709145423    -0.3261308160     9.6043723783
 ----------------------------------------------------------------
