 Q-Chem 5.1, Q-Chem, Inc., Pleasanton, CA (2018)
 Q-Chem 5.1.1 for Intel X86 EM64T Linux

User input:
--------------------------------------------------------------
$solvent
dielectric      2.03
dielectric_infi 2.02
$end

$rem
threads 8
jobtype	sp
method PBEh-3c
basis def2-mSVP
mem_static	1024
mem_total	14000
sym_ignore	true
cis_n_roots             2
cis_singlets            false
cis_triplets		true
rpa                     false
calc_soc 		true
cis_moments             true
cis_relaxed_density	true
solvent_method		pcm
$end

$pcm
StateSpecific   1
ChargeSeparation Excited
$end

$molecule
read utleopt_chx.mol
$end

--------------------------------------------------------------

   22   -2927.8140454250      9.50e-09  Convergence criterion met
 Total energy in the final basis set =    -2927.8140454250
 Total job time:  17205.87s(wall), 57705.50s(cpu)
        *  Thank you very much for using Q-Chem.  Have a nice day.  *
 Q-Chem 5.1, Q-Chem, Inc., Pleasanton, CA (2018)
 Q-Chem 5.1.1 for Intel X86 EM64T Linux

User input:
--------------------------------------------------------------
$rem
threads 8
jobtype sp
method PBEh-3c
basis def2-mSVP
mem_static      1024
mem_total       14000
sym_ignore      true
cis_n_roots             6
cis_singlets            true
cis_triplets            true
rpa                     false
calc_soc                true
cis_moments             true
cis_relaxed_density     true
solvent_method          pcm
$end

$molecule
read
$end

$pcm
statespecific           Marcus
$end

$solvent
dielectric      2.03
dielectric_infi 2.02
$end

--------------------------------------------------------------

             Standard Nuclear Orientation (Angstroms)
    I     Atom           X                Y                Z
 ----------------------------------------------------------------
    1      N       0.0000000000     0.0000000000     0.0000000000
    2      C       0.0000000000     0.0000000000     1.3640340000
    3      C       1.2211884147     0.0000000000     2.0738217190
    4      H       2.1548170676    -0.0697166216     1.5303541557
    5      C       1.2271716762     0.0360067041     3.4454601514
    6      C      -1.2190636570     0.0126534587     2.0776792803
    7      H      -2.1557934942     0.0465704987     1.5359123810
    8      C      -1.2199437720     0.0619167573     3.4490204296
    9      C      -1.0895479436    -0.5158197999    -0.7395966002
   10      C      -1.6176738150    -1.7637788680    -0.4188221836
   11      H      -1.1983211282    -2.3407651443     0.3952634970
   12      C      -2.6668511557    -2.2699097862    -1.1670211797
   13      H      -3.0738601581    -3.2421153902    -0.9246009293
   14      C      -3.1818197846    -1.5434689126    -2.2315955159
   15      H      -3.9992506402    -1.9450932041    -2.8151838024
   16      C      -2.6444755547    -0.3030684674    -2.5510873515
   17      H      -3.0470860530     0.2671484206    -3.3771962887
   18      C      -1.5966046229     0.2148713470    -1.8113977195
   19      H      -1.1831318686     1.1848679064    -2.0553964867
   20      C       1.0865330169     0.5322286231    -0.7334725954
   21      C       1.6003852675    -0.1848682680    -1.8110117016
   22      H       1.1913346803    -1.1537475315    -2.0661478293
   23      C       2.6480208307     0.3456116268    -2.5418876331
   24      H       3.0569000815    -0.2147065361    -3.3717726001
   25      C       3.1773220727     1.5861200374    -2.2091170678
   26      H       3.9951863669     1.9968495823    -2.7856158248
   27      C       2.6525734443     2.3013115800    -1.1414974575
   28      H       3.0520184611     3.2740127451    -0.8890951153
   29      C       1.6040205439     1.7818813200    -0.4013423623
   30      H       1.1759668697     2.3497476124     0.4145629757
   31      C       0.0053452111     0.0930591118     4.1687052568
   32      C      -2.5139515187     0.1208675894     4.1984234886
   33      H      -3.3712750009     0.1019160550     3.5266064462
   34      H      -2.5707709519     1.0260326334     4.8046356221
   35      H      -2.5977499570    -0.7209460749     4.8874147442
   36      C       2.5235566589     0.0106979175     4.1929329898
   37      H       3.3762355307    -0.0533521673     3.5182676188
   38      H       2.5611650534    -0.8366668661     4.8786238341
   39      H       2.6335102260     0.9094468112     4.8017370565
   40      B       0.0033850511     0.2219230925     5.7444415635
   41      C      -0.0328325973    -1.0300911724     6.6126620765
   42      C      -0.0531585112    -2.3175315121     6.0350216571
   43      H      -0.0367345209    -2.4261808176     4.9534894148
   44      C      -0.0952718780    -3.4358194068     6.8259496589
   45      C      -0.1162299648    -3.3126921568     8.2469994729
   46      C      -0.0942579088    -2.0661620086     8.8266921305
   47      H      -0.1096356969    -1.9691116871     9.9069413487
   48      C      -0.0529527805    -0.9008775147     8.0352894411
   49      C      -0.1281359399    -4.8575074091     6.4885176668
   50      C      -0.1259282279    -5.5863031115     5.3244647981
   51      H      -0.0929156545    -5.1108284402     4.3514083957
   52      C      -0.1684424223    -5.5501135712     7.7150545493
   53      C      -0.2070373728    -6.9380456430     7.8257980227
   54      C      -0.1621300731    -4.6609960193     8.8102284512
   55      C      -0.1954383460    -5.1937292963    10.0750399088
   56      H      -0.1929232648    -4.5666110206    10.9575901919
   57      C      -0.1660411397    -6.9971026182     5.4076505599
   58      H      -0.1643467302    -7.5701476712     4.4886124064
   59      C      -0.2052647766    -7.6653517100     6.6100948970
   60      H      -0.2346323787    -8.7483012682     6.6253440103
   61      C      -0.2349130581    -6.6005848030    10.2184023358
   62      H      -0.2613737615    -7.0160937688    11.2177081451
   63      C      -0.2409677796    -7.4581362960     9.1423533213
   64      H      -0.2710834355    -8.5293064887     9.3015492848
   65      C       0.0190086908     1.6110688399     6.3783512204
   66      C       0.0455253580     2.7717339883     5.5780643064
   67      H       0.0594718966     2.6793733258     4.4953169391
   68      C       0.0511625781     4.0162848026     6.1511835665
   69      C       0.0331703864     4.1586803747     7.5698828009
   70      C       0.0057476978     3.0367313220     8.3669187840
   71      H      -0.0116719389     3.1359216826     9.4474809242
   72      C      -0.0021961671     1.7453663791     7.8013115432
   73      C       0.0692786867     5.3463065299     5.5543504675
   74      C       0.0839836302     5.8349789112     4.2716325599
   75      H       0.0852097269     5.1782494731     3.4096643119
   76      C       0.0658305678     6.2588579594     6.6279245306
   77      C       0.0781813869     7.6415974158     6.4720080877
   78      C       0.0449191610     5.5898546652     7.8705181074
   79      C       0.0381063949     6.3516922032     9.0119268182
   80      H       0.0214323400     5.9015490522     9.9965055134
   81      C       0.0965814112     7.2356527311     4.0847365706
   82      H       0.1075746111     7.6241098060     3.0738921526
   83      C       0.0943090136     8.1211789688     5.1387636362
   84      H       0.1037001004     9.1872699015     4.9467918778
   85      C       0.0530353677     7.7609310716     8.8860643818
   86      H       0.0486519440     8.3572071371     9.7895817565
   87      C       0.0715912177     8.4008247527     7.6676148887
   88      H       0.0815848193     9.4830437937     7.6239418722
   89      B      -0.0348577037     0.4915307837     8.6924574483
   90      C      -0.0501031973     0.6027095961    10.2696732781
   91      C      -1.2612155226     0.6149376270    10.9724516932
   92      C      -1.2683062703     0.6486215462    12.3617053120
   93      H      -2.2124857602     0.6381418243    12.8944634014
   94      C      -0.0775630458     0.6984896577    13.0736479865
   95      C       1.1277304444     0.7087180100    12.3832571157
   96      H       2.0595893481     0.7526193427    12.9355012878
   97      C       1.1476628276     0.6472591418    10.9951509668
   98      N      -0.0915828299     0.7309726596    14.4869672331
   99      C       0.6777243888    -0.1941822804    15.2029529583
  100      C       1.2619679177     0.1538472396    16.4222331243
  101      H       1.1199628673     1.1501384365    16.8207493574
  102      C       2.0254707018    -0.7673307826    17.1196556959
  103      H       2.4701718881    -0.4782531850    18.0633570148
  104      C       2.2417337068    -2.0404508224    16.6107345336
  105      H       2.8477410722    -2.7534164256    17.1537012980
  106      C       1.6718832184    -2.3843299113    15.3930803538
  107      H       1.8265088475    -3.3736242814    14.9812803833
  108      C       0.8894712147    -1.4783058386    14.6973754558
  109      H       0.4429557810    -1.7650425079    13.7541459318
  110      C      -0.9781769871     1.6022712497    15.1348647007
  111      C      -1.7115021040     1.1922412995    16.2485882933
  112      H      -1.5897035351     0.1878203286    16.6330419663
  113      C      -2.6040317029     2.0606318437    16.8563853315
  114      H      -3.1674311681     1.7224125340    17.7166979988
  115      C      -2.7974377336     3.3411404763    16.3584024505
  116      H      -3.5039752223     4.0119105834    16.8288183691
  117      C      -2.0751570135     3.7480402965    15.2449054121
  118      H      -2.2122540545     4.7438719271    14.8430173095
  119      C      -1.1671316823     2.8945698651    14.6422136523
  120      H      -0.6081292045     3.2231471115    13.7753562567
  121      C       2.4607840551     0.6328852281    10.2631209573
  122      H       3.3070572590     0.6882561148    10.9478036066
  123      H       2.5362703276     1.4701298257     9.5665408104
  124      H       2.5703500515    -0.2779044084     9.6701265566
  125      C      -2.5629629941     0.5633708385    10.2208129573
  126      H      -3.4190472650     0.6109507938    10.8936952473
  127      H      -2.6458767077     1.3926725884     9.5155437797
  128      H      -2.6482701152    -0.3547268740     9.6355335945
 ----------------------------------------------------------------

   22   -2927.8139150783      9.52e-09  Convergence criterion met
 Total energy in the final basis set =    -2927.8139150783

         TDDFT/TDA Excitation Energies
 ---------------------------------------------------

 Excited state   1: excitation energy (eV) =    0.7515
 Total energy for state  1:                 -2927.78629887 au
    <S**2>     :  2.0770
    Trans. Mom.: -0.0037 X   0.0229 Y   0.4463 Z
    Strength   :     0.0036774107
    D(253) --> S(  1) amplitude =  0.9975 beta

 Excited state   2: excitation energy (eV) =    0.8402
 Total energy for state  2:                 -2927.78303864 au
    <S**2>     :  2.0744
    Trans. Mom.: -0.0026 X  -0.0066 Y  -0.0107 Z
    Strength   :     0.0000033812
    D(252) --> S(  1) amplitude =  0.9956 beta

 Excited state   3: excitation energy (eV) =    1.1722
 Total energy for state  3:                 -2927.77083831 au
    <S**2>     :  2.0693
    Trans. Mom.: -0.0097 X  -0.0064 Y  -0.0254 Z
    Strength   :     0.0000224177
    D(251) --> S(  1) amplitude =  0.9893 beta

 Excited state   4: excitation energy (eV) =    1.3386
 Total energy for state  4:                 -2927.76472393 au
    <S**2>     :  2.0674
    Trans. Mom.: -0.0016 X   0.0202 Y  -0.0313 Z
    Strength   :     0.0000455751
    D(250) --> S(  1) amplitude =  0.9893 beta

 Excited state   5: excitation energy (eV) =    1.4527
 Total energy for state  5:                 -2927.76053049 au
    <S**2>     :  2.1400
    Trans. Mom.:  0.0800 X   4.3351 Y  -0.3846 Z
    Strength   :     0.6743230080
    S(  2) --> V(  1) amplitude =  0.9763 alpha

 Excited state   6: excitation energy (eV) =    1.6278
 Total energy for state  6:                 -2927.75409486 au
    <S**2>     :  2.0725
    Trans. Mom.:  0.0000 X   0.0273 Y   0.0196 Z
    Strength   :     0.0000450185
    D(249) --> S(  1) amplitude =  0.9946 beta

 ---------------------------------------------------

                    Orbital Energies (a.u.)
 --------------------------------------------------------------

 Alpha MOs
 -- Occupied --
-14.773 -14.658 -10.550 -10.537 -10.537 -10.493 -10.493 -10.493
-10.493 -10.487 -10.487 -10.486 -10.486 -10.485 -10.485 -10.485
-10.485 -10.485 -10.484 -10.481 -10.481 -10.472 -10.466 -10.450
-10.449 -10.448 -10.447 -10.446 -10.446 -10.445 -10.445 -10.445
-10.445 -10.445 -10.444 -10.444 -10.444 -10.443 -10.443 -10.443
-10.443 -10.439 -10.438 -10.438 -10.438 -10.437 -10.437 -10.436
-10.436 -10.435 -10.435 -10.434 -10.434 -10.434 -10.433 -10.433
-10.433 -10.433 -10.432 -10.432 -10.432 -10.432 -10.432 -10.428
-10.427 -10.419 -10.419 -10.408 -10.408 -10.408 -10.407 -10.403
-10.402 -10.399  -6.901  -6.896  -1.163  -1.068  -1.006  -1.006
 -0.997  -0.996  -0.984  -0.950  -0.945  -0.939  -0.937  -0.926
 -0.917  -0.916  -0.910  -0.906  -0.894  -0.885  -0.881  -0.881
 -0.877  -0.854  -0.846  -0.844  -0.840  -0.834  -0.833  -0.831
 -0.830  -0.827  -0.826  -0.801  -0.799  -0.796  -0.792  -0.790
 -0.787  -0.781  -0.758  -0.749  -0.748  -0.746  -0.728  -0.721
 -0.714  -0.712  -0.709  -0.701  -0.695  -0.693  -0.681  -0.678
 -0.671  -0.670  -0.665  -0.661  -0.655  -0.647  -0.645  -0.634
 -0.629  -0.626  -0.625  -0.624  -0.605  -0.595  -0.594  -0.591
 -0.588  -0.577  -0.576  -0.574  -0.570  -0.565  -0.564  -0.559
 -0.556  -0.556  -0.550  -0.549  -0.538  -0.537  -0.534  -0.529
 -0.527  -0.524  -0.523  -0.522  -0.510  -0.509  -0.509  -0.506
 -0.504  -0.501  -0.499  -0.494  -0.488  -0.487  -0.485  -0.485
 -0.483  -0.478  -0.476  -0.473  -0.472  -0.472  -0.471  -0.470
 -0.470  -0.468  -0.467  -0.464  -0.462  -0.459  -0.459  -0.456
 -0.454  -0.454  -0.452  -0.447  -0.446  -0.445  -0.443  -0.441
 -0.440  -0.439  -0.437  -0.429  -0.425  -0.422  -0.421  -0.416
 -0.416  -0.413  -0.412  -0.408  -0.407  -0.405  -0.402  -0.401
 -0.396  -0.391  -0.386  -0.385  -0.382  -0.381  -0.381  -0.378
 -0.375  -0.371  -0.368  -0.355  -0.353  -0.351  -0.349  -0.344
 -0.341  -0.339  -0.331  -0.331  -0.319  -0.317  -0.316  -0.305
 -0.298  -0.293  -0.290  -0.284  -0.284  -0.282  -0.278  -0.267
 -0.267  -0.258  -0.250  -0.240  -0.236  -0.208  -0.147

 Beta MOs
 -- Occupied --
-14.763 -14.658 -10.549 -10.539 -10.539 -10.492 -10.492 -10.491
-10.491 -10.488 -10.488 -10.486 -10.486 -10.486 -10.485 -10.485
-10.485 -10.483 -10.483 -10.481 -10.481 -10.466 -10.466 -10.450
-10.450 -10.447 -10.447 -10.447 -10.446 -10.446 -10.446 -10.445
-10.445 -10.445 -10.444 -10.444 -10.444 -10.443 -10.442 -10.442
-10.442 -10.439 -10.438 -10.438 -10.438 -10.437 -10.437 -10.436
-10.435 -10.435 -10.434 -10.434 -10.434 -10.433 -10.433 -10.433
-10.433 -10.433 -10.432 -10.432 -10.432 -10.431 -10.431 -10.429
-10.428 -10.419 -10.419 -10.408 -10.408 -10.407 -10.407 -10.402
-10.401 -10.399  -6.898  -6.893  -1.149  -1.068  -1.005  -1.002
 -0.996  -0.996  -0.979  -0.950  -0.945  -0.938  -0.936  -0.926
 -0.916  -0.916  -0.908  -0.901  -0.893  -0.884  -0.880  -0.879
 -0.877  -0.854  -0.845  -0.840  -0.838  -0.832  -0.832  -0.830
 -0.829  -0.827  -0.826  -0.797  -0.795  -0.794  -0.792  -0.786
 -0.785  -0.779  -0.753  -0.748  -0.747  -0.746  -0.725  -0.719
 -0.713  -0.709  -0.708  -0.700  -0.694  -0.693  -0.679  -0.676
 -0.670  -0.670  -0.664  -0.660  -0.651  -0.645  -0.643  -0.631
 -0.628  -0.626  -0.625  -0.624  -0.603  -0.595  -0.591  -0.584
 -0.579  -0.576  -0.575  -0.573  -0.569  -0.565  -0.561  -0.558
 -0.555  -0.554  -0.549  -0.548  -0.537  -0.537  -0.533  -0.528
 -0.526  -0.523  -0.523  -0.521  -0.509  -0.509  -0.508  -0.502
 -0.501  -0.498  -0.496  -0.492  -0.487  -0.485  -0.484  -0.482
 -0.478  -0.476  -0.474  -0.472  -0.472  -0.471  -0.470  -0.470
 -0.468  -0.466  -0.466  -0.463  -0.462  -0.458  -0.455  -0.454
 -0.453  -0.452  -0.451  -0.447  -0.446  -0.444  -0.443  -0.439
 -0.438  -0.435  -0.435  -0.429  -0.424  -0.422  -0.420  -0.416
 -0.413  -0.411  -0.411  -0.407  -0.405  -0.401  -0.401  -0.395
 -0.391  -0.386  -0.385  -0.381  -0.379  -0.379  -0.378  -0.378
 -0.374  -0.369  -0.367  -0.352  -0.347  -0.346  -0.344  -0.343
 -0.337  -0.332  -0.330  -0.322  -0.316  -0.312  -0.302  -0.298
 -0.294  -0.293  -0.290  -0.284  -0.280  -0.279  -0.267  -0.258
 -0.256  -0.243  -0.237  -0.229  -0.208

          Ground-State Mulliken Net Atomic Charges

     Atom                 Charge (a.u.)    Spin (a.u.)
  --------------------------------------------------------
      1 N                    -0.587280       0.335892
      2 C                     0.349608       0.044943
      3 C                    -0.360341       0.148298
      4 H                     0.281519      -0.007805
      5 C                     0.058785      -0.110616
      6 C                    -0.361635       0.148034
      7 H                     0.281372      -0.007820
      8 C                     0.056791      -0.110075
      9 C                     0.251253      -0.066727
     10 C                    -0.255783       0.085459
     11 H                     0.282504      -0.004426
     12 C                    -0.231749      -0.058683
     13 H                     0.263321       0.003292
     14 C                    -0.226171       0.092237
     15 H                     0.260708      -0.005085
     16 C                    -0.230378      -0.054111
     17 H                     0.261132       0.002817
     18 C                    -0.257428       0.081160
     19 H                     0.275555      -0.004274
     20 C                     0.247106      -0.066293
     21 C                    -0.256679       0.080668
     22 H                     0.275266      -0.004251
     23 C                    -0.230720      -0.053791
     24 H                     0.260973       0.002791
     25 C                    -0.225885       0.092091
     26 H                     0.260809      -0.005076
     27 C                    -0.231992      -0.058646
     28 H                     0.263912       0.003306
     29 C                    -0.253154       0.085533
     30 H                     0.282801      -0.004450
     31 C                    -0.138953       0.378817
     32 C                    -0.755337       0.008945
     33 H                     0.242077       0.001128
     34 H                     0.272351      -0.004041
     35 H                     0.270272      -0.002906
     36 C                    -0.754020       0.009240
     37 H                     0.241893       0.001078
     38 H                     0.270075      -0.004013
     39 H                     0.271104      -0.002912
     40 B                     0.547269       0.345394
     41 C                    -0.132584       0.011637
     42 C                    -0.406694      -0.001704
     43 H                     0.198194      -0.001919
     44 C                     0.066344       0.027414
     45 C                     0.084181       0.101291
     46 C                    -0.403555      -0.062506
     47 H                     0.226659       0.002618
     48 C                    -0.146221       0.070905
     49 C                     0.187061      -0.040905
     50 C                    -0.400883       0.064831
     51 H                     0.216442      -0.003848
     52 C                    -0.077597       0.022996
     53 C                     0.233360      -0.037136
     54 C                     0.185564      -0.058823
     55 C                    -0.402515       0.086662
     56 H                     0.230106      -0.005091
     57 C                    -0.219772      -0.043499
     58 H                     0.230356       0.002167
     59 C                    -0.353550       0.060634
     60 H                     0.229508      -0.003544
     61 C                    -0.218045      -0.053354
     62 H                     0.234964       0.002582
     63 C                    -0.356888       0.078531
     64 H                     0.229412      -0.004653
     65 C                    -0.131573       0.014206
     66 C                    -0.402463      -0.004628
     67 H                     0.196888      -0.002068
     68 C                     0.066684       0.030614
     69 C                     0.086118       0.100501
     70 C                    -0.408335      -0.061838
     71 H                     0.224419       0.002578
     72 C                    -0.146496       0.069883
     73 C                     0.185118      -0.042177
     74 C                    -0.398472       0.066989
     75 H                     0.214291      -0.003978
     76 C                    -0.077473       0.023338
     77 C                     0.234984      -0.037836
     78 C                     0.184790      -0.059052
     79 C                    -0.403874       0.087430
     80 H                     0.230837      -0.005133
     81 C                    -0.220633      -0.044765
     82 H                     0.229486       0.002228
     83 C                    -0.354163       0.062960
     84 H                     0.229316      -0.003686
     85 C                    -0.217389      -0.054022
     86 H                     0.235099       0.002616
     87 C                    -0.358266       0.079442
     88 H                     0.229317      -0.004707
     89 B                     0.584253       0.266748
     90 C                    -0.189408      -0.023256
     91 C                     0.040438       0.003099
     92 C                    -0.359162      -0.000773
     93 H                     0.233919       0.000334
     94 C                     0.275594       0.000666
     95 C                    -0.358040      -0.000800
     96 H                     0.233343       0.000330
     97 C                     0.039761       0.003010
     98 N                    -0.671317       0.000057
     99 C                     0.309526      -0.000026
    100 C                    -0.295038       0.000047
    101 H                     0.253455      -0.000003
    102 C                    -0.230263      -0.000036
    103 H                     0.232569       0.000002
    104 C                    -0.259162       0.000054
    105 H                     0.229269      -0.000003
    106 C                    -0.228592      -0.000037
    107 H                     0.233283       0.000002
    108 C                    -0.297636       0.000049
    109 H                     0.256150      -0.000002
    110 C                     0.300457      -0.000030
    111 C                    -0.295316       0.000049
    112 H                     0.253777      -0.000003
    113 C                    -0.230811      -0.000036
    114 H                     0.233135       0.000002
    115 C                    -0.257697       0.000055
    116 H                     0.229887      -0.000003
    117 C                    -0.228754      -0.000038
    118 H                     0.233629       0.000002
    119 C                    -0.289531       0.000048
    120 H                     0.254734      -0.000002
    121 C                    -0.759430       0.000652
    122 H                     0.235225       0.001413
    123 H                     0.244871      -0.000722
    124 H                     0.244513      -0.000729
    125 C                    -0.758981       0.000575
    126 H                     0.235339       0.001418
    127 H                     0.244183      -0.000748
    128 H                     0.244817      -0.000667
  --------------------------------------------------------
  Sum of atomic charges =    -0.000000

                    Cartesian Multipole Moments
 -----------------------------------------------------------------
    Charge (ESU x 10^10)
                -0.0000
    Dipole Moment (Debye)
         X      -0.0293      Y      -1.3389      Z     -26.3076
       Tot      26.3417
    Quadrupole Moments (Debye-Ang)
        XX    -422.5106     XY       7.2329     YY    -428.9053
        XZ      -1.6448     YZ      -9.5055     ZZ    -617.0529

 Total job time:  22961.04s(wall), 74540.82s(cpu)
        *  Thank you very much for using Q-Chem.  Have a nice day.  *
