 Q-Chem 5.1, Q-Chem, Inc., Pleasanton, CA (2018)
 Q-Chem 5.1.1 for Intel X86 EM64T Linux

User input:
--------------------------------------------------------------
$solvent
dielectric      2.38
dielectric_infi 2.25
$end

$rem
threads 8
jobtype	sp
method PBEh-3c
basis def2-mSVP
mem_static	1024
mem_total	14000
sym_ignore	true
cis_n_roots             2
cis_singlets            false
cis_triplets		true
rpa                     false
calc_soc 		true
cis_moments             true
cis_relaxed_density	true
solvent_method		pcm
$end

$pcm
StateSpecific   1
ChargeSeparation Excited
$end

$molecule
read utleopt_tol.mol
$end

--------------------------------------------------------------

   22   -2927.8182349220      8.75e-09  Convergence criterion met
 Total energy in the final basis set =    -2927.8182349220

                    Orbital Energies (a.u.)
 --------------------------------------------------------------

 Alpha MOs
 -- Occupied --
-14.771 -14.660 -10.548 -10.535 -10.535 -10.491 -10.490 -10.490
-10.490 -10.486 -10.485 -10.484 -10.483 -10.483 -10.483 -10.483
-10.483 -10.482 -10.482 -10.482 -10.481 -10.469 -10.468 -10.451
-10.451 -10.449 -10.448 -10.447 -10.447 -10.447 -10.447 -10.446
-10.446 -10.446 -10.446 -10.445 -10.445 -10.445 -10.444 -10.444
-10.444 -10.440 -10.440 -10.439 -10.439 -10.438 -10.437 -10.437
-10.437 -10.437 -10.436 -10.436 -10.436 -10.435 -10.435 -10.435
-10.435 -10.434 -10.434 -10.434 -10.434 -10.433 -10.433 -10.431
-10.429 -10.422 -10.421 -10.410 -10.410 -10.409 -10.409 -10.404
-10.404 -10.400  -6.901  -6.897  -1.161  -1.070  -1.004  -1.003
 -0.998  -0.998  -0.982  -0.952  -0.947  -0.941  -0.939  -0.928
 -0.918  -0.918  -0.908  -0.904  -0.892  -0.887  -0.879  -0.879
 -0.878  -0.856  -0.847  -0.843  -0.842  -0.835  -0.835  -0.832
 -0.832  -0.828  -0.828  -0.802  -0.798  -0.797  -0.794  -0.789
 -0.788  -0.783  -0.756  -0.750  -0.748  -0.747  -0.725  -0.718
 -0.716  -0.712  -0.711  -0.702  -0.696  -0.695  -0.679  -0.676
 -0.672  -0.672  -0.667  -0.662  -0.656  -0.646  -0.645  -0.632
 -0.630  -0.628  -0.626  -0.626  -0.603  -0.597  -0.592  -0.588
 -0.587  -0.578  -0.577  -0.575  -0.572  -0.566  -0.561  -0.559
 -0.558  -0.555  -0.551  -0.550  -0.539  -0.536  -0.532  -0.530
 -0.526  -0.524  -0.524  -0.520  -0.511  -0.510  -0.510  -0.505
 -0.505  -0.500  -0.500  -0.493  -0.489  -0.487  -0.486  -0.485
 -0.484  -0.477  -0.477  -0.474  -0.474  -0.473  -0.471  -0.471
 -0.470  -0.470  -0.469  -0.465  -0.463  -0.457  -0.457  -0.456
 -0.456  -0.453  -0.451  -0.448  -0.448  -0.445  -0.445  -0.440
 -0.438  -0.437  -0.436  -0.431  -0.427  -0.424  -0.423  -0.418
 -0.417  -0.413  -0.413  -0.410  -0.409  -0.407  -0.403  -0.400
 -0.398  -0.392  -0.388  -0.386  -0.383  -0.383  -0.382  -0.380
 -0.376  -0.372  -0.370  -0.357  -0.355  -0.351  -0.346  -0.346
 -0.339  -0.338  -0.333  -0.330  -0.318  -0.317  -0.316  -0.307
 -0.300  -0.295  -0.292  -0.286  -0.285  -0.283  -0.276  -0.269
 -0.269  -0.261  -0.252  -0.241  -0.238  -0.210  -0.148

 Beta MOs
 -- Occupied --
-14.761 -14.660 -10.547 -10.536 -10.536 -10.489 -10.489 -10.489
-10.488 -10.487 -10.486 -10.483 -10.483 -10.483 -10.483 -10.483
-10.482 -10.482 -10.482 -10.481 -10.480 -10.468 -10.464 -10.452
-10.451 -10.448 -10.448 -10.448 -10.447 -10.447 -10.447 -10.446
-10.446 -10.446 -10.445 -10.445 -10.445 -10.444 -10.444 -10.444
-10.443 -10.440 -10.440 -10.439 -10.439 -10.437 -10.437 -10.437
-10.436 -10.436 -10.436 -10.436 -10.435 -10.435 -10.435 -10.435
-10.435 -10.434 -10.434 -10.434 -10.434 -10.433 -10.432 -10.431
-10.430 -10.422 -10.421 -10.410 -10.410 -10.408 -10.408 -10.404
-10.403 -10.401  -6.898  -6.894  -1.146  -1.070  -1.002  -1.000
 -0.998  -0.998  -0.977  -0.952  -0.947  -0.940  -0.938  -0.927
 -0.918  -0.917  -0.907  -0.899  -0.890  -0.886  -0.878  -0.877
 -0.876  -0.856  -0.847  -0.842  -0.837  -0.834  -0.833  -0.831
 -0.831  -0.828  -0.828  -0.799  -0.796  -0.794  -0.793  -0.788
 -0.784  -0.781  -0.751  -0.750  -0.748  -0.744  -0.723  -0.717
 -0.715  -0.711  -0.709  -0.702  -0.696  -0.695  -0.677  -0.674
 -0.672  -0.672  -0.665  -0.661  -0.653  -0.644  -0.643  -0.631
 -0.628  -0.628  -0.626  -0.626  -0.601  -0.597  -0.589  -0.584
 -0.577  -0.576  -0.576  -0.575  -0.570  -0.566  -0.559  -0.558
 -0.557  -0.553  -0.551  -0.548  -0.539  -0.535  -0.530  -0.530
 -0.525  -0.523  -0.523  -0.520  -0.510  -0.510  -0.510  -0.503
 -0.500  -0.499  -0.495  -0.492  -0.488  -0.487  -0.486  -0.483
 -0.477  -0.477  -0.474  -0.473  -0.473  -0.473  -0.470  -0.470
 -0.468  -0.468  -0.466  -0.465  -0.463  -0.456  -0.456  -0.455
 -0.453  -0.451  -0.448  -0.448  -0.448  -0.445  -0.444  -0.437
 -0.437  -0.435  -0.433  -0.430  -0.425  -0.424  -0.422  -0.417
 -0.414  -0.413  -0.411  -0.408  -0.406  -0.403  -0.403  -0.396
 -0.392  -0.388  -0.386  -0.382  -0.381  -0.380  -0.379  -0.377
 -0.375  -0.371  -0.369  -0.354  -0.347  -0.347  -0.345  -0.342
 -0.334  -0.331  -0.330  -0.323  -0.317  -0.310  -0.301  -0.300
 -0.296  -0.295  -0.292  -0.286  -0.281  -0.281  -0.269  -0.261
 -0.258  -0.244  -0.238  -0.231  -0.210

          Ground-State Mulliken Net Atomic Charges

     Atom                 Charge (a.u.)    Spin (a.u.)
  --------------------------------------------------------
      1 N                    -0.585767       0.341336
      2 C                     0.349942       0.038814
      3 C                    -0.364044       0.154855
      4 H                     0.285041      -0.008055
      5 C                     0.058462      -0.116348
      6 C                    -0.358123       0.150129
      7 H                     0.282897      -0.007905
      8 C                     0.058842      -0.110590
      9 C                     0.255828      -0.067763
     10 C                    -0.257690       0.087220
     11 H                     0.284225      -0.004519
     12 C                    -0.234134      -0.059880
     13 H                     0.264932       0.003352
     14 C                    -0.227719       0.094442
     15 H                     0.262578      -0.005199
     16 C                    -0.232461      -0.055464
     17 H                     0.263266       0.002882
     18 C                    -0.259145       0.082965
     19 H                     0.277905      -0.004354
     20 C                     0.242161      -0.065783
     21 C                    -0.255270       0.080381
     22 H                     0.276674      -0.004250
     23 C                    -0.233179      -0.053402
     24 H                     0.262996       0.002793
     25 C                    -0.227221       0.092004
     26 H                     0.262812      -0.005064
     27 C                    -0.233542      -0.058532
     28 H                     0.266111       0.003288
     29 C                    -0.252416       0.085462
     30 H                     0.284894      -0.004410
     31 C                    -0.141983       0.376267
     32 C                    -0.755669       0.008921
     33 H                     0.244416       0.001099
     34 H                     0.267935      -0.002983
     35 H                     0.270895      -0.003946
     36 C                    -0.756496       0.009569
     37 H                     0.244588       0.001116
     38 H                     0.268843      -0.004223
     39 H                     0.270790      -0.003209
     40 B                     0.545902       0.341074
     41 C                    -0.133761       0.012276
     42 C                    -0.409595      -0.003255
     43 H                     0.202802      -0.001565
     44 C                     0.066984       0.029212
     45 C                     0.083330       0.098577
     46 C                    -0.405268      -0.060872
     47 H                     0.227237       0.002538
     48 C                    -0.145587       0.068709
     49 C                     0.180780      -0.041131
     50 C                    -0.400664       0.065007
     51 H                     0.221905      -0.003840
     52 C                    -0.076764       0.022730
     53 C                     0.233223      -0.036843
     54 C                     0.182664      -0.058027
     55 C                    -0.404103       0.085638
     56 H                     0.232945      -0.005021
     57 C                    -0.223329      -0.043508
     58 H                     0.234228       0.002158
     59 C                    -0.356080       0.061015
     60 H                     0.232741      -0.003562
     61 C                    -0.220936      -0.052969
     62 H                     0.237776       0.002561
     63 C                    -0.359778       0.077900
     64 H                     0.232701      -0.004605
     65 C                    -0.131211       0.018994
     66 C                    -0.400012      -0.008085
     67 H                     0.200989      -0.002113
     68 C                     0.064021       0.033986
     69 C                     0.080638       0.098942
     70 C                    -0.409052      -0.061201
     71 H                     0.225759       0.002529
     72 C                    -0.148440       0.068845
     73 C                     0.185237      -0.043285
     74 C                    -0.401896       0.068705
     75 H                     0.217541      -0.004075
     76 C                    -0.078478       0.023637
     77 C                     0.229381      -0.038346
     78 C                     0.184153      -0.058902
     79 C                    -0.406215       0.087589
     80 H                     0.233369      -0.005138
     81 C                    -0.222894      -0.045597
     82 H                     0.232932       0.002259
     83 C                    -0.354874       0.064180
     84 H                     0.232893      -0.003748
     85 C                    -0.220064      -0.054125
     86 H                     0.238091       0.002616
     87 C                    -0.358293       0.079380
     88 H                     0.232894      -0.004686
     89 B                     0.578926       0.268532
     90 C                    -0.187677      -0.023413
     91 C                     0.039464       0.003191
     92 C                    -0.361167      -0.000855
     93 H                     0.235169       0.000342
     94 C                     0.277370       0.000704
     95 C                    -0.363169      -0.000815
     96 H                     0.235485       0.000338
     97 C                     0.038991       0.003094
     98 N                    -0.671873       0.000038
     99 C                     0.309922      -0.000022
    100 C                    -0.298405       0.000040
    101 H                     0.254875      -0.000002
    102 C                    -0.232308      -0.000031
    103 H                     0.235711       0.000001
    104 C                    -0.261638       0.000045
    105 H                     0.232312      -0.000003
    106 C                    -0.231230      -0.000032
    107 H                     0.236153       0.000002
    108 C                    -0.298676       0.000041
    109 H                     0.256771      -0.000002
    110 C                     0.300425      -0.000022
    111 C                    -0.295227       0.000041
    112 H                     0.254813      -0.000002
    113 C                    -0.233158      -0.000032
    114 H                     0.235808       0.000001
    115 C                    -0.260543       0.000046
    116 H                     0.232685      -0.000003
    117 C                    -0.231081      -0.000033
    118 H                     0.236619       0.000002
    119 C                    -0.292379       0.000041
    120 H                     0.256713      -0.000002
    121 C                    -0.759668       0.000656
    122 H                     0.236691       0.001427
    123 H                     0.245969      -0.000763
    124 H                     0.243150      -0.000673
    125 C                    -0.760290       0.000586
    126 H                     0.236920       0.001426
    127 H                     0.244294      -0.000607
    128 H                     0.245257      -0.000855
  --------------------------------------------------------
  Sum of atomic charges =    -0.000000

                    Cartesian Multipole Moments
 -----------------------------------------------------------------
    Charge (ESU x 10^10)
                -0.0000
    Dipole Moment (Debye)
         X      -0.4434      Y      -2.6369      Z     -26.5726
       Tot      26.7068
    Quadrupole Moments (Debye-Ang)
        XX    -421.4331     XY       6.5923     YY    -428.7333
        XZ      -3.0185     YZ     -17.7651     ZZ    -616.7950

 Total job time:  20846.34s(wall), 72111.90s(cpu)
        *  Thank you very much for using Q-Chem.  Have a nice day.  *
 Q-Chem 5.1, Q-Chem, Inc., Pleasanton, CA (2018)
 Q-Chem 5.1.1 for Intel X86 EM64T Linux

User input:
--------------------------------------------------------------
$rem
threads 8
jobtype sp
method PBEh-3c
basis def2-mSVP
mem_static      1024
mem_total       14000
sym_ignore      true
cis_n_roots             6
cis_singlets            true
cis_triplets            true
rpa                     false
calc_soc                true
cis_moments             true
cis_relaxed_density     true
solvent_method          pcm
$end

$molecule
read
$end

$pcm
statespecific           Marcus
$end

$solvent
dielectric      2.38
dielectric_infi 2.25
$end

--------------------------------------------------------------

             Standard Nuclear Orientation (Angstroms)
    I     Atom           X                Y                Z
 ----------------------------------------------------------------
    1      N       0.0000000000     0.0000000000     0.0000000000
    2      C       0.0000000000     0.0000000000     1.3642140000
    3      C       1.2275748506     0.0000000000     2.0631448955
    4      H       2.1554919659    -0.0799835802     1.5117850358
    5      C       1.2483580170     0.0615979627     3.4326457750
    6      C      -1.2146754248     0.0184831945     2.0854729837
    7      H      -2.1561457258     0.0437648495     1.5520045218
    8      C      -1.2003120405     0.0892619846     3.4564550360
    9      C      -1.0862388738    -0.5085125631    -0.7479628389
   10      C      -1.6258337488    -1.7523540177    -0.4319902386
   11      H      -1.2176663385    -2.3319512646     0.3859643214
   12      C      -2.6694552575    -2.2513181780    -1.1928019017
   13      H      -3.0856093579    -3.2207660957    -0.9554573476
   14      C      -3.1669423241    -1.5206251504    -2.2630248044
   15      H      -3.9802483561    -1.9163743780    -2.8562071231
   16      C      -2.6172332308    -0.2840477109    -2.5770674773
   17      H      -3.0057350595     0.2886833602    -3.4081853488
   18      C      -1.5740174397     0.2259473256    -1.8260357137
   19      H      -1.1484769310     1.1920151793    -2.0648308428
   20      C       1.0963177130     0.5248025548    -0.7246836826
   21      C       1.6294360711    -0.2026998043    -1.7856756363
   22      H       1.2226310668    -1.1723009515    -2.0425784226
   23      C       2.6970928086     0.3167805451    -2.4958686248
   24      H       3.1219634004    -0.2520494848    -3.3117864257
   25      C       3.2267483521     1.5560064549    -2.1595368845
   26      H       4.0610721813     1.9574956729    -2.7188532571
   27      C       2.6823234849     2.2818224658    -1.1092442544
   28      H       3.0828646223     3.2532839313    -0.8531671284
   29      C       1.6147530697     1.7734833797    -0.3893973415
   30      H       1.1769610219     2.3490536767     0.4162185261
   31      C       0.0323218108     0.1438109680     4.1601630125
   32      C      -2.4827750397     0.1667945127     4.2234711707
   33      H      -3.3510425975     0.0751814582     3.5721720119
   34      H      -2.5304660293    -0.6218728221     4.9757323909
   35      H      -2.5547122605     1.1136707962     4.7609654744
   36      C       2.5525525066     0.0560824029     4.1682226828
   37      H       3.3987154069    -0.0315136812     3.4876222385
   38      H       2.5961135817    -0.7676336706     4.8816225489
   39      H       2.6715107941     0.9744308758     4.7458167941
   40      B       0.0651510121     0.3821571539     5.7183109658
   41      C       0.1189027765    -0.7862661973     6.6937391417
   42      C       0.1271098448    -2.1205888975     6.2360245983
   43      H       0.0818208771    -2.3247381645     5.1694821777
   44      C       0.1950723018    -3.1626101459     7.1244155598
   45      C       0.2554068972    -2.9094617693     8.5261285045
   46      C       0.2465151409    -1.6137398635     8.9902206485
   47      H       0.2950838059    -1.4182361642    10.0566113468
   48      C       0.1789590713    -0.5252748217     8.0968954104
   49      C       0.2261902717    -4.6065112323     6.9184289518
   50      C       0.2000680437    -5.4306200639     5.8215132340
   51      H       0.1425040613    -5.0377835510     4.8133815739
   52      C       0.3035227632    -5.1864112447     8.1995220270
   53      C       0.3555134324    -6.5565299006     8.4315809077
   54      C       0.3232933222    -4.1990041647     9.2076767014
   55      C       0.3976783374    -4.6101403256    10.5140981288
   56      H       0.4157735538    -3.9023664960    11.3336540573
   57      C       0.2514303004    -6.8276384229     6.0276742438
   58      H       0.2312385464    -7.4795007659     5.1632271845
   59      C       0.3265728794    -7.3867406022     7.2835367554
   60      H       0.3641444659    -8.4637609868     7.3925583774
   61      C       0.4510769558    -5.9980735193    10.7821399498
   62      H       0.5093383537    -6.3200167349    11.8140792209
   63      C       0.4320264843    -6.9515498943     9.7893855955
   64      H       0.4755089213    -8.0025279792    10.0474372092
   65      C       0.0752816843     1.8244145148     6.2174640735
   66      C       0.0481756383     2.9061432020     5.3136163650
   67      H       0.0194717072     2.7207504912     4.2435660966
   68      C       0.0617688651     4.1969728371     5.7703562688
   69      C       0.1000531003     4.4716083325     7.1700946106
   70      C       0.1284900534     3.4289386940     8.0668463404
   71      H       0.1591988037     3.6287436151     9.1334263181
   72      C       0.1212785914     2.0912667780     7.6196117884
   73      C       0.0438144053     5.4688018838     5.0532085353
   74      C       0.0085617027     5.8445986405     3.7321458199
   75      H      -0.0164354621     5.1146283929     2.9318716031
   76      C       0.0714210567     6.4752857934     6.0375316294
   77      C       0.0657901307     7.8402243845     5.7544785333
   78      C       0.1050808373     5.9263762155     7.3370046838
   79      C       0.1339349713     6.7964557735     8.3996286541
   80      H       0.1604371179     6.4445381969     9.4232852597
   81      C       0.0026141949     7.2228085163     3.4169122684
   82      H      -0.0256845877     7.5163940347     2.3748376317
   83      C       0.0301564067     8.2006190061     4.3849948463
   84      H       0.0239587719     9.2458386676     4.0996123006
   85      C       0.1287615418     8.1881587447     8.1427061020
   86      H       0.1518259120     8.8663847880     8.9863366065
   87      C       0.0960023311     8.7108658858     6.8703477801
   88      H       0.0932227996     9.7842007469     6.7228691472
   89      B       0.1798521701     0.9257010352     8.6172362830
   90      C       0.2686630173     1.1909603594    10.1698684162
   91      C      -0.8853545220     1.2145774795    10.9624544263
   92      C      -0.7886416672     1.3399528346    12.3436235581
   93      H      -1.6858273465     1.3214288008    12.9518432179
   94      C       0.4531367171     1.4743845921    12.9525843347
   95      C       1.5972088866     1.5071439570    12.1657838415
   96      H       2.5655438603     1.6305579884    12.6374568317
   97      C       1.5148392262     1.3541252537    10.7879546828
   98      N       0.5645429694     1.5532203551    14.3594520129
   99      C      -0.2396409875     2.4490346567    15.0723308028
  100      C      -0.7545043356     2.1116114145    16.3254197416
  101      H      -0.5331324844     1.1434110356    16.7560153696
  102      C      -1.5525264164     3.0076787389    17.0176023308
  103      H      -1.9426853372     2.7271121712    17.9877425875
  104      C      -1.8714992361     4.2429420478    16.4709179368
  105      H      -2.5031973800     4.9356452730    17.0109091612
  106      C      -1.3702546838     4.5753983333    15.2199778016
  107      H      -1.6047796578     5.5359226792    14.7789140906
  108      C      -0.5552260561     3.6954435604    14.5282187162
  109      H      -0.1621740899     3.9727838160    13.5585742262
  110      C       1.5085974072     0.7429350057    15.0050496925
  111      C       2.2675502781     1.2293330279    16.0701505442
  112      H       2.1256321587     2.2460785527    16.4139644198
  113      C       3.2134964184     0.4221163841    16.6813578038
  114      H       3.7941077443     0.8192425414    17.5043647752
  115      C       3.4380169009    -0.8718374586    16.2329232623
  116      H       4.1865018095    -1.4942479722    16.7050213588
  117      C       2.6920876443    -1.3539803245    15.1661891581
  118      H       2.8523436056    -2.3610852466    14.8026918915
  119      C       1.7302783033    -0.5624064026    14.5621084594
  120      H       1.1546026376    -0.9517134850    13.7322258065
  121      C      -2.2339383010     1.0731429479    10.3131735117
  122      H      -3.0427798366     1.1160091185    11.0425992049
  123      H      -2.3184377189     0.1271122623     9.7744073440
  124      H      -2.4013059807     1.8656844389     9.5807727647
  125      C       2.7684295773     1.3646335267     9.9570450656
  126      H       3.6604675174     1.4787929758    10.5732006418
  127      H       2.7560610847     2.1795288870     9.2304984150
  128      H       2.8735009115     0.4392189766     9.3867569863
 ----------------------------------------------------------------

   22   -2927.8168852741      9.01e-09  Convergence criterion met
 Total energy in the final basis set =    -2927.8168852741

         TDDFT/TDA Excitation Energies
 ---------------------------------------------------

 Excited state   1: excitation energy (eV) =    0.7824
 Total energy for state  1:                 -2927.78813160 au
    <S**2>     :  2.0774
    Trans. Mom.: -0.0145 X  -0.0467 Y  -0.4112 Z
    Strength   :     0.0032878937
    D(253) --> S(  1) amplitude =  0.9975 beta

 Excited state   2: excitation energy (eV) =    0.9251
 Total energy for state  2:                 -2927.78288777 au
    <S**2>     :  2.0749
    Trans. Mom.:  0.0025 X  -0.0046 Y  -0.0483 Z
    Strength   :     0.0000535200
    D(252) --> S(  1) amplitude =  0.9953 beta

 Excited state   3: excitation energy (eV) =    1.2469
 Total energy for state  3:                 -2927.77106172 au
    <S**2>     :  2.0697
    Trans. Mom.:  0.0100 X  -0.0033 Y  -0.0268 Z
    Strength   :     0.0000253906
    D(251) --> S(  1) amplitude =  0.9831 beta

 Excited state   4: excitation energy (eV) =    1.4115
 Total energy for state  4:                 -2927.76501461 au
    <S**2>     :  2.0679
    Trans. Mom.:  0.0026 X   0.1361 Y  -0.0517 Z
    Strength   :     0.0007334330
    D(250) --> S(  1) amplitude =  0.9825 beta

 Excited state   5: excitation energy (eV) =    1.4356
 Total energy for state  5:                 -2927.76412862 au
    <S**2>     :  2.1381
    Trans. Mom.: -0.0901 X   4.3489 Y  -0.7804 Z
    Strength   :     0.6868894833
    S(  2) --> V(  1) amplitude =  0.9767 alpha

 Excited state   6: excitation energy (eV) =    1.7102
 Total energy for state  6:                 -2927.75403558 au
    <S**2>     :  2.0729
    Trans. Mom.: -0.0012 X   0.0440 Y   0.0484 Z
    Strength   :     0.0001791882
    D(249) --> S(  1) amplitude =  0.9845 beta

 ---------------------------------------------------
