 Q-Chem 5.1, Q-Chem, Inc., Pleasanton, CA (2018)
 Q-Chem 5.1.1 for Intel X86 EM64T Linux

User input:
--------------------------------------------------------------
$solvent
dielectric      8.93
dielectric_infi 2.03
$end

$rem
threads 8
jobtype	sp
method PBEh-3c
basis def2-mSVP
mem_static	1024
mem_total	14000
sym_ignore	true
cis_n_roots             2
cis_singlets            false
cis_triplets		true
rpa                     false
calc_soc 		true
cis_moments             true
cis_relaxed_density	true
solvent_method		pcm
$end

$pcm
StateSpecific   1
ChargeSeparation Excited
$end

$molecule
read utleopt_dcm.mol
$end

--------------------------------------------------------------

   22   -2927.8411385309      7.89e-09  Convergence criterion met
 Total energy in the final basis set =    -2927.8411385309
 Total job time:  15989.83s(wall), 55564.56s(cpu)
        *  Thank you very much for using Q-Chem.  Have a nice day.  *
 Q-Chem 5.1, Q-Chem, Inc., Pleasanton, CA (2018)
 Q-Chem 5.1.1 for Intel X86 EM64T Linux

User input:
--------------------------------------------------------------
$rem
threads 8
jobtype sp
method PBEh-3c
basis def2-mSVP
mem_static      1024
mem_total       14000
sym_ignore      true
cis_n_roots             6
cis_singlets            true
cis_triplets            true
rpa                     false
calc_soc                true
cis_moments             true
cis_relaxed_density     true
solvent_method          pcm
$end

$molecule
read
$end

$pcm
statespecific           Marcus
$end

$solvent
dielectric      8.93
dielectric_infi 2.03
$end

--------------------------------------------------------------

             Standard Nuclear Orientation (Angstroms)
    I     Atom           X                Y                Z
 ----------------------------------------------------------------
    1      N       0.0000000000     0.0000000000     0.0000000000
    2      C       0.0000000000     0.0000000000     1.3688430000
    3      C       1.2195213884     0.0000000000     2.0748260890
    4      H       2.1532988788    -0.0738316930     1.5318890365
    5      C       1.2253947956     0.0423770304     3.4493744643
    6      C      -1.2162892387     0.0171857743     2.0802933448
    7      H      -2.1541756877     0.0529459359     1.5403272490
    8      C      -1.2143979543     0.0706096926     3.4547351549
    9      C      -1.0706096831    -0.5487914053    -0.7361685591
   10      C      -1.5835630349    -1.7987278965    -0.3923375941
   11      H      -1.1592425367    -2.3563387121     0.4324538111
   12      C      -2.6175925097    -2.3350229572    -1.1399416121
   13      H      -3.0102161529    -3.3096664286    -0.8838375108
   14      C      -3.1350452134    -1.6363556717    -2.2230877195
   15      H      -3.9412789360    -2.0621560211    -2.8053513239
   16      C      -2.6146886512    -0.3931506198    -2.5633584162
   17      H      -3.0207610712     0.1553186826    -3.4024236862
   18      C      -1.5801231889     0.1545954125    -1.8273190105
   19      H      -1.1838479633     1.1282306524    -2.0847481401
   20      C       1.0671866012     0.5711552352    -0.7260785128
   21      C       1.5568831518     1.8267733057    -0.3695180558
   22      H       1.1150989349     2.3717220791     0.4546050419
   23      C       2.5881051013     2.3850409541    -1.1050169451
   24      H       2.9633213703     3.3635872076    -0.8383244782
   25      C       3.1257858784     1.7015096130    -2.1881283427
   26      H       3.9307941545     2.1429444272    -2.7602671241
   27      C       2.6261357048     0.4536771870    -2.5426707732
   28      H       3.0466897120    -0.0818010610    -3.3830868591
   29      C       1.5937429334    -0.1151371889    -1.8195617024
   30      H       1.2113061921    -1.0911745188    -2.0883313495
   31      C       0.0077460838     0.1019874597     4.1702360409
   32      C      -2.5135480416     0.1308474968     4.1989555065
   33      H      -3.3661070226     0.1203516424     3.5211051134
   34      H      -2.5738546486     1.0331850535     4.8091981920
   35      H      -2.6095523580    -0.7172483915     4.8787981083
   36      C       2.5282195800     0.0214618621     4.1894827936
   37      H       3.3752386153    -0.0384353459     3.5075506310
   38      H       2.5777801784    -0.8285167584     4.8714438654
   39      H       2.6432960691     0.9209793230     4.7963524683
   40      B       0.0087175640     0.2382548146     5.7478044225
   41      C      -0.0220192978    -1.0059109813     6.6318749472
   42      C      -0.0430902370    -2.2964482593     6.0614466243
   43      H      -0.0341225412    -2.4096790151     4.9807583995
   44      C      -0.0764272194    -3.4115138863     6.8594224688
   45      C      -0.0873074431    -3.2806082314     8.2812284912
   46      C      -0.0662410348    -2.0308419899     8.8541803200
   47      H      -0.0752093575    -1.9309920661     9.9344103040
   48      C      -0.0338502351    -0.8684411576     8.0554388837
   49      C      -0.1069620680    -4.8349671253     6.5301437543
   50      C      -0.1115377763    -5.5698478083     5.3688514999
   51      H      -0.0889316785    -5.0998827392     4.3928500249
   52      C      -0.1349645743    -5.5209443616     7.7614758266
   53      C      -0.1672441252    -6.9091294659     7.8799924575
   54      C      -0.1234273322    -4.6264950752     8.8527262025
   55      C      -0.1440125807    -5.1523757015    10.1216523881
   56      H      -0.1360861543    -4.5211354307    11.0014682767
   57      C      -0.1457129678    -6.9810402020     5.4608518995
   58      H      -0.1497512213    -7.5584126179     4.5446138704
   59      C      -0.1725499545    -7.6437083371     6.6677221699
   60      H      -0.1977263249    -8.7266664804     6.6893681966
   61      C      -0.1766836744    -6.5592879122    10.2724522291
   62      H      -0.1928625232    -6.9697445583    11.2740886504
   63      C      -0.1883932946    -7.4227991338     9.1999528669
   64      H      -0.2129366051    -8.4933719617     9.3643781487
   65      C       0.0265273255     1.6308034781     6.3817450016
   66      C       0.0518673475     2.7858856668     5.5736029575
   67      H       0.0636213816     2.6857315558     4.4919956620
   68      C       0.0599811035     4.0353643840     6.1387926654
   69      C       0.0448558348     4.1878210770     7.5576291345
   70      C       0.0201780079     3.0713557257     8.3626585501
   71      H       0.0069763191     3.1811025489     9.4424172509
   72      C       0.0109163520     1.7746861143     7.8054086803
   73      C       0.0798102298     5.3609592945     5.5325955131
   74      C       0.0963864606     5.8396198153     4.2452099571
   75      H       0.0979197415     5.1770360370     3.3877619851
   76      C       0.0786663651     6.2811505953     6.6003807241
   77      C       0.0943028773     7.6634037689     6.4343143322
   78      C       0.0584858617     5.6218584577     7.8485811152
   79      C       0.0547477167     6.3919228680     8.9854822677
   80      H       0.0388268173     5.9496432286     9.9738334082
   81      C       0.1123223868     7.2398095825     4.0489444043
   82      H       0.1252389652     7.6201607748     3.0351356346
   83      C       0.1115676357     8.1338178072     5.0969420449
   84      H       0.1237315547     9.1985398429     4.8975753404
   85      C       0.0721673409     7.8008434076     8.8489047099
   86      H       0.0700912974     8.4038446840     9.7479800460
   87      C       0.0906496284     8.4318195115     7.6247399891
   88      H       0.1030348255     9.5136929722     7.5725369126
   89      B      -0.0148692917     0.5271509342     8.7051425451
   90      C      -0.0196850242     0.6465708269    10.2830627116
   91      C      -1.2257895785     0.6599925654    10.9955128700
   92      C      -1.2236501478     0.6976383369    12.3854695160
   93      H      -2.1653498404     0.6858705507    12.9228767775
   94      C      -0.0280791619     0.7485923040    13.0900507703
   95      C       1.1725079477     0.7584978433    12.3903563033
   96      H       2.1092309709     0.8049596951    12.9344531525
   97      C       1.1829123176     0.6947117218    11.0017144485
   98      N      -0.0307846710     0.7808517476    14.5027198930
   99      C       0.7418974582    -0.1479791719    15.2125806987
  100      C       1.3426394909     0.2017634812    16.4235472483
  101      H       1.2119802956     1.2000790097    16.8214107783
  102      C       2.1096211535    -0.7216418767    17.1156727525
  103      H       2.5674478682    -0.4318263056    18.0529076418
  104      C       2.3117310699    -1.9987452523    16.6086316799
  105      H       2.9198995071    -2.7133373270    17.1472557982
  106      C       1.7240126368    -2.3448797664    15.3993944036
  107      H       1.8658954768    -3.3373878075    14.9905717665
  108      C       0.9383533760    -1.4357617528    14.7095685159
  109      H       0.4768835328    -1.7266525853    13.7745449880
  110      C      -0.9218009830     1.6424731680    15.1596481361
  111      C      -1.6577586780     1.2156503856    16.2654318724
  112      H      -1.5372667277     0.2062959576    16.6376142520
  113      C      -2.5535702622     2.0749593384    16.8830171404
  114      H      -3.1190184675     1.7244176847    17.7370934130
  115      C      -2.7465131477     3.3627802216    16.4019267532
  116      H      -3.4548925915     4.0263784301    16.8799156891
  117      C      -2.0206826302     3.7867727688    15.2961858061
  118      H      -2.1563646704     4.7886077841    14.9088227027
  119      C      -1.1096019473     2.9417272120    14.6843907231
  120      H      -0.5466644968     3.2858154859    13.8257900147
  121      C       2.4932383645     0.6823461420    10.2641016799
  122      H       3.3421841084     0.7345694021    10.9456443130
  123      H       2.5671870179     1.5227507429     9.5710202116
  124      H       2.6008800248    -0.2256172560     9.6663568501
  125      C      -2.5347439062     0.6039224510    10.2562806014
  126      H      -3.3844208141     0.6497286110    10.9372678170
  127      H      -2.6278595134     1.4315987848     9.5502733912
  128      H      -2.6235154681    -0.3153179699     9.6732902921
 ----------------------------------------------------------------

   25   -2927.8311696168      8.56e-09  Convergence criterion met
 Total energy in the final basis set =    -2927.8311696168

         TDDFT/TDA Excitation Energies
 ---------------------------------------------------

 Excited state   1: excitation energy (eV) =    0.7806
 Total energy for state  1:                 -2927.80248273 au
    <S**2>     :  2.0858
    Trans. Mom.: -0.0025 X   0.0173 Y   0.3627 Z
    Strength   :     0.0025212288
    D(253) --> S(  1) amplitude =  0.9987 beta

 Excited state   2: excitation energy (eV) =    1.1959
 Total energy for state  2:                 -2927.78722264 au
    <S**2>     :  2.0871
    Trans. Mom.: -0.0067 X   0.0053 Y   0.0046 Z
    Strength   :     0.0000027297
    D(252) --> S(  1) amplitude =  0.9980 beta

 Excited state   3: excitation energy (eV) =    1.3977
 Total energy for state  3:                 -2927.77980426 au
    <S**2>     :  2.1427
    Trans. Mom.: -0.0902 X  -4.4795 Y   0.4395 Z
    Strength   :     0.6940078060
    S(  2) --> V(  1) amplitude =  0.9782 alpha

 Excited state   4: excitation energy (eV) =    1.4734
 Total energy for state  4:                 -2927.77702142 au
    <S**2>     :  2.0796
    Trans. Mom.:  0.0014 X  -0.0270 Y  -0.0223 Z
    Strength   :     0.0000442686
    D(251) --> S(  1) amplitude =  0.9925 beta

 Excited state   5: excitation energy (eV) =    1.6342
 Total energy for state  5:                 -2927.77111510 au
    <S**2>     :  2.0779
    Trans. Mom.:  0.0273 X  -0.0082 Y   0.0879 Z
    Strength   :     0.0003420172
    D(250) --> S(  1) amplitude =  0.9885 beta

 Excited state   6: excitation energy (eV) =    1.6995
 Total energy for state  6:                 -2927.76871467 au
    <S**2>     :  2.1051
    Trans. Mom.: -0.3350 X   0.2699 Y  -0.0445 Z
    Strength   :     0.0077893096
    D(243) --> S(  1) amplitude = -0.9800 beta

 ---------------------------------------------------

                    Orbital Energies (a.u.)
 --------------------------------------------------------------

 Alpha MOs
 -- Occupied --
-14.775 -14.667 -10.533 -10.533 -10.523 -10.490 -10.490 -10.486
-10.486 -10.485 -10.485 -10.480 -10.480 -10.479 -10.475 -10.475
-10.474 -10.474 -10.471 -10.471 -10.470 -10.470 -10.457 -10.457
-10.453 -10.453 -10.452 -10.452 -10.452 -10.451 -10.451 -10.451
-10.451 -10.450 -10.450 -10.450 -10.450 -10.450 -10.449 -10.449
-10.448 -10.448 -10.448 -10.448 -10.448 -10.446 -10.446 -10.446
-10.445 -10.444 -10.444 -10.443 -10.443 -10.442 -10.441 -10.441
-10.440 -10.440 -10.439 -10.439 -10.438 -10.435 -10.435 -10.430
-10.430 -10.425 -10.425 -10.416 -10.416 -10.414 -10.413 -10.409
-10.408 -10.404  -6.908  -6.897  -1.153  -1.083  -1.004  -1.004
 -0.999  -0.993  -0.973  -0.961  -0.954  -0.946  -0.944  -0.933
 -0.923  -0.923  -0.896  -0.895  -0.889  -0.886  -0.884  -0.870
 -0.870  -0.865  -0.854  -0.849  -0.842  -0.840  -0.839  -0.838
 -0.837  -0.836  -0.836  -0.807  -0.801  -0.799  -0.794  -0.788
 -0.785  -0.780  -0.756  -0.754  -0.746  -0.745  -0.721  -0.718
 -0.715  -0.715  -0.707  -0.707  -0.704  -0.701  -0.683  -0.677
 -0.677  -0.672  -0.667  -0.666  -0.660  -0.651  -0.642  -0.636
 -0.633  -0.631  -0.630  -0.620  -0.601  -0.595  -0.586  -0.584
 -0.584  -0.582  -0.581  -0.581  -0.576  -0.570  -0.562  -0.562
 -0.558  -0.552  -0.552  -0.547  -0.540  -0.536  -0.530  -0.528
 -0.527  -0.526  -0.519  -0.514  -0.514  -0.513  -0.511  -0.510
 -0.505  -0.496  -0.495  -0.492  -0.490  -0.489  -0.488  -0.487
 -0.486  -0.484  -0.481  -0.479  -0.477  -0.476  -0.476  -0.474
 -0.473  -0.470  -0.468  -0.468  -0.464  -0.462  -0.460  -0.457
 -0.455  -0.454  -0.452  -0.451  -0.447  -0.444  -0.444  -0.440
 -0.434  -0.433  -0.431  -0.430  -0.428  -0.427  -0.426  -0.424
 -0.422  -0.418  -0.416  -0.413  -0.413  -0.412  -0.405  -0.402
 -0.401  -0.398  -0.397  -0.397  -0.389  -0.389  -0.387  -0.383
 -0.380  -0.376  -0.373  -0.360  -0.360  -0.352  -0.350  -0.340
 -0.339  -0.334  -0.333  -0.325  -0.321  -0.313  -0.311  -0.307
 -0.306  -0.300  -0.300  -0.296  -0.291  -0.289  -0.278  -0.275
 -0.275  -0.270  -0.257  -0.247  -0.244  -0.209  -0.153

 Beta MOs
 -- Occupied --
-14.764 -14.667 -10.535 -10.534 -10.524 -10.490 -10.490 -10.484
-10.484 -10.483 -10.483 -10.479 -10.477 -10.477 -10.476 -10.476
-10.475 -10.475 -10.472 -10.472 -10.468 -10.468 -10.457 -10.457
-10.454 -10.454 -10.452 -10.452 -10.452 -10.451 -10.451 -10.451
-10.450 -10.450 -10.450 -10.449 -10.449 -10.449 -10.448 -10.448
-10.448 -10.448 -10.448 -10.448 -10.446 -10.446 -10.446 -10.446
-10.445 -10.444 -10.443 -10.443 -10.443 -10.441 -10.440 -10.440
-10.440 -10.439 -10.439 -10.439 -10.438 -10.436 -10.435 -10.430
-10.430 -10.425 -10.425 -10.416 -10.416 -10.413 -10.413 -10.408
-10.408 -10.404  -6.905  -6.895  -1.135  -1.083  -1.003  -1.003
 -0.996  -0.990  -0.968  -0.961  -0.954  -0.945  -0.943  -0.933
 -0.922  -0.922  -0.893  -0.893  -0.887  -0.885  -0.883  -0.868
 -0.868  -0.865  -0.854  -0.849  -0.841  -0.839  -0.839  -0.837
 -0.836  -0.836  -0.829  -0.804  -0.800  -0.798  -0.794  -0.786
 -0.781  -0.777  -0.755  -0.754  -0.742  -0.741  -0.719  -0.716
 -0.714  -0.712  -0.706  -0.704  -0.704  -0.701  -0.683  -0.676
 -0.676  -0.670  -0.666  -0.664  -0.656  -0.649  -0.640  -0.636
 -0.633  -0.631  -0.630  -0.617  -0.601  -0.592  -0.584  -0.583
 -0.580  -0.579  -0.579  -0.575  -0.570  -0.569  -0.561  -0.561
 -0.558  -0.551  -0.550  -0.547  -0.539  -0.536  -0.529  -0.527
 -0.525  -0.525  -0.518  -0.514  -0.514  -0.511  -0.511  -0.509
 -0.503  -0.496  -0.494  -0.490  -0.490  -0.488  -0.486  -0.485
 -0.484  -0.481  -0.480  -0.477  -0.475  -0.475  -0.473  -0.472
 -0.469  -0.469  -0.468  -0.468  -0.462  -0.460  -0.456  -0.456
 -0.455  -0.453  -0.452  -0.450  -0.443  -0.443  -0.438  -0.437
 -0.434  -0.432  -0.429  -0.428  -0.426  -0.425  -0.424  -0.421
 -0.420  -0.417  -0.413  -0.412  -0.411  -0.409  -0.402  -0.401
 -0.400  -0.397  -0.396  -0.387  -0.386  -0.386  -0.383  -0.379
 -0.377  -0.374  -0.372  -0.357  -0.352  -0.349  -0.348  -0.337
 -0.329  -0.327  -0.325  -0.321  -0.320  -0.307  -0.306  -0.302
 -0.300  -0.296  -0.295  -0.293  -0.287  -0.287  -0.277  -0.270
 -0.264  -0.250  -0.244  -0.237  -0.209

          Ground-State Mulliken Net Atomic Charges

     Atom                 Charge (a.u.)    Spin (a.u.)
  --------------------------------------------------------
      1 N                    -0.655705       0.000072
      2 C                     0.319289       0.000679
      3 C                    -0.404510      -0.000844
      4 H                     0.247436       0.000359
      5 C                     0.049142       0.003338
      6 C                    -0.405420      -0.000853
      7 H                     0.247352       0.000358
      8 C                     0.047059       0.003305
      9 C                     0.266568      -0.000041
     10 C                    -0.280311       0.000051
     11 H                     0.265795      -0.000002
     12 C                    -0.247058      -0.000038
     13 H                     0.251437       0.000002
     14 C                    -0.265807       0.000068
     15 H                     0.246446      -0.000004
     16 C                    -0.245761      -0.000043
     17 H                     0.250952       0.000002
     18 C                    -0.289773       0.000067
     19 H                     0.262455      -0.000004
     20 C                     0.260170      -0.000042
     21 C                    -0.276243       0.000052
     22 H                     0.265956      -0.000000
     23 C                    -0.247574      -0.000040
     24 H                     0.251583       0.000002
     25 C                    -0.264910       0.000070
     26 H                     0.246619      -0.000004
     27 C                    -0.246461      -0.000044
     28 H                     0.250970       0.000002
     29 C                    -0.287653       0.000069
     30 H                     0.262259      -0.000004
     31 C                    -0.211172      -0.024803
     32 C                    -0.761742       0.000708
     33 H                     0.242046       0.001357
     34 H                     0.243746      -0.000854
     35 H                     0.242201      -0.000704
     36 C                    -0.760841       0.000690
     37 H                     0.241881       0.001327
     38 H                     0.242422      -0.000705
     39 H                     0.242736      -0.000790
     40 B                     0.537236       0.277852
     41 C                    -0.143810       0.056683
     42 C                    -0.407108      -0.049880
     43 H                     0.228267       0.001817
     44 C                     0.053498       0.082322
     45 C                     0.070437       0.053069
     46 C                    -0.414184      -0.026721
     47 H                     0.220937      -0.000107
     48 C                    -0.140840       0.028525
     49 C                     0.174511      -0.055781
     50 C                    -0.408221       0.084593
     51 H                     0.244716      -0.004925
     52 C                    -0.080796       0.024126
     53 C                     0.214810      -0.039201
     54 C                     0.172239      -0.047998
     55 C                    -0.411785       0.075082
     56 H                     0.239560      -0.004390
     57 C                    -0.234182      -0.052944
     58 H                     0.251219       0.002542
     59 C                    -0.362824       0.077558
     60 H                     0.247103      -0.004528
     61 C                    -0.234120      -0.048769
     62 H                     0.248798       0.002370
     63 C                    -0.364137       0.069450
     64 H                     0.247594      -0.004028
     65 C                    -0.143028       0.057841
     66 C                    -0.404855      -0.051046
     67 H                     0.230001       0.001889
     68 C                     0.054532       0.083796
     69 C                     0.072694       0.050236
     70 C                    -0.419256      -0.024077
     71 H                     0.220094      -0.000012
     72 C                    -0.141617       0.025034
     73 C                     0.172543      -0.056110
     74 C                    -0.405842       0.084876
     75 H                     0.244660      -0.004939
     76 C                    -0.080339       0.023979
     77 C                     0.216381      -0.038901
     78 C                     0.171357      -0.047072
     79 C                    -0.412759       0.073629
     80 H                     0.240768      -0.004299
     81 C                    -0.235227      -0.053057
     82 H                     0.250999       0.002546
     83 C                    -0.363208       0.078086
     84 H                     0.246962      -0.004564
     85 C                    -0.233553      -0.048098
     86 H                     0.249238       0.002340
     87 C                    -0.365132       0.068210
     88 H                     0.247552      -0.003954
     89 B                     0.546799       0.327337
     90 C                    -0.138651       0.179031
     91 C                     0.031053      -0.080660
     92 C                    -0.335273       0.112858
     93 H                     0.275410      -0.005698
     94 C                     0.273484      -0.022748
     95 C                    -0.334806       0.113592
     96 H                     0.276098      -0.005624
     97 C                     0.029956      -0.082714
     98 N                    -0.571594       0.434101
     99 C                     0.301427      -0.084069
    100 C                    -0.266676       0.145953
    101 H                     0.295530      -0.007504
    102 C                    -0.237316      -0.101912
    103 H                     0.277074       0.004925
    104 C                    -0.226458       0.179315
    105 H                     0.279434      -0.009640
    106 C                    -0.236726      -0.103640
    107 H                     0.278634       0.005289
    108 C                    -0.270243       0.148918
    109 H                     0.298230      -0.007670
    110 C                     0.291752      -0.082282
    111 C                    -0.267630       0.140152
    112 H                     0.294053      -0.007286
    113 C                    -0.237831      -0.096455
    114 H                     0.277111       0.004848
    115 C                    -0.226760       0.170092
    116 H                     0.279048      -0.009154
    117 C                    -0.236353      -0.099396
    118 H                     0.277947       0.004985
    119 C                    -0.264914       0.141558
    120 H                     0.296420      -0.007236
    121 C                    -0.760488       0.007441
    122 H                     0.251928       0.001351
    123 H                     0.257591      -0.003699
    124 H                     0.257931      -0.002678
    125 C                    -0.759997       0.007358
    126 H                     0.251796       0.001353
    127 H                     0.257696      -0.002477
    128 H                     0.257859      -0.003727
  --------------------------------------------------------
  Sum of atomic charges =    -0.000000

                    Cartesian Multipole Moments
 -----------------------------------------------------------------
    Charge (ESU x 10^10)
                -0.0000
    Dipole Moment (Debye)
         X      -0.4656      Y       1.4068      Z      30.7515
       Tot      30.7872
    Quadrupole Moments (Debye-Ang)
        XX    -423.4125     XY      -9.4742     YY    -412.0128
        XZ      -8.1412     YZ      32.1904     ZZ     283.5132

 Total job time:  23907.67s(wall), 81275.94s(cpu)
        *  Thank you very much for using Q-Chem.  Have a nice day.  *
