 Q-Chem 5.1, Q-Chem, Inc., Pleasanton, CA (2018)
 Q-Chem 5.1.1 for Intel X86 EM64T Linux

User input:
--------------------------------------------------------------
$solvent
dielectric      4.33
dielectric_infi 1.83
$end

$rem
threads 8
jobtype	sp
method PBEh-3c
basis def2-mSVP
mem_static	1024
mem_total	14000
sym_ignore	true
cis_n_roots             2
cis_singlets            false
cis_triplets		true
rpa                     false
calc_soc 		true
cis_moments             true
cis_relaxed_density	true
solvent_method		pcm
$end

$pcm
StateSpecific   1
ChargeSeparation Excited
$end

$molecule
read utleopt_eth.mol
$end

--------------------------------------------------------------

   14   -2927.8928325392      9.03e-09  Convergence criterion met
 Total energy in the final basis set =    -2927.8928325392
 Total job time:  11540.36s(wall), 32796.64s(cpu)
        *  Thank you very much for using Q-Chem.  Have a nice day.  *
 Q-Chem 5.1, Q-Chem, Inc., Pleasanton, CA (2018)
 Q-Chem 5.1.1 for Intel X86 EM64T Linux

User input:
--------------------------------------------------------------
$rem
threads 8
jobtype sp
method PBEh-3c
basis def2-mSVP
mem_static      1024
mem_total       14000
sym_ignore      true
cis_n_roots             6
cis_singlets            true
cis_triplets            true
rpa                     false
calc_soc                true
cis_moments             true
cis_relaxed_density     true
solvent_method          pcm
$end

$molecule
read
$end

$pcm
statespecific           Marcus
$end

$solvent
dielectric      4.33
dielectric_infi 1.83
$end

--------------------------------------------------------------

 Total job time:  11712.48s(wall), 32900.01s(cpu)
 Q-Chem 5.1, Q-Chem, Inc., Pleasanton, CA (2018)
 Q-Chem 5.1.1 for Intel X86 EM64T Linux

User input:
--------------------------------------------------------------
$rem
threads 8
jobtype sp
method PBEh-3c
basis def2-mSVP
mem_static      1024
mem_total       14000
sym_ignore      true
cis_n_roots             6
cis_singlets            true
cis_triplets            true
rpa                     false
calc_soc                true
cis_moments             true
cis_relaxed_density     true
solvent_method          pcm
$end

$molecule
read
$end

$pcm
statespecific           Marcus
$end

$solvent
dielectric      4.33
dielectric_infi 1.83
$end

--------------------------------------------------------------

             Standard Nuclear Orientation (Angstroms)
    I     Atom           X                Y                Z
 ----------------------------------------------------------------
    1      N       0.0000000000     0.0000000000     0.0000000000
    2      C       0.0000000000     0.0000000000     1.3667570000
    3      C       1.2201925199     0.0000000000     2.0743204998
    4      H       2.1539628135    -0.0723987005     1.5312339488
    5      C       1.2260780659     0.0401100706     3.4477963460
    6      C      -1.2173767336     0.0155170565     2.0791911349
    7      H      -2.1548358188     0.0505927250     1.5385527260
    8      C      -1.2164867937     0.0675514297     3.4524453756
    9      C      -1.0783478047    -0.5356731536    -0.7375470023
   10      C      -1.5977361742    -1.7845321485    -0.4022008338
   11      H      -1.1755846480    -2.3497451093     0.4185862023
   12      C      -2.6379624728    -2.3089034199    -1.1499554703
   13      H      -3.0366561665    -3.2823738852    -0.8988588876
   14      C      -3.1541560501    -1.5994914439    -2.2261718222
   15      H      -3.9649786675    -2.0157232899    -2.8088963415
   16      C      -2.6266295102    -0.3576399590    -2.5587801605
   17      H      -3.0311832620     0.1992413774    -3.3930113762
   18      C      -1.5865376211     0.1783044876    -1.8214930637
   19      H      -1.1832074926     1.1502975494    -2.0742165129
   20      C       1.0750230838     0.5561730279    -0.7287929947
   21      C       1.5757028189     1.8093021032    -0.3809911273
   22      H       1.1389123973     2.3629717020     0.4400027211
   23      C       2.6141341659     2.3526281535    -1.1178208609
   24      H       2.9990347746     3.3287437857    -0.8561090794
   25      C       3.1469753395     1.6570303445    -2.1951300147
   26      H       3.9574044274     2.0865697173    -2.7685704415
   27      C       2.6354809308     0.4122294954    -2.5419961087
   28      H       3.0516684258    -0.1326437093    -3.3785280438
   29      C       1.5966625479    -0.1418080243    -1.8163991234
   30      H       1.2036327837    -1.1148923962    -2.0805671692
   31      C       0.0068753168     0.0987886468     4.1694315847
   32      C      -2.5136999904     0.1274726667     4.1986561627
   33      H      -3.3681171327     0.1144187022     3.5231118038
   34      H      -2.5724651430     1.0304745483     4.8079442536
   35      H      -2.6055191969    -0.7184717068     4.8816298861
   36      C       2.5265755715     0.0177816803     4.1905650754
   37      H       3.3755520500    -0.0455024247     3.5112998931
   38      H       2.5712245924    -0.8299019879     4.8755472680
   39      H       2.6406525004     0.9179059043     4.7966261735
   40      B       0.0067133293     0.2322578012     5.7466222632
   41      C      -0.0261950964    -1.0148896782     6.6246979539
   42      C      -0.0473191731    -2.3042124714     6.0516204466
   43      H      -0.0352690423    -2.4155404715     4.9706006479
   44      C      -0.0846485783    -3.4205515566     6.8468420057
   45      C      -0.0996248553    -3.2926299001     8.2683381501
   46      C      -0.0775445525    -2.0441007439     8.8438376358
   47      H      -0.0888873999    -1.9452714494     9.9240728732
   48      C      -0.0411800786    -0.8806703999     8.0478923157
   49      C      -0.1167069306    -4.8433128986     6.5144440827
   50      C      -0.1185737103    -5.5759767280     5.3521297734
   51      H      -0.0913011398    -5.1039637318     4.3772230993
   52      C      -0.1502123142    -5.5318610192     7.7439436877
   53      C      -0.1857346228    -6.9199321244     7.8595036934
   54      C      -0.1404726216    -4.6393999001     8.8366664295
   55      C      -0.1666364482    -5.1679045949    10.1040349848
   56      H      -0.1606938340    -4.5381980831    10.9848702384
   57      C      -0.1558384957    -6.9869944143     5.4407514428
   58      H      -0.1576010100    -7.5627581833     4.5234472638
   59      C      -0.1882454619    -7.6517826236     6.6459379524
   60      H      -0.2156205551    -8.7347396992     6.6651295768
   61      C      -0.2028530932    -6.5747649333    10.2520048127
   62      H      -0.2235855483    -6.9871181348    11.2527823090
   63      C      -0.2125192983    -7.4360439528     9.1781749614
   64      H      -0.2398848886    -8.5068382428     9.3406550294
   65      C       0.0236250922     1.6234844448     6.3805706215
   66      C       0.0492909646     2.7807687651     5.5756253625
   67      H       0.0620160381     2.6834748406     4.4936053551
   68      C       0.0561198613     4.0283854561     6.1438624693
   69      C       0.0396385179     4.1768271893     7.5626469682
   70      C       0.0141648454     3.0582050724     8.3645059729
   71      H      -0.0008244042     3.1638253010     9.4445915139
   72      C       0.0058143339     1.7636436495     7.8039427203
   73      C       0.0750759982     5.3557781852     5.5414558109
   74      C       0.0910089448     5.8386400604     4.2559557208
   75      H       0.0927193085     5.1785250746     3.3965971869
   76      C       0.0726113587     6.2729392063     6.6115977888
   77      C       0.0865860243     7.6554209451     6.4496936488
   78      C       0.0520570146     5.6096816228     7.8575263266
   79      C       0.0465168129     6.3764042028     8.9963016273
   80      H       0.0301518248     5.9308710367     9.9831063260
   81      C       0.1053504656     7.2390509260     4.0635379331
   82      H       0.1176193107     7.6227277017     3.0509236652
   83      C       0.1035545556     8.1296440339     5.1139975673
   84      H       0.1144025958     9.1949440009     4.9176377180
   85      C       0.0625789822     7.7854673209     8.8641043774
   86      H       0.0591639745     8.3857261610     9.7650137139
   87      C       0.0812180552     8.4201163143     7.6422444621
   88      H       0.0923530833     9.5021565150     7.5935403509
   89      B      -0.0222827640     0.5137121759     8.7003420789
   90      C      -0.0303129902     0.6303854786    10.2780495173
   91      C      -1.2379604322     0.6427686947    10.9875329829
   92      C      -1.2385237714     0.6800924594    12.3771637240
   93      H      -2.1808245919     0.6685555411    12.9134141179
   94      C      -0.0444118915     0.7328945788    13.0837807724
   95      C       1.1575303353     0.7434958238    12.3869491768
   96      H       2.0927211988     0.7907463096    12.9334906728
   97      C       1.1708109660     0.6789506366    10.9985080856
   98      N      -0.0510505034     0.7677511925    14.4967513080
   99      C       0.7236545244    -0.1551875791    15.2108640611
  100      C       1.3157083531     0.1980511925    16.4250788715
  101      H       1.1762375456     1.1955456786    16.8217937680
  102      C       2.0849081756    -0.7201674616    17.1210599603
  103      H       2.5357396761    -0.4272454861    18.0607065915
  104      C       2.2985369385    -1.9954915243    16.6151815537
  105      H       2.9087025474    -2.7060467335    17.1568048389
  106      C       1.7200997738    -2.3448564631    15.4026584460
  107      H       1.8717083489    -3.3359509614    14.9939452735
  108      C       0.9321386875    -1.4414160431    14.7087779457
  109      H       0.4786111618    -1.7340333194    13.7705548809
  110      C      -0.9408290517     1.6339706558    15.1485494426
  111      C      -1.6752074779     1.2154027777    16.2585042834
  112      H      -1.5531595987     0.2088713107    16.6376091997
  113      C      -2.5705126536     2.0787163894    16.8705042299
  114      H      -3.1347662904     1.7343038837    17.7278439790
  115      C      -2.7649966856     3.3624415982    16.3799289931
  116      H      -3.4733531126     4.0291713922    16.8535150300
  117      C      -2.0411409521     3.7780233990    15.2700923632
  118      H      -2.1785586482     4.7764594045    14.8747014589
  119      C      -1.1304571582     2.9292340250    14.6635978596
  120      H      -0.5697071104     3.2658461932    13.8007502021
  121      C       2.4817864512     0.6659473032    10.2622531346
  122      H       3.3300037132     0.7232264445    10.9443379966
  123      H       2.5542146543     1.5027660911     9.5647933118
  124      H       2.5914697244    -0.2449252685     9.6693378075
  125      C      -2.5444594737     0.5867719702    10.2442213541
  126      H      -3.3963182774     0.6345637469    10.9224028748
  127      H      -2.6339539974     1.4135783006     9.5367820254
  128      H      -2.6320164178    -0.3331477327     9.6621420184
 ----------------------------------------------------------------

   15   -2927.8854393101      6.09e-09  Convergence criterion met
 Total energy in the final basis set =    -2927.8854393101
   15   -2927.8854393098      6.09e-09  Convergence criterion met
 Total energy in the final basis set =    -2927.8854393098

         TDDFT/TDA Excitation Energies
 ---------------------------------------------------

 Excited state   1: excitation energy (eV) =    1.6945
 Total energy for state  1:                 -2927.82316910 au
    Multiplicity: Triplet
    Trans. Mom.:  0.0000 X   0.0000 Y   0.0000 Z
    Strength   :     0.0000000000
    D(254) --> V(  1) amplitude =  0.9724

 Excited state   2: excitation energy (eV) =    1.7117
 Total energy for state  2:                 -2927.82253712 au
    Multiplicity: Singlet
    Trans. Mom.:  0.0041 X  -0.0175 Y  -0.1603 Z
    Strength   :     0.0010904601
    D(254) --> V(  1) amplitude =  0.9758

 Excited state   3: excitation energy (eV) =    2.2305
 Total energy for state  3:                 -2927.80346959 au
    Multiplicity: Triplet
    Trans. Mom.:  0.0000 X   0.0000 Y   0.0000 Z
    Strength   :     0.0000000000
    D(244) --> V(  2) amplitude = -0.2447
    D(251) --> V(  1) amplitude =  0.9064

 Excited state   4: excitation energy (eV) =    2.4306
 Total energy for state  4:                 -2927.79611778 au
    Multiplicity: Triplet
    Trans. Mom.:  0.0000 X   0.0000 Y   0.0000 Z
    Strength   :     0.0000000000
    D(249) --> V(  2) amplitude =  0.4751
    D(252) --> V(  1) amplitude =  0.8068

 Excited state   5: excitation energy (eV) =    2.4734
 Total energy for state  5:                 -2927.79454531 au
    Multiplicity: Triplet
    Trans. Mom.:  0.0000 X   0.0000 Y   0.0000 Z
    Strength   :     0.0000000000
    D(253) --> V(  1) amplitude =  0.9670

 Excited state   6: excitation energy (eV) =    2.4885
 Total energy for state  6:                 -2927.79398903 au
    Multiplicity: Singlet
    Trans. Mom.:  0.0039 X  -0.0093 Y  -0.0381 Z
    Strength   :     0.0000948571
    D(253) --> V(  1) amplitude =  0.9734

 Excited state   7: excitation energy (eV) =    2.4932
 Total energy for state  7:                 -2927.79381519 au
    Multiplicity: Triplet
    Trans. Mom.:  0.0000 X   0.0000 Y   0.0000 Z
    Strength   :     0.0000000000
    D(249) --> V(  1) amplitude = -0.7378
    D(249) --> V(  4) amplitude =  0.2280
    D(252) --> V(  2) amplitude = -0.5510

 Excited state   8: excitation energy (eV) =    2.9007
 Total energy for state  8:                 -2927.77883899 au
    Multiplicity: Singlet
    Trans. Mom.: -0.0012 X   0.0795 Y  -0.0123 Z
    Strength   :     0.0004597333
    D(251) --> V(  1) amplitude =  0.9584

 Excited state   9: excitation energy (eV) =    2.9492
 Total energy for state  9:                 -2927.77705802 au
    Multiplicity: Triplet
    Trans. Mom.:  0.0000 X   0.0000 Y   0.0000 Z
    Strength   :     0.0000000000
    D(254) --> V(  2) amplitude =  0.9934

 Excited state  10: excitation energy (eV) =    2.9532
 Total energy for state 10:                 -2927.77691258 au
    Multiplicity: Singlet
    Trans. Mom.:  0.0134 X  -0.0809 Y  -0.0055 Z
    Strength   :     0.0004890446
    D(254) --> V(  2) amplitude =  0.9945

 Excited state  11: excitation energy (eV) =    3.1427
 Total energy for state 11:                 -2927.76994899 au
    Multiplicity: Singlet
    Trans. Mom.: -0.0733 X  -3.9896 Y   0.3921 Z
    Strength   :     1.2377649240
    D(252) --> V(  1) amplitude =  0.9566

 Excited state  12: excitation energy (eV) =    3.3251
 Total energy for state 12:                 -2927.76324335 au
    Multiplicity: Singlet
    Trans. Mom.:  0.0016 X   0.1962 Y  -0.0323 Z
    Strength   :     0.0032214976
    D(250) --> V(  1) amplitude =  0.9547

 ---------------------------------------------------

        *  Thank you very much for using Q-Chem.  Have a nice day.  *

                    Orbital Energies (a.u.)
 --------------------------------------------------------------

 Alpha MOs
 -- Occupied --
-14.677 -14.659 -10.498 -10.498 -10.493 -10.479 -10.479 -10.478
-10.474 -10.474 -10.473 -10.473 -10.473 -10.473 -10.473 -10.472
-10.471 -10.471 -10.471 -10.471 -10.470 -10.469 -10.469 -10.469
-10.468 -10.468 -10.466 -10.466 -10.465 -10.465 -10.464 -10.464
-10.463 -10.463 -10.461 -10.460 -10.457 -10.457 -10.453 -10.453
-10.453 -10.453 -10.451 -10.451 -10.450 -10.450 -10.448 -10.447
-10.445 -10.445 -10.445 -10.445 -10.445 -10.445 -10.442 -10.442
-10.437 -10.437 -10.437 -10.437 -10.435 -10.435 -10.435 -10.435
-10.435 -10.435 -10.433 -10.433 -10.432 -10.422 -10.422 -10.421
-10.421 -10.412  -6.957  -6.947  -1.087  -1.075  -1.024  -1.024
 -0.971  -0.968  -0.967  -0.966  -0.951  -0.949  -0.946  -0.940
 -0.940  -0.930  -0.916  -0.907  -0.882  -0.870  -0.867  -0.863
 -0.863  -0.857  -0.854  -0.853  -0.848  -0.844  -0.843  -0.839
 -0.831  -0.829  -0.828  -0.821  -0.819  -0.812  -0.806  -0.790
 -0.777  -0.773  -0.759  -0.756  -0.743  -0.737  -0.734  -0.728
 -0.716  -0.710  -0.703  -0.696  -0.692  -0.687  -0.687  -0.686
 -0.677  -0.674  -0.673  -0.666  -0.654  -0.653  -0.653  -0.645
 -0.632  -0.629  -0.612  -0.603  -0.599  -0.597  -0.594  -0.594
 -0.593  -0.589  -0.582  -0.582  -0.578  -0.568  -0.559  -0.553
 -0.550  -0.548  -0.548  -0.541  -0.538  -0.534  -0.529  -0.528
 -0.526  -0.520  -0.515  -0.515  -0.512  -0.511  -0.505  -0.503
 -0.502  -0.501  -0.501  -0.497  -0.494  -0.494  -0.492  -0.489
 -0.489  -0.486  -0.485  -0.484  -0.482  -0.481  -0.479  -0.476
 -0.474  -0.473  -0.472  -0.470  -0.469  -0.468  -0.463  -0.462
 -0.458  -0.454  -0.451  -0.449  -0.448  -0.447  -0.442  -0.437
 -0.434  -0.432  -0.432  -0.431  -0.426  -0.426  -0.418  -0.417
 -0.416  -0.416  -0.412  -0.407  -0.407  -0.404  -0.403  -0.403
 -0.403  -0.402  -0.400  -0.398  -0.397  -0.397  -0.394  -0.390
 -0.388  -0.387  -0.380  -0.371  -0.366  -0.365  -0.360  -0.359
 -0.342  -0.340  -0.330  -0.324  -0.310  -0.307  -0.304  -0.303
 -0.302  -0.296  -0.293  -0.291  -0.290  -0.286  -0.285  -0.274
 -0.271  -0.269  -0.265  -0.264  -0.229  -0.205

          Ground-State Mulliken Net Atomic Charges

     Atom                 Charge (a.u.)
  ----------------------------------------
      1 N                    -0.658559
      2 C                     0.337927
      3 C                    -0.397079
      4 H                     0.258756
      5 C                     0.068618
      6 C                    -0.398017
      7 H                     0.258576
      8 C                     0.066389
      9 C                     0.266354
     10 C                    -0.273259
     11 H                     0.263324
     12 C                    -0.241244
     13 H                     0.243902
     14 C                    -0.256944
     15 H                     0.241008
     16 C                    -0.240056
     17 H                     0.245447
     18 C                    -0.281208
     19 H                     0.262831
     20 C                     0.260869
     21 C                    -0.269377
     22 H                     0.261876
     23 C                    -0.241519
     24 H                     0.243393
     25 C                    -0.256317
     26 H                     0.241115
     27 C                    -0.240583
     28 H                     0.245663
     29 C                    -0.279277
     30 H                     0.263169
     31 C                    -0.255202
     32 C                    -0.770058
     33 H                     0.255901
     34 H                     0.239930
     35 H                     0.239788
     36 C                    -0.769012
     37 H                     0.255620
     38 H                     0.239559
     39 H                     0.239354
     40 B                     0.672692
     41 C                    -0.152074
     42 C                    -0.394621
     43 H                     0.257180
     44 C                     0.078884
     45 C                     0.095146
     46 C                    -0.400659
     47 H                     0.243061
     48 C                    -0.155056
     49 C                     0.180742
     50 C                    -0.389523
     51 H                     0.256129
     52 C                    -0.068549
     53 C                     0.220347
     54 C                     0.178334
     55 C                    -0.393943
     56 H                     0.247845
     57 C                    -0.231133
     58 H                     0.258925
     59 C                    -0.345442
     60 H                     0.253758
     61 C                    -0.230838
     62 H                     0.255698
     63 C                    -0.347474
     64 H                     0.253861
     65 C                    -0.151294
     66 C                    -0.392227
     67 H                     0.259461
     68 C                     0.079897
     69 C                     0.096880
     70 C                    -0.405243
     71 H                     0.240685
     72 C                    -0.155521
     73 C                     0.178474
     74 C                    -0.387126
     75 H                     0.256987
     76 C                    -0.068137
     77 C                     0.221949
     78 C                     0.177532
     79 C                    -0.395110
     80 H                     0.248245
     81 C                    -0.232217
     82 H                     0.259128
     83 C                    -0.345728
     84 H                     0.253680
     85 C                    -0.230303
     86 H                     0.255757
     87 C                    -0.348664
     88 H                     0.253773
     89 B                     0.679250
     90 C                    -0.213853
     91 C                     0.041512
     92 C                    -0.362810
     93 H                     0.247944
     94 C                     0.283415
     95 C                    -0.361617
     96 H                     0.247877
     97 C                     0.040660
     98 N                    -0.671445
     99 C                     0.306874
    100 C                    -0.299142
    101 H                     0.260981
    102 C                    -0.238610
    103 H                     0.247216
    104 C                    -0.266773
    105 H                     0.243763
    106 C                    -0.237255
    107 H                     0.244926
    108 C                    -0.304211
    109 H                     0.256044
    110 C                     0.297449
    111 C                    -0.299274
    112 H                     0.260641
    113 C                    -0.239257
    114 H                     0.247630
    115 C                    -0.265036
    116 H                     0.244491
    117 C                    -0.237564
    118 H                     0.245949
    119 C                    -0.296335
    120 H                     0.256001
    121 C                    -0.770166
    122 H                     0.254154
    123 H                     0.246705
    124 H                     0.246545
    125 C                    -0.769690
    126 H                     0.254083
    127 H                     0.246430
    128 H                     0.246675
  ----------------------------------------
  Sum of atomic charges =    -0.000000

                    Cartesian Multipole Moments
 -----------------------------------------------------------------
    Charge (ESU x 10^10)
                -0.0000
    Dipole Moment (Debye)
         X      -0.1837      Y      -0.1314      Z      -3.1801
       Tot       3.1881
    Quadrupole Moments (Debye-Ang)
        XX    -433.2491     XY       2.1328     YY    -351.9522
        XZ      -3.6026     YZ      -6.1156     ZZ    -422.4182

 Total job time:  23963.08s(wall), 76640.51s(cpu)
        *  Thank you very much for using Q-Chem.  Have a nice day.  *
