 Q-Chem 5.1, Q-Chem, Inc., Pleasanton, CA (2018)
 Q-Chem 5.1.1 for Intel X86 EM64T Linux

User input:
--------------------------------------------------------------
$solvent
dielectric      8.93
dielectric_infi 2.03
$end

$rem
threads 8
jobtype	sp
method PBEh-3c
basis def2-mSVP
mem_static	1024
mem_total	14000
sym_ignore	true
cis_n_roots             2
cis_singlets            false
cis_triplets		true
rpa                     false
calc_soc 		true
cis_moments             true
cis_relaxed_density	true
solvent_method		pcm
$end

$pcm
StateSpecific   1
ChargeSeparation Excited
$end

$molecule
read utleopt_dcm.mol
$end

--------------------------------------------------------------

   22   -2927.8411385314      7.89e-09  Convergence criterion met
 Total energy in the final basis set =    -2927.8411385314

                    Orbital Energies (a.u.)
 --------------------------------------------------------------

 Alpha MOs
 -- Occupied --
-14.766 -14.668 -10.535 -10.525 -10.525 -10.491 -10.491 -10.480
-10.480 -10.479 -10.479 -10.478 -10.478 -10.477 -10.475 -10.475
-10.473 -10.473 -10.470 -10.470 -10.470 -10.470 -10.461 -10.458
-10.458 -10.454 -10.454 -10.454 -10.454 -10.453 -10.453 -10.453
-10.453 -10.452 -10.452 -10.451 -10.451 -10.451 -10.451 -10.451
-10.450 -10.447 -10.447 -10.447 -10.446 -10.446 -10.446 -10.445
-10.445 -10.445 -10.445 -10.444 -10.443 -10.443 -10.443 -10.441
-10.441 -10.441 -10.440 -10.440 -10.440 -10.439 -10.438 -10.433
-10.433 -10.431 -10.431 -10.419 -10.419 -10.416 -10.416 -10.413
-10.413 -10.411  -6.908  -6.905  -1.154  -1.078  -1.006  -1.005
 -0.995  -0.993  -0.972  -0.959  -0.956  -0.948  -0.946  -0.936
 -0.925  -0.924  -0.900  -0.898  -0.891  -0.886  -0.882  -0.868
 -0.868  -0.866  -0.855  -0.849  -0.843  -0.842  -0.838  -0.838
 -0.836  -0.835  -0.833  -0.809  -0.803  -0.801  -0.796  -0.791
 -0.790  -0.785  -0.760  -0.758  -0.748  -0.738  -0.722  -0.719
 -0.717  -0.714  -0.709  -0.706  -0.704  -0.702  -0.679  -0.679
 -0.675  -0.669  -0.668  -0.668  -0.661  -0.653  -0.638  -0.637
 -0.636  -0.633  -0.633  -0.622  -0.604  -0.595  -0.586  -0.584
 -0.583  -0.582  -0.582  -0.578  -0.578  -0.572  -0.564  -0.564
 -0.558  -0.553  -0.552  -0.547  -0.541  -0.539  -0.532  -0.531
 -0.524  -0.521  -0.518  -0.516  -0.516  -0.513  -0.510  -0.509
 -0.506  -0.499  -0.495  -0.494  -0.494  -0.492  -0.490  -0.489
 -0.484  -0.481  -0.480  -0.479  -0.479  -0.478  -0.478  -0.476
 -0.474  -0.473  -0.472  -0.469  -0.464  -0.463  -0.461  -0.458
 -0.456  -0.454  -0.454  -0.448  -0.447  -0.445  -0.441  -0.441
 -0.439  -0.433  -0.432  -0.431  -0.429  -0.427  -0.426  -0.425
 -0.424  -0.419  -0.417  -0.415  -0.415  -0.409  -0.407  -0.403
 -0.400  -0.397  -0.394  -0.393  -0.390  -0.390  -0.388  -0.385
 -0.382  -0.380  -0.377  -0.363  -0.362  -0.356  -0.354  -0.341
 -0.337  -0.336  -0.329  -0.326  -0.322  -0.315  -0.312  -0.309
 -0.308  -0.303  -0.300  -0.294  -0.292  -0.291  -0.279  -0.277
 -0.271  -0.268  -0.259  -0.249  -0.246  -0.219  -0.156

 Beta MOs
 -- Occupied --
-14.756 -14.668 -10.536 -10.527 -10.526 -10.491 -10.491 -10.479
-10.479 -10.479 -10.479 -10.478 -10.478 -10.478 -10.473 -10.472
-10.472 -10.472 -10.471 -10.471 -10.471 -10.471 -10.459 -10.459
-10.457 -10.455 -10.455 -10.455 -10.454 -10.453 -10.453 -10.452
-10.452 -10.452 -10.452 -10.451 -10.451 -10.451 -10.451 -10.450
-10.450 -10.447 -10.447 -10.447 -10.446 -10.445 -10.445 -10.445
-10.445 -10.444 -10.444 -10.444 -10.443 -10.443 -10.443 -10.441
-10.441 -10.441 -10.440 -10.440 -10.440 -10.440 -10.439 -10.433
-10.433 -10.431 -10.431 -10.419 -10.419 -10.415 -10.415 -10.413
-10.412 -10.411  -6.905  -6.903  -1.138  -1.078  -1.005  -1.005
 -0.991  -0.991  -0.968  -0.959  -0.955  -0.947  -0.945  -0.936
 -0.924  -0.923  -0.899  -0.895  -0.888  -0.885  -0.881  -0.866
 -0.866  -0.865  -0.855  -0.849  -0.842  -0.841  -0.837  -0.837
 -0.836  -0.835  -0.826  -0.806  -0.802  -0.800  -0.796  -0.788
 -0.786  -0.780  -0.759  -0.757  -0.743  -0.735  -0.721  -0.717
 -0.716  -0.711  -0.708  -0.705  -0.704  -0.702  -0.679  -0.678
 -0.673  -0.668  -0.667  -0.666  -0.658  -0.651  -0.637  -0.637
 -0.633  -0.633  -0.633  -0.620  -0.604  -0.592  -0.584  -0.583
 -0.581  -0.580  -0.578  -0.576  -0.572  -0.566  -0.563  -0.562
 -0.558  -0.550  -0.549  -0.546  -0.539  -0.538  -0.530  -0.530
 -0.523  -0.519  -0.517  -0.516  -0.515  -0.511  -0.509  -0.508
 -0.505  -0.497  -0.494  -0.493  -0.493  -0.490  -0.489  -0.488
 -0.484  -0.480  -0.479  -0.479  -0.477  -0.476  -0.476  -0.475
 -0.473  -0.471  -0.469  -0.464  -0.463  -0.462  -0.458  -0.457
 -0.454  -0.454  -0.453  -0.446  -0.444  -0.442  -0.439  -0.438
 -0.437  -0.432  -0.431  -0.430  -0.428  -0.426  -0.424  -0.423
 -0.422  -0.419  -0.415  -0.413  -0.411  -0.409  -0.404  -0.402
 -0.400  -0.397  -0.393  -0.388  -0.388  -0.387  -0.385  -0.381
 -0.379  -0.377  -0.369  -0.360  -0.355  -0.353  -0.352  -0.339
 -0.330  -0.329  -0.325  -0.323  -0.318  -0.308  -0.304  -0.303
 -0.302  -0.300  -0.295  -0.294  -0.288  -0.288  -0.278  -0.271
 -0.266  -0.252  -0.246  -0.239  -0.219

          Ground-State Mulliken Net Atomic Charges

     Atom                 Charge (a.u.)    Spin (a.u.)
  --------------------------------------------------------
      1 N                    -0.573410       0.381368
      2 C                     0.343212      -0.006740
      3 C                    -0.356970       0.170718
      4 H                     0.293309      -0.008588
      5 C                     0.049816      -0.128790
      6 C                    -0.357448       0.170514
      7 H                     0.292728      -0.008628
      8 C                     0.047565      -0.128025
      9 C                     0.254442      -0.073491
     10 C                    -0.257344       0.103480
     11 H                     0.294601      -0.005267
     12 C                    -0.241568      -0.071547
     13 H                     0.274222       0.003867
     14 C                    -0.232732       0.116263
     15 H                     0.272589      -0.006344
     16 C                    -0.240238      -0.067131
     17 H                     0.273469       0.003462
     18 C                    -0.261258       0.098911
     19 H                     0.290224      -0.005104
     20 C                     0.247408      -0.072163
     21 C                    -0.253742       0.102334
     22 H                     0.294658      -0.005224
     23 C                    -0.242029      -0.070600
     24 H                     0.274354       0.003856
     25 C                    -0.232211       0.114399
     26 H                     0.272613      -0.006242
     27 C                    -0.240826      -0.065743
     28 H                     0.273400       0.003385
     29 C                    -0.259463       0.096901
     30 H                     0.289940      -0.005007
     31 C                    -0.148348       0.334070
     32 C                    -0.759891       0.010099
     33 H                     0.255312       0.000988
     34 H                     0.261351      -0.004835
     35 H                     0.260093      -0.003791
     36 C                    -0.758935       0.010330
     37 H                     0.255130       0.000958
     38 H                     0.259815      -0.004757
     39 H                     0.260868      -0.003865
     40 B                     0.544164       0.324884
     41 C                    -0.140086       0.025463
     42 C                    -0.410338      -0.016767
     43 H                     0.221561      -0.000901
     44 C                     0.052994       0.044775
     45 C                     0.071715       0.087641
     46 C                    -0.411456      -0.053126
     47 H                     0.230354       0.002049
     48 C                    -0.146060       0.058997
     49 C                     0.174255      -0.046317
     50 C                    -0.407729       0.071788
     51 H                     0.241348      -0.004186
     52 C                    -0.080065       0.023634
     53 C                     0.214805      -0.038236
     54 C                     0.172917      -0.056414
     55 C                    -0.410706       0.084257
     56 H                     0.244943      -0.004905
     57 C                    -0.234846      -0.046965
     58 H                     0.250611       0.002286
     59 C                    -0.361101       0.066429
     60 H                     0.248254      -0.003843
     61 C                    -0.233597      -0.052683
     62 H                     0.251505       0.002528
     63 C                    -0.363916       0.076666
     64 H                     0.248240      -0.004466
     65 C                    -0.138656       0.028035
     66 C                    -0.407299      -0.019063
     67 H                     0.221641      -0.001072
     68 C                     0.053642       0.047550
     69 C                     0.073519       0.085619
     70 C                    -0.416242      -0.051361
     71 H                     0.227958       0.001961
     72 C                    -0.146429       0.056681
     73 C                     0.172348      -0.047248
     74 C                    -0.405486       0.073216
     75 H                     0.240890      -0.004264
     76 C                    -0.079730       0.023730
     77 C                     0.216415      -0.038481
     78 C                     0.172087      -0.056030
     79 C                    -0.411803       0.083928
     80 H                     0.245373      -0.004884
     81 C                    -0.235839      -0.047746
     82 H                     0.250276       0.002322
     83 C                    -0.361653       0.068021
     84 H                     0.248090      -0.003941
     85 C                    -0.232985      -0.052714
     86 H                     0.251657       0.002531
     87 C                    -0.365084       0.076524
     88 H                     0.248175      -0.004458
     89 B                     0.551854       0.281769
     90 C                    -0.183537      -0.024403
     91 C                     0.030994       0.003176
     92 C                    -0.368404      -0.000800
     93 H                     0.242176       0.000347
     94 C                     0.279562       0.000647
     95 C                    -0.367170      -0.000829
     96 H                     0.242122       0.000343
     97 C                     0.029941       0.003092
     98 N                    -0.670341       0.000005
     99 C                     0.305903      -0.000013
    100 C                    -0.302008       0.000030
    101 H                     0.261049      -0.000002
    102 C                    -0.243476      -0.000023
    103 H                     0.249010       0.000001
    104 C                    -0.272281       0.000032
    105 H                     0.245550      -0.000002
    106 C                    -0.242299      -0.000024
    107 H                     0.249212       0.000002
    108 C                    -0.307081       0.000030
    109 H                     0.261787      -0.000002
    110 C                     0.297768      -0.000017
    111 C                    -0.302640       0.000032
    112 H                     0.260908      -0.000002
    113 C                    -0.243927      -0.000025
    114 H                     0.249517       0.000001
    115 C                    -0.270655       0.000033
    116 H                     0.246213      -0.000002
    117 C                    -0.242341      -0.000024
    118 H                     0.249590       0.000002
    119 C                    -0.299109       0.000028
    120 H                     0.260525      -0.000002
    121 C                    -0.762519       0.000640
    122 H                     0.244536       0.001452
    123 H                     0.243642      -0.000737
    124 H                     0.243398      -0.000782
    125 C                    -0.762160       0.000570
    126 H                     0.244466       0.001463
    127 H                     0.243138      -0.000776
    128 H                     0.243750      -0.000706
  --------------------------------------------------------
  Sum of atomic charges =    -0.000000

                    Cartesian Multipole Moments
 -----------------------------------------------------------------
    Charge (ESU x 10^10)
                -0.0000
    Dipole Moment (Debye)
         X      -0.1244      Y      -1.5779      Z     -30.0238
       Tot      30.0655
    Quadrupole Moments (Debye-Ang)
        XX    -420.4988     XY       7.8971     YY    -417.6240
        XZ      -2.6367     YZ     -12.1901     ZZ    -632.7213

 Total job time:  20027.06s(wall), 68482.84s(cpu)
        *  Thank you very much for using Q-Chem.  Have a nice day.  *
 Q-Chem 5.1, Q-Chem, Inc., Pleasanton, CA (2018)
 Q-Chem 5.1.1 for Intel X86 EM64T Linux

User input:
--------------------------------------------------------------
$rem
threads 8
jobtype sp
method PBEh-3c
basis def2-mSVP
mem_static      1024
mem_total       14000
sym_ignore      true
cis_n_roots             6
cis_singlets            true
cis_triplets            true
rpa                     false
calc_soc                true
cis_moments             true
cis_relaxed_density     true
solvent_method          pcm
$end

$molecule
read
$end

$pcm
statespecific           Marcus
$end

$solvent
dielectric      8.93
dielectric_infi 2.03
$end

--------------------------------------------------------------

             Standard Nuclear Orientation (Angstroms)
    I     Atom           X                Y                Z
 ----------------------------------------------------------------
    1      N       0.0000000000     0.0000000000     0.0000000000
    2      C       0.0000000000     0.0000000000     1.3688430000
    3      C       1.2195213884     0.0000000000     2.0748260890
    4      H       2.1532988788    -0.0738316930     1.5318890365
    5      C       1.2253947956     0.0423770304     3.4493744643
    6      C      -1.2162892387     0.0171857743     2.0802933448
    7      H      -2.1541756877     0.0529459359     1.5403272490
    8      C      -1.2143979543     0.0706096926     3.4547351549
    9      C      -1.0706096831    -0.5487914053    -0.7361685591
   10      C      -1.5835630349    -1.7987278965    -0.3923375941
   11      H      -1.1592425367    -2.3563387121     0.4324538111
   12      C      -2.6175925097    -2.3350229572    -1.1399416121
   13      H      -3.0102161529    -3.3096664286    -0.8838375108
   14      C      -3.1350452134    -1.6363556717    -2.2230877195
   15      H      -3.9412789360    -2.0621560211    -2.8053513239
   16      C      -2.6146886512    -0.3931506198    -2.5633584162
   17      H      -3.0207610712     0.1553186826    -3.4024236862
   18      C      -1.5801231889     0.1545954125    -1.8273190105
   19      H      -1.1838479633     1.1282306524    -2.0847481401
   20      C       1.0671866012     0.5711552352    -0.7260785128
   21      C       1.5568831518     1.8267733057    -0.3695180558
   22      H       1.1150989349     2.3717220791     0.4546050419
   23      C       2.5881051013     2.3850409541    -1.1050169451
   24      H       2.9633213703     3.3635872076    -0.8383244782
   25      C       3.1257858784     1.7015096130    -2.1881283427
   26      H       3.9307941545     2.1429444272    -2.7602671241
   27      C       2.6261357048     0.4536771870    -2.5426707732
   28      H       3.0466897120    -0.0818010610    -3.3830868591
   29      C       1.5937429334    -0.1151371889    -1.8195617024
   30      H       1.2113061921    -1.0911745188    -2.0883313495
   31      C       0.0077460838     0.1019874597     4.1702360409
   32      C      -2.5135480416     0.1308474968     4.1989555065
   33      H      -3.3661070226     0.1203516424     3.5211051134
   34      H      -2.5738546486     1.0331850535     4.8091981920
   35      H      -2.6095523580    -0.7172483915     4.8787981083
   36      C       2.5282195800     0.0214618621     4.1894827936
   37      H       3.3752386153    -0.0384353459     3.5075506310
   38      H       2.5777801784    -0.8285167584     4.8714438654
   39      H       2.6432960691     0.9209793230     4.7963524683
   40      B       0.0087175640     0.2382548146     5.7478044225
   41      C      -0.0220192978    -1.0059109813     6.6318749472
   42      C      -0.0430902370    -2.2964482593     6.0614466243
   43      H      -0.0341225412    -2.4096790151     4.9807583995
   44      C      -0.0764272194    -3.4115138863     6.8594224688
   45      C      -0.0873074431    -3.2806082314     8.2812284912
   46      C      -0.0662410348    -2.0308419899     8.8541803200
   47      H      -0.0752093575    -1.9309920661     9.9344103040
   48      C      -0.0338502351    -0.8684411576     8.0554388837
   49      C      -0.1069620680    -4.8349671253     6.5301437543
   50      C      -0.1115377763    -5.5698478083     5.3688514999
   51      H      -0.0889316785    -5.0998827392     4.3928500249
   52      C      -0.1349645743    -5.5209443616     7.7614758266
   53      C      -0.1672441252    -6.9091294659     7.8799924575
   54      C      -0.1234273322    -4.6264950752     8.8527262025
   55      C      -0.1440125807    -5.1523757015    10.1216523881
   56      H      -0.1360861543    -4.5211354307    11.0014682767
   57      C      -0.1457129678    -6.9810402020     5.4608518995
   58      H      -0.1497512213    -7.5584126179     4.5446138704
   59      C      -0.1725499545    -7.6437083371     6.6677221699
   60      H      -0.1977263249    -8.7266664804     6.6893681966
   61      C      -0.1766836744    -6.5592879122    10.2724522291
   62      H      -0.1928625232    -6.9697445583    11.2740886504
   63      C      -0.1883932946    -7.4227991338     9.1999528669
   64      H      -0.2129366051    -8.4933719617     9.3643781487
   65      C       0.0265273255     1.6308034781     6.3817450016
   66      C       0.0518673475     2.7858856668     5.5736029575
   67      H       0.0636213816     2.6857315558     4.4919956620
   68      C       0.0599811035     4.0353643840     6.1387926654
   69      C       0.0448558348     4.1878210770     7.5576291345
   70      C       0.0201780079     3.0713557257     8.3626585501
   71      H       0.0069763191     3.1811025489     9.4424172509
   72      C       0.0109163520     1.7746861143     7.8054086803
   73      C       0.0798102298     5.3609592945     5.5325955131
   74      C       0.0963864606     5.8396198153     4.2452099571
   75      H       0.0979197415     5.1770360370     3.3877619851
   76      C       0.0786663651     6.2811505953     6.6003807241
   77      C       0.0943028773     7.6634037689     6.4343143322
   78      C       0.0584858617     5.6218584577     7.8485811152
   79      C       0.0547477167     6.3919228680     8.9854822677
   80      H       0.0388268173     5.9496432286     9.9738334082
   81      C       0.1123223868     7.2398095825     4.0489444043
   82      H       0.1252389652     7.6201607748     3.0351356346
   83      C       0.1115676357     8.1338178072     5.0969420449
   84      H       0.1237315547     9.1985398429     4.8975753404
   85      C       0.0721673409     7.8008434076     8.8489047099
   86      H       0.0700912974     8.4038446840     9.7479800460
   87      C       0.0906496284     8.4318195115     7.6247399891
   88      H       0.1030348255     9.5136929722     7.5725369126
   89      B      -0.0148692917     0.5271509342     8.7051425451
   90      C      -0.0196850242     0.6465708269    10.2830627116
   91      C      -1.2257895785     0.6599925654    10.9955128700
   92      C      -1.2236501478     0.6976383369    12.3854695160
   93      H      -2.1653498404     0.6858705507    12.9228767775
   94      C      -0.0280791619     0.7485923040    13.0900507703
   95      C       1.1725079477     0.7584978433    12.3903563033
   96      H       2.1092309709     0.8049596951    12.9344531525
   97      C       1.1829123176     0.6947117218    11.0017144485
   98      N      -0.0307846710     0.7808517476    14.5027198930
   99      C       0.7418974582    -0.1479791719    15.2125806987
  100      C       1.3426394909     0.2017634812    16.4235472483
  101      H       1.2119802956     1.2000790097    16.8214107783
  102      C       2.1096211535    -0.7216418767    17.1156727525
  103      H       2.5674478682    -0.4318263056    18.0529076418
  104      C       2.3117310699    -1.9987452523    16.6086316799
  105      H       2.9198995071    -2.7133373270    17.1472557982
  106      C       1.7240126368    -2.3448797664    15.3993944036
  107      H       1.8658954768    -3.3373878075    14.9905717665
  108      C       0.9383533760    -1.4357617528    14.7095685159
  109      H       0.4768835328    -1.7266525853    13.7745449880
  110      C      -0.9218009830     1.6424731680    15.1596481361
  111      C      -1.6577586780     1.2156503856    16.2654318724
  112      H      -1.5372667277     0.2062959576    16.6376142520
  113      C      -2.5535702622     2.0749593384    16.8830171404
  114      H      -3.1190184675     1.7244176847    17.7370934130
  115      C      -2.7465131477     3.3627802216    16.4019267532
  116      H      -3.4548925915     4.0263784301    16.8799156891
  117      C      -2.0206826302     3.7867727688    15.2961858061
  118      H      -2.1563646704     4.7886077841    14.9088227027
  119      C      -1.1096019473     2.9417272120    14.6843907231
  120      H      -0.5466644968     3.2858154859    13.8257900147
  121      C       2.4932383645     0.6823461420    10.2641016799
  122      H       3.3421841084     0.7345694021    10.9456443130
  123      H       2.5671870179     1.5227507429     9.5710202116
  124      H       2.6008800248    -0.2256172560     9.6663568501
  125      C      -2.5347439062     0.6039224510    10.2562806014
  126      H      -3.3844208141     0.6497286110    10.9372678170
  127      H      -2.6278595134     1.4315987848     9.5502733912
  128      H      -2.6235154681    -0.3153179699     9.6732902921
 ----------------------------------------------------------------

   25   -2927.8311696157      8.56e-09  Convergence criterion met
 Total energy in the final basis set =    -2927.8311696157

         TDDFT/TDA Excitation Energies
 ---------------------------------------------------

 Excited state   1: excitation energy (eV) =    0.7806
 Total energy for state  1:                 -2927.80248273 au
    <S**2>     :  2.0858
    Trans. Mom.: -0.0025 X   0.0173 Y   0.3627 Z
    Strength   :     0.0025212234
    D(253) --> S(  1) amplitude =  0.9987 beta

 Excited state   2: excitation energy (eV) =    1.1959
 Total energy for state  2:                 -2927.78722264 au
    <S**2>     :  2.0871
    Trans. Mom.: -0.0067 X   0.0053 Y   0.0046 Z
    Strength   :     0.0000027297
    D(252) --> S(  1) amplitude =  0.9980 beta

 Excited state   3: excitation energy (eV) =    1.3977
 Total energy for state  3:                 -2927.77980425 au
    <S**2>     :  2.1427
    Trans. Mom.: -0.0902 X  -4.4795 Y   0.4395 Z
    Strength   :     0.6940077809
    S(  2) --> V(  1) amplitude =  0.9782 alpha

 Excited state   4: excitation energy (eV) =    1.4734
 Total energy for state  4:                 -2927.77702142 au
    <S**2>     :  2.0796
    Trans. Mom.:  0.0014 X  -0.0270 Y  -0.0223 Z
    Strength   :     0.0000442678
    D(251) --> S(  1) amplitude =  0.9925 beta

 Excited state   5: excitation energy (eV) =    1.6342
 Total energy for state  5:                 -2927.77111510 au
    <S**2>     :  2.0779
    Trans. Mom.:  0.0273 X  -0.0082 Y   0.0879 Z
    Strength   :     0.0003420160
    D(250) --> S(  1) amplitude =  0.9885 beta

 Excited state   6: excitation energy (eV) =    1.6995
 Total energy for state  6:                 -2927.76871467 au
    <S**2>     :  2.1051
    Trans. Mom.: -0.3350 X   0.2699 Y  -0.0445 Z
    Strength   :     0.0077893230
    D(243) --> S(  1) amplitude = -0.9800 beta

 ---------------------------------------------------
