 Q-Chem 5.1, Q-Chem, Inc., Pleasanton, CA (2018)
 Q-Chem 5.1.1 for Intel X86 EM64T Linux

User input:
--------------------------------------------------------------
$solvent
dielectric      4.33
dielectric_infi 1.83
$end

$rem
threads 8
jobtype	sp
method PBEh-3c
basis def2-mSVP
mem_static	1024
mem_total	14000
sym_ignore	true
cis_n_roots             2
cis_singlets            false
cis_triplets		true
rpa                     false
calc_soc 		true
cis_moments             true
cis_relaxed_density	true
solvent_method		pcm
$end

$pcm
StateSpecific   1
ChargeSeparation Excited
$end

$molecule
read utleopt_eth.mol
$end

--------------------------------------------------------------

   22   -2927.8320810248      7.20e-09  Convergence criterion met
 Total energy in the final basis set =    -2927.8320810248

                    Orbital Energies (a.u.)
 --------------------------------------------------------------

 Alpha MOs
 -- Occupied --
-14.768 -14.664 -10.540 -10.529 -10.529 -10.488 -10.487 -10.485
-10.485 -10.484 -10.484 -10.481 -10.481 -10.478 -10.478 -10.477
-10.477 -10.475 -10.475 -10.475 -10.475 -10.474 -10.465 -10.455
-10.455 -10.452 -10.452 -10.451 -10.451 -10.451 -10.450 -10.450
-10.450 -10.450 -10.449 -10.449 -10.449 -10.449 -10.448 -10.448
-10.448 -10.444 -10.444 -10.444 -10.443 -10.442 -10.442 -10.442
-10.441 -10.441 -10.441 -10.441 -10.440 -10.440 -10.439 -10.438
-10.438 -10.438 -10.437 -10.437 -10.437 -10.435 -10.435 -10.434
-10.434 -10.427 -10.427 -10.415 -10.415 -10.413 -10.413 -10.410
-10.409 -10.407  -6.905  -6.902  -1.157  -1.074  -1.003  -1.002
 -0.999  -0.997  -0.976  -0.956  -0.952  -0.945  -0.943  -0.932
 -0.922  -0.921  -0.903  -0.900  -0.890  -0.886  -0.883  -0.872
 -0.872  -0.862  -0.852  -0.846  -0.841  -0.839  -0.836  -0.835
 -0.835  -0.833  -0.832  -0.806  -0.801  -0.798  -0.793  -0.793
 -0.787  -0.786  -0.756  -0.754  -0.751  -0.742  -0.720  -0.719
 -0.717  -0.714  -0.710  -0.706  -0.701  -0.699  -0.676  -0.676
 -0.674  -0.671  -0.670  -0.666  -0.659  -0.650  -0.639  -0.635
 -0.634  -0.630  -0.630  -0.626  -0.601  -0.598  -0.587  -0.586
 -0.582  -0.582  -0.580  -0.579  -0.576  -0.570  -0.562  -0.561
 -0.556  -0.555  -0.554  -0.545  -0.543  -0.535  -0.529  -0.529
 -0.528  -0.525  -0.518  -0.515  -0.514  -0.514  -0.513  -0.508
 -0.503  -0.501  -0.495  -0.493  -0.492  -0.491  -0.489  -0.488
 -0.482  -0.480  -0.478  -0.477  -0.476  -0.476  -0.474  -0.474
 -0.473  -0.472  -0.469  -0.467  -0.464  -0.461  -0.460  -0.455
 -0.454  -0.452  -0.451  -0.450  -0.450  -0.445  -0.445  -0.441
 -0.436  -0.435  -0.431  -0.429  -0.429  -0.429  -0.426  -0.422
 -0.421  -0.416  -0.414  -0.412  -0.411  -0.409  -0.406  -0.401
 -0.397  -0.397  -0.393  -0.390  -0.387  -0.387  -0.386  -0.383
 -0.379  -0.376  -0.374  -0.360  -0.359  -0.354  -0.350  -0.340
 -0.337  -0.336  -0.333  -0.325  -0.323  -0.315  -0.312  -0.311
 -0.305  -0.300  -0.296  -0.291  -0.289  -0.288  -0.275  -0.274
 -0.271  -0.266  -0.256  -0.246  -0.243  -0.215  -0.153

 Beta MOs
 -- Occupied --
-14.758 -14.664 -10.540 -10.531 -10.530 -10.488 -10.487 -10.483
-10.483 -10.482 -10.482 -10.482 -10.482 -10.476 -10.476 -10.476
-10.476 -10.476 -10.476 -10.476 -10.476 -10.474 -10.460 -10.456
-10.456 -10.452 -10.452 -10.451 -10.451 -10.451 -10.450 -10.450
-10.450 -10.449 -10.449 -10.449 -10.448 -10.448 -10.448 -10.447
-10.447 -10.444 -10.444 -10.444 -10.443 -10.442 -10.441 -10.441
-10.441 -10.441 -10.441 -10.440 -10.440 -10.440 -10.439 -10.438
-10.438 -10.437 -10.437 -10.437 -10.437 -10.436 -10.435 -10.434
-10.434 -10.427 -10.427 -10.415 -10.415 -10.412 -10.412 -10.409
-10.408 -10.407  -6.903  -6.899  -1.141  -1.074  -1.002  -1.002
 -0.996  -0.994  -0.971  -0.956  -0.952  -0.944  -0.942  -0.932
 -0.921  -0.921  -0.902  -0.895  -0.888  -0.885  -0.882  -0.871
 -0.870  -0.861  -0.851  -0.846  -0.839  -0.838  -0.835  -0.834
 -0.833  -0.832  -0.829  -0.803  -0.799  -0.797  -0.793  -0.789
 -0.785  -0.782  -0.755  -0.754  -0.746  -0.739  -0.718  -0.716
 -0.715  -0.713  -0.709  -0.705  -0.701  -0.699  -0.676  -0.675
 -0.672  -0.669  -0.669  -0.665  -0.656  -0.648  -0.637  -0.634
 -0.633  -0.630  -0.630  -0.623  -0.601  -0.595  -0.583  -0.583
 -0.580  -0.579  -0.579  -0.574  -0.570  -0.569  -0.560  -0.560
 -0.555  -0.553  -0.551  -0.543  -0.543  -0.535  -0.528  -0.528
 -0.527  -0.523  -0.516  -0.514  -0.513  -0.513  -0.513  -0.506
 -0.502  -0.496  -0.493  -0.492  -0.491  -0.491  -0.488  -0.487
 -0.481  -0.478  -0.476  -0.476  -0.476  -0.474  -0.473  -0.473
 -0.472  -0.469  -0.467  -0.466  -0.461  -0.460  -0.459  -0.454
 -0.454  -0.451  -0.450  -0.449  -0.446  -0.444  -0.441  -0.439
 -0.435  -0.433  -0.429  -0.429  -0.428  -0.427  -0.425  -0.422
 -0.418  -0.416  -0.412  -0.411  -0.408  -0.407  -0.406  -0.399
 -0.397  -0.393  -0.390  -0.386  -0.385  -0.384  -0.382  -0.378
 -0.376  -0.374  -0.370  -0.357  -0.352  -0.350  -0.350  -0.336
 -0.335  -0.328  -0.327  -0.322  -0.321  -0.305  -0.305  -0.300
 -0.300  -0.297  -0.296  -0.291  -0.286  -0.285  -0.274  -0.266
 -0.263  -0.248  -0.243  -0.235  -0.215

          Ground-State Mulliken Net Atomic Charges

     Atom                 Charge (a.u.)    Spin (a.u.)
  --------------------------------------------------------
      1 N                    -0.578086       0.366017
      2 C                     0.345969       0.011091
      3 C                    -0.358226       0.164638
      4 H                     0.289436      -0.008404
      5 C                     0.053056      -0.124140
      6 C                    -0.359068       0.164287
      7 H                     0.288997      -0.008429
      8 C                     0.050914      -0.123359
      9 C                     0.253096      -0.071340
     10 C                    -0.257035       0.096868
     11 H                     0.290740      -0.004955
     12 C                    -0.238512      -0.066796
     13 H                     0.270783       0.003657
     14 C                    -0.230895       0.107161
     15 H                     0.268772      -0.005867
     16 C                    -0.237204      -0.062212
     17 H                     0.269491       0.003219
     18 C                    -0.260360       0.092252
     19 H                     0.285227      -0.004793
     20 C                     0.247138      -0.070335
     21 C                    -0.253752       0.096231
     22 H                     0.290861      -0.004941
     23 C                    -0.238887      -0.066227
     24 H                     0.271085       0.003658
     25 C                    -0.230442       0.106024
     26 H                     0.268840      -0.005804
     27 C                    -0.237714      -0.061256
     28 H                     0.269396       0.003162
     29 C                    -0.258947       0.090857
     30 H                     0.284939      -0.004726
     31 C                    -0.145269       0.351841
     32 C                    -0.758537       0.009788
     33 H                     0.250766       0.001028
     34 H                     0.265452      -0.004620
     35 H                     0.263813      -0.003532
     36 C                    -0.757436       0.010046
     37 H                     0.250573       0.000990
     38 H                     0.263629      -0.004555
     39 H                     0.264633      -0.003591
     40 B                     0.546005       0.331456
     41 C                    -0.137432       0.020732
     42 C                    -0.409232      -0.011834
     43 H                     0.213771      -0.001238
     44 C                     0.057630       0.038876
     45 C                     0.075921       0.092444
     46 C                    -0.408571      -0.056515
     47 H                     0.229314       0.002254
     48 C                    -0.146206       0.063077
     49 C                     0.178633      -0.044467
     50 C                    -0.405868       0.069476
     51 H                     0.233025      -0.004076
     52 C                    -0.079290       0.023426
     53 C                     0.221129      -0.037901
     54 C                     0.177231      -0.057262
     55 C                    -0.408086       0.085191
     56 H                     0.240249      -0.004973
     57 C                    -0.230009      -0.045812
     58 H                     0.243778       0.002247
     59 C                    -0.358932       0.064528
     60 H                     0.241994      -0.003747
     61 C                    -0.228518      -0.052955
     62 H                     0.246015       0.002548
     63 C                    -0.361909       0.077418
     64 H                     0.241938      -0.004537
     65 C                    -0.136186       0.023359
     66 C                    -0.405826      -0.014393
     67 H                     0.213304      -0.001398
     68 C                     0.058176       0.041824
     69 C                     0.077758       0.090938
     70 C                    -0.413285      -0.055222
     71 H                     0.227035       0.002188
     72 C                    -0.146494       0.061358
     73 C                     0.176703      -0.045548
     74 C                    -0.403642       0.071226
     75 H                     0.231953      -0.004177
     76 C                    -0.079052       0.023631
     77 C                     0.222743      -0.038343
     78 C                     0.176441      -0.057140
     79 C                    -0.409252       0.085329
     80 H                     0.240780      -0.004979
     81 C                    -0.230959      -0.046804
     82 H                     0.243240       0.002294
     83 C                    -0.359529       0.066442
     84 H                     0.241819      -0.003864
     85 C                    -0.227893      -0.053258
     86 H                     0.246172       0.002564
     87 C                    -0.363162       0.077725
     88 H                     0.241857      -0.004555
     89 B                     0.563716       0.276362
     90 C                    -0.185644      -0.023983
     91 C                     0.034372       0.003142
     92 C                    -0.365480      -0.000788
     93 H                     0.239455       0.000342
     94 C                     0.278265       0.000643
     95 C                    -0.364324      -0.000816
     96 H                     0.239278       0.000337
     97 C                     0.033351       0.003052
     98 N                    -0.670722       0.000012
     99 C                     0.307636      -0.000014
    100 C                    -0.300186       0.000031
    101 H                     0.258635      -0.000002
    102 C                    -0.239230      -0.000025
    103 H                     0.243558       0.000001
    104 C                    -0.268346       0.000034
    105 H                     0.240135      -0.000002
    106 C                    -0.237886      -0.000025
    107 H                     0.244023       0.000002
    108 C                    -0.304319       0.000032
    109 H                     0.260305      -0.000002
    110 C                     0.298544      -0.000018
    111 C                    -0.300093       0.000033
    112 H                     0.258662      -0.000002
    113 C                    -0.239817      -0.000026
    114 H                     0.244133       0.000001
    115 C                    -0.266588       0.000035
    116 H                     0.240846      -0.000002
    117 C                    -0.238029      -0.000026
    118 H                     0.244418       0.000002
    119 C                    -0.296036       0.000030
    120 H                     0.258933      -0.000002
    121 C                    -0.761746       0.000646
    122 H                     0.241299       0.001441
    123 H                     0.244359      -0.000739
    124 H                     0.243964      -0.000757
    125 C                    -0.761324       0.000573
    126 H                     0.241274       0.001449
    127 H                     0.243751      -0.000771
    128 H                     0.244341      -0.000688
  --------------------------------------------------------
  Sum of atomic charges =    -0.000000

                    Cartesian Multipole Moments
 -----------------------------------------------------------------
    Charge (ESU x 10^10)
                -0.0000
    Dipole Moment (Debye)
         X      -0.0903      Y      -1.4879      Z     -28.7234
       Tot      28.7621
    Quadrupole Moments (Debye-Ang)
        XX    -421.1172     XY       7.6230     YY    -422.0645
        XZ      -2.3535     YZ     -11.0978     ZZ    -627.6953

 Total job time:  18185.48s(wall), 59585.96s(cpu)
        *  Thank you very much for using Q-Chem.  Have a nice day.  *
 Q-Chem 5.1, Q-Chem, Inc., Pleasanton, CA (2018)
 Q-Chem 5.1.1 for Intel X86 EM64T Linux

User input:
--------------------------------------------------------------
$rem
threads 8
jobtype sp
method PBEh-3c
basis def2-mSVP
mem_static      1024
mem_total       14000
sym_ignore      true
cis_n_roots             6
cis_singlets            true
cis_triplets            true
rpa                     false
calc_soc                true
cis_moments             true
cis_relaxed_density     true
solvent_method          pcm
$end

$molecule
read
$end

$pcm
statespecific           Marcus
$end

$solvent
dielectric      4.33
dielectric_infi 1.83
$end

--------------------------------------------------------------

             Standard Nuclear Orientation (Angstroms)
    I     Atom           X                Y                Z
 ----------------------------------------------------------------
    1      N       0.0000000000     0.0000000000     0.0000000000
    2      C       0.0000000000     0.0000000000     1.3667570000
    3      C       1.2201925199     0.0000000000     2.0743204998
    4      H       2.1539628135    -0.0723987005     1.5312339488
    5      C       1.2260780659     0.0401100706     3.4477963460
    6      C      -1.2173767336     0.0155170565     2.0791911349
    7      H      -2.1548358188     0.0505927250     1.5385527260
    8      C      -1.2164867937     0.0675514297     3.4524453756
    9      C      -1.0783478047    -0.5356731536    -0.7375470023
   10      C      -1.5977361742    -1.7845321485    -0.4022008338
   11      H      -1.1755846480    -2.3497451093     0.4185862023
   12      C      -2.6379624728    -2.3089034199    -1.1499554703
   13      H      -3.0366561665    -3.2823738852    -0.8988588876
   14      C      -3.1541560501    -1.5994914439    -2.2261718222
   15      H      -3.9649786675    -2.0157232899    -2.8088963415
   16      C      -2.6266295102    -0.3576399590    -2.5587801605
   17      H      -3.0311832620     0.1992413774    -3.3930113762
   18      C      -1.5865376211     0.1783044876    -1.8214930637
   19      H      -1.1832074926     1.1502975494    -2.0742165129
   20      C       1.0750230838     0.5561730279    -0.7287929947
   21      C       1.5757028189     1.8093021032    -0.3809911273
   22      H       1.1389123973     2.3629717020     0.4400027211
   23      C       2.6141341659     2.3526281535    -1.1178208609
   24      H       2.9990347746     3.3287437857    -0.8561090794
   25      C       3.1469753395     1.6570303445    -2.1951300147
   26      H       3.9574044274     2.0865697173    -2.7685704415
   27      C       2.6354809308     0.4122294954    -2.5419961087
   28      H       3.0516684258    -0.1326437093    -3.3785280438
   29      C       1.5966625479    -0.1418080243    -1.8163991234
   30      H       1.2036327837    -1.1148923962    -2.0805671692
   31      C       0.0068753168     0.0987886468     4.1694315847
   32      C      -2.5136999904     0.1274726667     4.1986561627
   33      H      -3.3681171327     0.1144187022     3.5231118038
   34      H      -2.5724651430     1.0304745483     4.8079442536
   35      H      -2.6055191969    -0.7184717068     4.8816298861
   36      C       2.5265755715     0.0177816803     4.1905650754
   37      H       3.3755520500    -0.0455024247     3.5112998931
   38      H       2.5712245924    -0.8299019879     4.8755472680
   39      H       2.6406525004     0.9179059043     4.7966261735
   40      B       0.0067133293     0.2322578012     5.7466222632
   41      C      -0.0261950964    -1.0148896782     6.6246979539
   42      C      -0.0473191731    -2.3042124714     6.0516204466
   43      H      -0.0352690423    -2.4155404715     4.9706006479
   44      C      -0.0846485783    -3.4205515566     6.8468420057
   45      C      -0.0996248553    -3.2926299001     8.2683381501
   46      C      -0.0775445525    -2.0441007439     8.8438376358
   47      H      -0.0888873999    -1.9452714494     9.9240728732
   48      C      -0.0411800786    -0.8806703999     8.0478923157
   49      C      -0.1167069306    -4.8433128986     6.5144440827
   50      C      -0.1185737103    -5.5759767280     5.3521297734
   51      H      -0.0913011398    -5.1039637318     4.3772230993
   52      C      -0.1502123142    -5.5318610192     7.7439436877
   53      C      -0.1857346228    -6.9199321244     7.8595036934
   54      C      -0.1404726216    -4.6393999001     8.8366664295
   55      C      -0.1666364482    -5.1679045949    10.1040349848
   56      H      -0.1606938340    -4.5381980831    10.9848702384
   57      C      -0.1558384957    -6.9869944143     5.4407514428
   58      H      -0.1576010100    -7.5627581833     4.5234472638
   59      C      -0.1882454619    -7.6517826236     6.6459379524
   60      H      -0.2156205551    -8.7347396992     6.6651295768
   61      C      -0.2028530932    -6.5747649333    10.2520048127
   62      H      -0.2235855483    -6.9871181348    11.2527823090
   63      C      -0.2125192983    -7.4360439528     9.1781749614
   64      H      -0.2398848886    -8.5068382428     9.3406550294
   65      C       0.0236250922     1.6234844448     6.3805706215
   66      C       0.0492909646     2.7807687651     5.5756253625
   67      H       0.0620160381     2.6834748406     4.4936053551
   68      C       0.0561198613     4.0283854561     6.1438624693
   69      C       0.0396385179     4.1768271893     7.5626469682
   70      C       0.0141648454     3.0582050724     8.3645059729
   71      H      -0.0008244042     3.1638253010     9.4445915139
   72      C       0.0058143339     1.7636436495     7.8039427203
   73      C       0.0750759982     5.3557781852     5.5414558109
   74      C       0.0910089448     5.8386400604     4.2559557208
   75      H       0.0927193085     5.1785250746     3.3965971869
   76      C       0.0726113587     6.2729392063     6.6115977888
   77      C       0.0865860243     7.6554209451     6.4496936488
   78      C       0.0520570146     5.6096816228     7.8575263266
   79      C       0.0465168129     6.3764042028     8.9963016273
   80      H       0.0301518248     5.9308710367     9.9831063260
   81      C       0.1053504656     7.2390509260     4.0635379331
   82      H       0.1176193107     7.6227277017     3.0509236652
   83      C       0.1035545556     8.1296440339     5.1139975673
   84      H       0.1144025958     9.1949440009     4.9176377180
   85      C       0.0625789822     7.7854673209     8.8641043774
   86      H       0.0591639745     8.3857261610     9.7650137139
   87      C       0.0812180552     8.4201163143     7.6422444621
   88      H       0.0923530833     9.5021565150     7.5935403509
   89      B      -0.0222827640     0.5137121759     8.7003420789
   90      C      -0.0303129902     0.6303854786    10.2780495173
   91      C      -1.2379604322     0.6427686947    10.9875329829
   92      C      -1.2385237714     0.6800924594    12.3771637240
   93      H      -2.1808245919     0.6685555411    12.9134141179
   94      C      -0.0444118915     0.7328945788    13.0837807724
   95      C       1.1575303353     0.7434958238    12.3869491768
   96      H       2.0927211988     0.7907463096    12.9334906728
   97      C       1.1708109660     0.6789506366    10.9985080856
   98      N      -0.0510505034     0.7677511925    14.4967513080
   99      C       0.7236545244    -0.1551875791    15.2108640611
  100      C       1.3157083531     0.1980511925    16.4250788715
  101      H       1.1762375456     1.1955456786    16.8217937680
  102      C       2.0849081756    -0.7201674616    17.1210599603
  103      H       2.5357396761    -0.4272454861    18.0607065915
  104      C       2.2985369385    -1.9954915243    16.6151815537
  105      H       2.9087025474    -2.7060467335    17.1568048389
  106      C       1.7200997738    -2.3448564631    15.4026584460
  107      H       1.8717083489    -3.3359509614    14.9939452735
  108      C       0.9321386875    -1.4414160431    14.7087779457
  109      H       0.4786111618    -1.7340333194    13.7705548809
  110      C      -0.9408290517     1.6339706558    15.1485494426
  111      C      -1.6752074779     1.2154027777    16.2585042834
  112      H      -1.5531595987     0.2088713107    16.6376091997
  113      C      -2.5705126536     2.0787163894    16.8705042299
  114      H      -3.1347662904     1.7343038837    17.7278439790
  115      C      -2.7649966856     3.3624415982    16.3799289931
  116      H      -3.4733531126     4.0291713922    16.8535150300
  117      C      -2.0411409521     3.7780233990    15.2700923632
  118      H      -2.1785586482     4.7764594045    14.8747014589
  119      C      -1.1304571582     2.9292340250    14.6635978596
  120      H      -0.5697071104     3.2658461932    13.8007502021
  121      C       2.4817864512     0.6659473032    10.2622531346
  122      H       3.3300037132     0.7232264445    10.9443379966
  123      H       2.5542146543     1.5027660911     9.5647933118
  124      H       2.5914697244    -0.2449252685     9.6693378075
  125      C      -2.5444594737     0.5867719702    10.2442213541
  126      H      -3.3963182774     0.6345637469    10.9224028748
  127      H      -2.6339539974     1.4135783006     9.5367820254
  128      H      -2.6320164178    -0.3331477327     9.6621420184
 ----------------------------------------------------------------

   29   -2927.8135626983      8.55e-09  Convergence criterion met
 Total energy in the final basis set =    -2927.8135626983

         TDDFT/TDA Excitation Energies
 ---------------------------------------------------

 Excited state   1: excitation energy (eV) =    0.1031
 Total energy for state  1:                 -2927.80977204 au
    <S**2>     :  2.0680
    Trans. Mom.: -0.0544 X   0.3955 Y   7.9803 Z
    Strength   :     0.1613402541
    D(253) --> S(  1) amplitude =  0.9887 beta

 Excited state   2: excitation energy (eV) =    0.7021
 Total energy for state  2:                 -2927.78776106 au
    <S**2>     :  2.0636
    Trans. Mom.:  0.0034 X   0.0138 Y   0.0062 Z
    Strength   :     0.0000041084
    D(252) --> S(  1) amplitude =  0.9967 beta

 Excited state   3: excitation energy (eV) =    1.0077
 Total energy for state  3:                 -2927.77653188 au
    <S**2>     :  2.0580
    Trans. Mom.:  0.0097 X   0.0290 Y   0.0303 Z
    Strength   :     0.0000457017
    D(251) --> S(  1) amplitude =  0.9921 beta

 Excited state   4: excitation energy (eV) =    1.1712
 Total energy for state  4:                 -2927.77052207 au
    <S**2>     :  2.0560
    Trans. Mom.:  0.0003 X   0.0096 Y   0.0231 Z
    Strength   :     0.0000179408
    D(250) --> S(  1) amplitude =  0.9918 beta

 Excited state   5: excitation energy (eV) =    1.4549
 Total energy for state  5:                 -2927.76009610 au
    <S**2>     :  2.0673
    Trans. Mom.:  0.1188 X  -0.0901 Y   0.0122 Z
    Strength   :     0.0007976052
    D(249) --> S(  1) amplitude =  0.9966 beta

 Excited state   6: excitation energy (eV) =    1.4839
 Total energy for state  6:                 -2927.75902918 au
    <S**2>     :  2.0616
    Trans. Mom.: -0.0014 X  -0.0269 Y   0.0354 Z
    Strength   :     0.0000719675
    D(247) --> S(  1) amplitude =  0.2256 beta
    D(248) --> S(  1) amplitude =  0.9695 beta

 ---------------------------------------------------
