 Q-Chem 5.1, Q-Chem, Inc., Pleasanton, CA (2018)
 Q-Chem 5.1.1 for Intel X86 EM64T Linux

User input:
--------------------------------------------------------------
$solvent
dielectric      2.38
dielectric_infi 2.25
$end

$rem
threads 8
jobtype	sp
method PBEh-3c
basis def2-mSVP
mem_static	1024
mem_total	14000
sym_ignore	true
cis_n_roots             2
cis_singlets            false
cis_triplets		true
rpa                     false
calc_soc 		true
cis_moments             true
cis_relaxed_density	true
solvent_method		pcm
$end

$pcm
StateSpecific   1
ChargeSeparation Excited
$end

$molecule
read utleopt_tol.mol
$end

--------------------------------------------------------------

   22   -2927.8182349221      8.74e-09  Convergence criterion met
 Total energy in the final basis set =    -2927.8182349221
 Total job time:  17178.02s(wall), 62704.14s(cpu)
        *  Thank you very much for using Q-Chem.  Have a nice day.  *
 Q-Chem 5.1, Q-Chem, Inc., Pleasanton, CA (2018)
 Q-Chem 5.1.1 for Intel X86 EM64T Linux

User input:
--------------------------------------------------------------
$rem
threads 8
jobtype sp
method PBEh-3c
basis def2-mSVP
mem_static      1024
mem_total       14000
sym_ignore      true
cis_n_roots             6
cis_singlets            true
cis_triplets            true
rpa                     false
calc_soc                true
cis_moments             true
cis_relaxed_density     true
solvent_method          pcm
$end

$molecule
read
$end

$pcm
statespecific           Marcus
$end

$solvent
dielectric      2.38
dielectric_infi 2.25
$end

--------------------------------------------------------------

             Standard Nuclear Orientation (Angstroms)
    I     Atom           X                Y                Z
 ----------------------------------------------------------------
    1      N       0.0000000000     0.0000000000     0.0000000000
    2      C       0.0000000000     0.0000000000     1.3642140000
    3      C       1.2275748506     0.0000000000     2.0631448955
    4      H       2.1554919659    -0.0799835802     1.5117850358
    5      C       1.2483580170     0.0615979627     3.4326457750
    6      C      -1.2146754248     0.0184831945     2.0854729837
    7      H      -2.1561457258     0.0437648495     1.5520045218
    8      C      -1.2003120405     0.0892619846     3.4564550360
    9      C      -1.0862388738    -0.5085125631    -0.7479628389
   10      C      -1.6258337488    -1.7523540177    -0.4319902386
   11      H      -1.2176663385    -2.3319512646     0.3859643214
   12      C      -2.6694552575    -2.2513181780    -1.1928019017
   13      H      -3.0856093579    -3.2207660957    -0.9554573476
   14      C      -3.1669423241    -1.5206251504    -2.2630248044
   15      H      -3.9802483561    -1.9163743780    -2.8562071231
   16      C      -2.6172332308    -0.2840477109    -2.5770674773
   17      H      -3.0057350595     0.2886833602    -3.4081853488
   18      C      -1.5740174397     0.2259473256    -1.8260357137
   19      H      -1.1484769310     1.1920151793    -2.0648308428
   20      C       1.0963177130     0.5248025548    -0.7246836826
   21      C       1.6294360711    -0.2026998043    -1.7856756363
   22      H       1.2226310668    -1.1723009515    -2.0425784226
   23      C       2.6970928086     0.3167805451    -2.4958686248
   24      H       3.1219634004    -0.2520494848    -3.3117864257
   25      C       3.2267483521     1.5560064549    -2.1595368845
   26      H       4.0610721813     1.9574956729    -2.7188532571
   27      C       2.6823234849     2.2818224658    -1.1092442544
   28      H       3.0828646223     3.2532839313    -0.8531671284
   29      C       1.6147530697     1.7734833797    -0.3893973415
   30      H       1.1769610219     2.3490536767     0.4162185261
   31      C       0.0323218108     0.1438109680     4.1601630125
   32      C      -2.4827750397     0.1667945127     4.2234711707
   33      H      -3.3510425975     0.0751814582     3.5721720119
   34      H      -2.5304660293    -0.6218728221     4.9757323909
   35      H      -2.5547122605     1.1136707962     4.7609654744
   36      C       2.5525525066     0.0560824029     4.1682226828
   37      H       3.3987154069    -0.0315136812     3.4876222385
   38      H       2.5961135817    -0.7676336706     4.8816225489
   39      H       2.6715107941     0.9744308758     4.7458167941
   40      B       0.0651510121     0.3821571539     5.7183109658
   41      C       0.1189027765    -0.7862661973     6.6937391417
   42      C       0.1271098448    -2.1205888975     6.2360245983
   43      H       0.0818208771    -2.3247381645     5.1694821777
   44      C       0.1950723018    -3.1626101459     7.1244155598
   45      C       0.2554068972    -2.9094617693     8.5261285045
   46      C       0.2465151409    -1.6137398635     8.9902206485
   47      H       0.2950838059    -1.4182361642    10.0566113468
   48      C       0.1789590713    -0.5252748217     8.0968954104
   49      C       0.2261902717    -4.6065112323     6.9184289518
   50      C       0.2000680437    -5.4306200639     5.8215132340
   51      H       0.1425040613    -5.0377835510     4.8133815739
   52      C       0.3035227632    -5.1864112447     8.1995220270
   53      C       0.3555134324    -6.5565299006     8.4315809077
   54      C       0.3232933222    -4.1990041647     9.2076767014
   55      C       0.3976783374    -4.6101403256    10.5140981288
   56      H       0.4157735538    -3.9023664960    11.3336540573
   57      C       0.2514303004    -6.8276384229     6.0276742438
   58      H       0.2312385464    -7.4795007659     5.1632271845
   59      C       0.3265728794    -7.3867406022     7.2835367554
   60      H       0.3641444659    -8.4637609868     7.3925583774
   61      C       0.4510769558    -5.9980735193    10.7821399498
   62      H       0.5093383537    -6.3200167349    11.8140792209
   63      C       0.4320264843    -6.9515498943     9.7893855955
   64      H       0.4755089213    -8.0025279792    10.0474372092
   65      C       0.0752816843     1.8244145148     6.2174640735
   66      C       0.0481756383     2.9061432020     5.3136163650
   67      H       0.0194717072     2.7207504912     4.2435660966
   68      C       0.0617688651     4.1969728371     5.7703562688
   69      C       0.1000531003     4.4716083325     7.1700946106
   70      C       0.1284900534     3.4289386940     8.0668463404
   71      H       0.1591988037     3.6287436151     9.1334263181
   72      C       0.1212785914     2.0912667780     7.6196117884
   73      C       0.0438144053     5.4688018838     5.0532085353
   74      C       0.0085617027     5.8445986405     3.7321458199
   75      H      -0.0164354621     5.1146283929     2.9318716031
   76      C       0.0714210567     6.4752857934     6.0375316294
   77      C       0.0657901307     7.8402243845     5.7544785333
   78      C       0.1050808373     5.9263762155     7.3370046838
   79      C       0.1339349713     6.7964557735     8.3996286541
   80      H       0.1604371179     6.4445381969     9.4232852597
   81      C       0.0026141949     7.2228085163     3.4169122684
   82      H      -0.0256845877     7.5163940347     2.3748376317
   83      C       0.0301564067     8.2006190061     4.3849948463
   84      H       0.0239587719     9.2458386676     4.0996123006
   85      C       0.1287615418     8.1881587447     8.1427061020
   86      H       0.1518259120     8.8663847880     8.9863366065
   87      C       0.0960023311     8.7108658858     6.8703477801
   88      H       0.0932227996     9.7842007469     6.7228691472
   89      B       0.1798521701     0.9257010352     8.6172362830
   90      C       0.2686630173     1.1909603594    10.1698684162
   91      C      -0.8853545220     1.2145774795    10.9624544263
   92      C      -0.7886416672     1.3399528346    12.3436235581
   93      H      -1.6858273465     1.3214288008    12.9518432179
   94      C       0.4531367171     1.4743845921    12.9525843347
   95      C       1.5972088866     1.5071439570    12.1657838415
   96      H       2.5655438603     1.6305579884    12.6374568317
   97      C       1.5148392262     1.3541252537    10.7879546828
   98      N       0.5645429694     1.5532203551    14.3594520129
   99      C      -0.2396409875     2.4490346567    15.0723308028
  100      C      -0.7545043356     2.1116114145    16.3254197416
  101      H      -0.5331324844     1.1434110356    16.7560153696
  102      C      -1.5525264164     3.0076787389    17.0176023308
  103      H      -1.9426853372     2.7271121712    17.9877425875
  104      C      -1.8714992361     4.2429420478    16.4709179368
  105      H      -2.5031973800     4.9356452730    17.0109091612
  106      C      -1.3702546838     4.5753983333    15.2199778016
  107      H      -1.6047796578     5.5359226792    14.7789140906
  108      C      -0.5552260561     3.6954435604    14.5282187162
  109      H      -0.1621740899     3.9727838160    13.5585742262
  110      C       1.5085974072     0.7429350057    15.0050496925
  111      C       2.2675502781     1.2293330279    16.0701505442
  112      H       2.1256321587     2.2460785527    16.4139644198
  113      C       3.2134964184     0.4221163841    16.6813578038
  114      H       3.7941077443     0.8192425414    17.5043647752
  115      C       3.4380169009    -0.8718374586    16.2329232623
  116      H       4.1865018095    -1.4942479722    16.7050213588
  117      C       2.6920876443    -1.3539803245    15.1661891581
  118      H       2.8523436056    -2.3610852466    14.8026918915
  119      C       1.7302783033    -0.5624064026    14.5621084594
  120      H       1.1546026376    -0.9517134850    13.7322258065
  121      C      -2.2339383010     1.0731429479    10.3131735117
  122      H      -3.0427798366     1.1160091185    11.0425992049
  123      H      -2.3184377189     0.1271122623     9.7744073440
  124      H      -2.4013059807     1.8656844389     9.5807727647
  125      C       2.7684295773     1.3646335267     9.9570450656
  126      H       3.6604675174     1.4787929758    10.5732006418
  127      H       2.7560610847     2.1795288870     9.2304984150
  128      H       2.8735009115     0.4392189766     9.3867569863
 ----------------------------------------------------------------

   22   -2927.8168852748      9.00e-09  Convergence criterion met
 Total energy in the final basis set =    -2927.8168852748

         TDDFT/TDA Excitation Energies
 ---------------------------------------------------

 Excited state   1: excitation energy (eV) =    0.7824
 Total energy for state  1:                 -2927.78813160 au
    <S**2>     :  2.0774
    Trans. Mom.: -0.0145 X  -0.0468 Y  -0.4112 Z
    Strength   :     0.0032879129
    D(253) --> S(  1) amplitude =  0.9975 beta

 Excited state   2: excitation energy (eV) =    0.9251
 Total energy for state  2:                 -2927.78288777 au
    <S**2>     :  2.0749
    Trans. Mom.:  0.0024 X  -0.0046 Y  -0.0483 Z
    Strength   :     0.0000535133
    D(252) --> S(  1) amplitude =  0.9953 beta

 Excited state   3: excitation energy (eV) =    1.2469
 Total energy for state  3:                 -2927.77106173 au
    <S**2>     :  2.0697
    Trans. Mom.:  0.0100 X  -0.0033 Y  -0.0268 Z
    Strength   :     0.0000253842
    D(251) --> S(  1) amplitude =  0.9831 beta

 Excited state   4: excitation energy (eV) =    1.4115
 Total energy for state  4:                 -2927.76501460 au
    <S**2>     :  2.0679
    Trans. Mom.:  0.0026 X   0.1360 Y  -0.0517 Z
    Strength   :     0.0007320827
    D(250) --> S(  1) amplitude =  0.9825 beta

 Excited state   5: excitation energy (eV) =    1.4356
 Total energy for state  5:                 -2927.76412851 au
    <S**2>     :  2.1381
    Trans. Mom.: -0.0901 X   4.3489 Y  -0.7804 Z
    Strength   :     0.6868915426
    S(  2) --> V(  1) amplitude =  0.9767 alpha

 Excited state   6: excitation energy (eV) =    1.7102
 Total energy for state  6:                 -2927.75403558 au
    <S**2>     :  2.0729
    Trans. Mom.: -0.0012 X   0.0439 Y   0.0484 Z
    Strength   :     0.0001791396
    D(249) --> S(  1) amplitude =  0.9845 beta

 ---------------------------------------------------

                    Orbital Energies (a.u.)
 --------------------------------------------------------------

 Alpha MOs
 -- Occupied --
-14.772 -14.658 -10.549 -10.536 -10.536 -10.492 -10.492 -10.491
-10.491 -10.487 -10.486 -10.485 -10.485 -10.485 -10.484 -10.484
-10.483 -10.483 -10.483 -10.481 -10.481 -10.470 -10.467 -10.452
-10.451 -10.449 -10.448 -10.448 -10.448 -10.447 -10.447 -10.447
-10.446 -10.446 -10.446 -10.445 -10.445 -10.445 -10.444 -10.444
-10.444 -10.438 -10.438 -10.438 -10.438 -10.438 -10.438 -10.438
-10.437 -10.437 -10.436 -10.435 -10.434 -10.434 -10.434 -10.434
-10.434 -10.434 -10.434 -10.433 -10.433 -10.432 -10.432 -10.431
-10.429 -10.421 -10.420 -10.409 -10.409 -10.409 -10.409 -10.405
-10.404 -10.399  -6.901  -6.896  -1.162  -1.068  -1.006  -1.005
 -0.998  -0.998  -0.983  -0.950  -0.946  -0.941  -0.939  -0.926
 -0.918  -0.918  -0.909  -0.905  -0.893  -0.887  -0.880  -0.879
 -0.879  -0.855  -0.846  -0.844  -0.841  -0.835  -0.835  -0.832
 -0.832  -0.827  -0.826  -0.802  -0.799  -0.797  -0.794  -0.790
 -0.787  -0.783  -0.757  -0.749  -0.748  -0.747  -0.727  -0.720
 -0.716  -0.713  -0.711  -0.702  -0.695  -0.693  -0.680  -0.677
 -0.672  -0.670  -0.666  -0.662  -0.655  -0.646  -0.646  -0.633
 -0.630  -0.627  -0.627  -0.625  -0.604  -0.596  -0.593  -0.589
 -0.588  -0.578  -0.577  -0.574  -0.572  -0.567  -0.563  -0.560
 -0.558  -0.556  -0.551  -0.549  -0.538  -0.537  -0.533  -0.529
 -0.527  -0.525  -0.523  -0.522  -0.511  -0.511  -0.509  -0.506
 -0.505  -0.501  -0.499  -0.494  -0.489  -0.486  -0.485  -0.485
 -0.484  -0.478  -0.477  -0.474  -0.472  -0.472  -0.471  -0.471
 -0.471  -0.470  -0.469  -0.465  -0.463  -0.458  -0.458  -0.457
 -0.456  -0.453  -0.452  -0.448  -0.448  -0.446  -0.444  -0.441
 -0.439  -0.438  -0.437  -0.429  -0.427  -0.423  -0.423  -0.417
 -0.416  -0.413  -0.412  -0.409  -0.408  -0.407  -0.401  -0.401
 -0.398  -0.391  -0.387  -0.385  -0.383  -0.383  -0.382  -0.380
 -0.376  -0.373  -0.369  -0.357  -0.355  -0.352  -0.348  -0.345
 -0.340  -0.338  -0.333  -0.331  -0.319  -0.318  -0.317  -0.307
 -0.300  -0.293  -0.290  -0.285  -0.285  -0.284  -0.277  -0.269
 -0.268  -0.260  -0.252  -0.241  -0.238  -0.208  -0.149

 Beta MOs
 -- Occupied --
-14.763 -14.658 -10.549 -10.537 -10.537 -10.491 -10.490 -10.490
-10.490 -10.488 -10.487 -10.484 -10.484 -10.484 -10.484 -10.483
-10.483 -10.483 -10.482 -10.481 -10.481 -10.467 -10.465 -10.452
-10.451 -10.449 -10.448 -10.448 -10.448 -10.447 -10.447 -10.447
-10.446 -10.446 -10.445 -10.445 -10.445 -10.444 -10.444 -10.444
-10.443 -10.438 -10.438 -10.438 -10.438 -10.438 -10.438 -10.437
-10.437 -10.436 -10.435 -10.435 -10.434 -10.434 -10.434 -10.434
-10.434 -10.434 -10.434 -10.433 -10.432 -10.432 -10.432 -10.431
-10.430 -10.421 -10.420 -10.409 -10.409 -10.409 -10.408 -10.404
-10.403 -10.400  -6.898  -6.894  -1.148  -1.068  -1.003  -1.001
 -0.998  -0.998  -0.978  -0.950  -0.946  -0.940  -0.938  -0.926
 -0.918  -0.917  -0.908  -0.900  -0.892  -0.886  -0.879  -0.879
 -0.878  -0.855  -0.845  -0.841  -0.838  -0.834  -0.833  -0.831
 -0.831  -0.827  -0.826  -0.799  -0.796  -0.795  -0.793  -0.787
 -0.785  -0.781  -0.752  -0.749  -0.747  -0.746  -0.724  -0.718
 -0.715  -0.711  -0.709  -0.702  -0.695  -0.693  -0.678  -0.675
 -0.672  -0.670  -0.664  -0.662  -0.653  -0.644  -0.644  -0.631
 -0.629  -0.627  -0.626  -0.625  -0.602  -0.596  -0.590  -0.584
 -0.578  -0.577  -0.576  -0.574  -0.570  -0.566  -0.560  -0.559
 -0.557  -0.554  -0.549  -0.548  -0.537  -0.536  -0.531  -0.529
 -0.525  -0.524  -0.522  -0.521  -0.510  -0.510  -0.509  -0.502
 -0.501  -0.499  -0.496  -0.492  -0.488  -0.485  -0.485  -0.483
 -0.478  -0.477  -0.474  -0.473  -0.472  -0.471  -0.471  -0.470
 -0.468  -0.468  -0.467  -0.465  -0.463  -0.457  -0.456  -0.455
 -0.453  -0.452  -0.449  -0.448  -0.448  -0.445  -0.444  -0.439
 -0.437  -0.436  -0.434  -0.429  -0.425  -0.423  -0.422  -0.416
 -0.413  -0.412  -0.411  -0.408  -0.406  -0.403  -0.401  -0.396
 -0.391  -0.387  -0.385  -0.382  -0.381  -0.380  -0.379  -0.378
 -0.375  -0.371  -0.368  -0.354  -0.347  -0.347  -0.344  -0.343
 -0.335  -0.331  -0.331  -0.323  -0.316  -0.312  -0.302  -0.300
 -0.296  -0.293  -0.290  -0.284  -0.282  -0.281  -0.268  -0.259
 -0.258  -0.244  -0.238  -0.231  -0.208

          Ground-State Mulliken Net Atomic Charges

     Atom                 Charge (a.u.)    Spin (a.u.)
  --------------------------------------------------------
      1 N                    -0.586051       0.339878
      2 C                     0.349483       0.040490
      3 C                    -0.364554       0.153491
      4 H                     0.284689      -0.007995
      5 C                     0.058192      -0.115145
      6 C                    -0.358661       0.148752
      7 H                     0.282560      -0.007843
      8 C                     0.058562      -0.109339
      9 C                     0.255739      -0.067574
     10 C                    -0.258052       0.086846
     11 H                     0.283994      -0.004501
     12 C                    -0.234245      -0.059621
     13 H                     0.265221       0.003338
     14 C                    -0.227971       0.094008
     15 H                     0.262844      -0.005174
     16 C                    -0.232562      -0.055207
     17 H                     0.263517       0.002867
     18 C                    -0.259475       0.082605
     19 H                     0.277744      -0.004336
     20 C                     0.242087      -0.065595
     21 C                    -0.255624       0.080032
     22 H                     0.276489      -0.004233
     23 C                    -0.233284      -0.053153
     24 H                     0.263238       0.002778
     25 C                    -0.227467       0.091588
     26 H                     0.263086      -0.005040
     27 C                    -0.233662      -0.058282
     28 H                     0.266438       0.003275
     29 C                    -0.252786       0.085100
     30 H                     0.284742      -0.004394
     31 C                    -0.141222       0.376638
     32 C                    -0.755571       0.008848
     33 H                     0.244157       0.001115
     34 H                     0.268353      -0.002940
     35 H                     0.271365      -0.003898
     36 C                    -0.756406       0.009499
     37 H                     0.244322       0.001131
     38 H                     0.269281      -0.004187
     39 H                     0.271265      -0.003159
     40 B                     0.544358       0.343095
     41 C                    -0.133322       0.010909
     42 C                    -0.409752      -0.001932
     43 H                     0.201691      -0.001643
     44 C                     0.067052       0.027686
     45 C                     0.083309       0.099781
     46 C                    -0.405142      -0.061671
     47 H                     0.228359       0.002582
     48 C                    -0.145905       0.069940
     49 C                     0.180740      -0.040693
     50 C                    -0.400661       0.064405
     51 H                     0.221384      -0.003806
     52 C                    -0.076729       0.022683
     53 C                     0.233213      -0.036742
     54 C                     0.182690      -0.058280
     55 C                    -0.404061       0.085843
     56 H                     0.233660      -0.005030
     57 C                    -0.223354      -0.043211
     58 H                     0.234083       0.002145
     59 C                    -0.356010       0.060484
     60 H                     0.232788      -0.003529
     61 C                    -0.220945      -0.053026
     62 H                     0.238082       0.002562
     63 C                    -0.359773       0.078035
     64 H                     0.232748      -0.004614
     65 C                    -0.130817       0.017749
     66 C                    -0.400122      -0.006905
     67 H                     0.199747      -0.002186
     68 C                     0.064083       0.032555
     69 C                     0.080600       0.100311
     70 C                    -0.408893      -0.062148
     71 H                     0.226793       0.002580
     72 C                    -0.148786       0.070264
     73 C                     0.185208      -0.042913
     74 C                    -0.401892       0.068234
     75 H                     0.216870      -0.004050
     76 C                    -0.078466       0.023631
     77 C                     0.229379      -0.038318
     78 C                     0.184197      -0.059236
     79 C                    -0.406179       0.087954
     80 H                     0.233957      -0.005156
     81 C                    -0.222905      -0.045385
     82 H                     0.232736       0.002250
     83 C                    -0.354827       0.063784
     84 H                     0.232933      -0.003724
     85 C                    -0.220057      -0.054276
     86 H                     0.238349       0.002621
     87 C                    -0.358312       0.079667
     88 H                     0.232933      -0.004704
     89 B                     0.580221       0.266822
     90 C                    -0.188433      -0.023400
     91 C                     0.039854       0.003203
     92 C                    -0.360692      -0.000850
     93 H                     0.235634       0.000341
     94 C                     0.277743       0.000707
     95 C                    -0.362719      -0.000811
     96 H                     0.235966       0.000337
     97 C                     0.039393       0.003107
     98 N                    -0.671995       0.000050
     99 C                     0.310186      -0.000025
    100 C                    -0.298106       0.000044
    101 H                     0.255060      -0.000002
    102 C                    -0.232145      -0.000033
    103 H                     0.235428       0.000002
    104 C                    -0.261346       0.000049
    105 H                     0.232006      -0.000003
    106 C                    -0.231070      -0.000034
    107 H                     0.235743       0.000002
    108 C                    -0.298435       0.000045
    109 H                     0.256716      -0.000002
    110 C                     0.300672      -0.000025
    111 C                    -0.294915       0.000045
    112 H                     0.255026      -0.000002
    113 C                    -0.232994      -0.000035
    114 H                     0.235534       0.000002
    115 C                    -0.260261       0.000051
    116 H                     0.232371      -0.000003
    117 C                    -0.230909      -0.000036
    118 H                     0.236159       0.000002
    119 C                    -0.292136       0.000045
    120 H                     0.256599      -0.000002
    121 C                    -0.759769       0.000644
    122 H                     0.237052       0.001415
    123 H                     0.245478      -0.000757
    124 H                     0.242749      -0.000667
    125 C                    -0.760388       0.000574
    126 H                     0.237294       0.001415
    127 H                     0.243831      -0.000602
    128 H                     0.244798      -0.000848
  --------------------------------------------------------
  Sum of atomic charges =    -0.000000

                    Cartesian Multipole Moments
 -----------------------------------------------------------------
    Charge (ESU x 10^10)
                -0.0000
    Dipole Moment (Debye)
         X      -0.4320      Y      -2.6082      Z     -26.2787
       Tot      26.4114
    Quadrupole Moments (Debye-Ang)
        XX    -421.4199     XY       6.6393     YY    -428.5433
        XZ      -2.8805     YZ     -17.3951     ZZ    -612.7467

 Total job time:  25413.97s(wall), 84813.71s(cpu)
        *  Thank you very much for using Q-Chem.  Have a nice day.  *
