 Q-Chem 5.1, Q-Chem, Inc., Pleasanton, CA (2018)
 Q-Chem 5.1.1 for Intel X86 EM64T Linux

User input:
--------------------------------------------------------------
$rem
threads 4
jobtype	opt
method PBEh-3c
basis def2-mSVP
mem_static	512
mem_total	6096
sym_ignore	true
scf_convergence 9
$end

$molecule
read gsopt.mol
$end

--------------------------------------------------------------

   17   -2927.8693176577      6.98e-10  Convergence criterion met
 Total energy in the final basis set =    -2927.8693176577
   14   -2927.8691121856      5.52e-10  Convergence criterion met
 Total energy in the final basis set =    -2927.8691121856
   14   -2927.8684664294      6.43e-10  Convergence criterion met
 Total energy in the final basis set =    -2927.8684664294
   13   -2927.8677937451      8.08e-10  Convergence criterion met
 Total energy in the final basis set =    -2927.8677937451
   13   -2927.8678748009      5.87e-10  Convergence criterion met
 Total energy in the final basis set =    -2927.8678748009
   13   -2927.8679682506      5.18e-10  Convergence criterion met
 Total energy in the final basis set =    -2927.8679682506
   12   -2927.8679020323      4.96e-10  Convergence criterion met
 Total energy in the final basis set =    -2927.8679020323
   11   -2927.8678610181      7.39e-10  Convergence criterion met
   12   -2927.8678187152      4.55e-10  Convergence criterion met
 Total energy in the final basis set =    -2927.8678187152
   12   -2927.8677719439      9.36e-10  Convergence criterion met
 Total energy in the final basis set =    -2927.8677719439
   11   -2927.8678095592      6.10e-10  Convergence criterion met
 Total energy in the final basis set =    -2927.8678095592
   11   -2927.8678355327      5.85e-10  Convergence criterion met
 Total energy in the final basis set =    -2927.8678355327
   11   -2927.8678411472      7.97e-10  Convergence criterion met
 Total energy in the final basis set =    -2927.8678411472
   10   -2927.8678343085      6.22e-10  Convergence criterion met
 Total energy in the final basis set =    -2927.8678343085

             Standard Nuclear Orientation (Angstroms)
    I     Atom           X                Y                Z
 ----------------------------------------------------------------
    1      N      -0.1079577221     0.4211856796     0.2835206142
    2      C      -0.0927023485     0.4336349652     1.6848053910
    3      C       1.1172767241     0.4343401214     2.3795521276
    4      H       2.0503499006     0.4176962450     1.8315857588
    5      C       1.1268677193     0.4561576082     3.7638218163
    6      H       2.0749453071     0.4572614116     4.2858803979
    7      C      -0.0606990157     0.4583614371     4.4809616774
    8      H      -0.0485298958     0.4669287068     5.5624141293
    9      C      -1.2643441559     0.4509104741     3.7915243147
   10      H      -2.2007911238     0.4616292887     4.3342420398
   11      C      -1.2859908887     0.4497147750     2.4074920299
   12      H      -2.2325993707     0.4613074615     1.8829509035
   13      C      -1.0998241538    -0.2801273766    -0.4211094241
   14      C      -1.7035173044     0.2934564555    -1.5398238786
   15      H      -1.4158602274     1.2892135815    -1.8517337213
   16      C      -2.6636363385    -0.4052260273    -2.2519922587
   17      H      -3.1199590834     0.0538513565    -3.1196557000
   18      C      -3.0536239421    -1.6754900318    -1.8540383394
   19      H      -3.8078834478    -2.2162477201    -2.4098224772
   20      C      -2.4620495561    -2.2441935632    -0.7356531330
   21      H      -2.7485794516    -3.2383840470    -0.4177772445
   22      C      -1.4861198801    -1.5612453967    -0.0288640274
   23      H      -1.0185768278    -2.0228442315     0.8313603649
   24      C       0.8545370032     1.1462125723    -0.4474468359
   25      C       1.1505198124     2.4645919407    -0.1235213407
   26      H       0.6429488732     2.9355085542     0.7102264466
   27      C       2.0762730160     3.1830027133    -0.8683770239
   28      C       1.4979250112     0.5475927008    -1.5240458805
   29      H       1.2704996194    -0.4823037870    -1.7743521521
   30      C       2.4111777580     1.2582069412    -2.2890946490
   31      C       2.7089237084     2.5876916980    -1.9649078212
   32      C       3.0804865455     0.5989616192    -3.4631493195
   33      H       2.7447694821    -0.4293741980    -3.5934490427
   34      H       4.1662600181     0.5779367966    -3.3478560686
   35      H       2.8701100032     1.1313352969    -4.3934607322
   36      C       2.3727916481     4.6161225506    -0.5266352075
   37      H       1.8468014484     4.9354641198     0.3723222915
   38      H       3.4403357013     4.7718947712    -0.3570462887
   39      H       2.0759300730     5.2870308512    -1.3363430964
   40      B       3.6964284317     3.4119585840    -2.8618460415
   41      C       3.1487873144     4.1637971906    -4.1059494790
   42      C       1.8048590005     4.0371066819    -4.4600061011
   43      H       1.1350130056     3.4580337972    -3.8338465109
   44      C       1.3431963991     4.6204740648    -5.6237099191
   45      C       2.2138409382     5.3730024379    -6.4429841075
   46      C       3.5369244452     5.5396436734    -6.0760656698
   47      H       4.2085037554     6.1269562224    -6.6928584931
   48      C       4.0210172535     4.9242063218    -4.9182867311
   49      C       0.0307542426     4.5752298311    -6.2677402895
   50      C      -1.1738590836     3.9860501894    -5.9844889379
   51      H      -1.3280863473     3.4048190415    -5.0837534833
   52      C       0.1566251092     5.3043102350    -7.4631903718
   53      C      -0.8677773886     5.4629518739    -8.3916939806
   54      C       1.4586022179     5.8144525541    -7.6202327160
   55      C       1.7433738785     6.5220679526    -8.7591708960
   56      H       2.7273422262     6.9335348713    -8.9460668225
   57      C      -2.2374868271     4.1374982133    -6.9057059903
   58      H      -3.1872901000     3.6697402206    -6.6814766255
   59      C      -2.1030173101     4.8490967552    -8.0741779863
   60      H      -2.9413070777     4.9335848024    -8.7550459464
   61      C      -0.5475243089     6.2015031341    -9.5554555875
   62      H      -1.2974027964     6.3621431786   -10.3205172543
   63      C       0.7198101575     6.7081058771    -9.7193429637
   64      H       0.9501991929     7.2658926353   -10.6176531932
   65      C       5.2205316732     3.4134238364    -2.5718047778
   66      C       5.7323130856     2.6075860786    -1.5537092242
   67      H       5.0517258710     2.0394218308    -0.9287091147
   68      C       7.0998190005     2.4999397190    -1.3834252867
   69      C       7.9810043313     3.2269435325    -2.2124265356
   70      C       7.4792404841     4.0728381412    -3.1872063670
   71      H       8.1513497202     4.6449346123    -3.8175495746
   72      C       6.0993470136     4.1612954711    -3.3902375901
   73      C       7.8933702096     1.6496771789    -0.5000374968
   74      C       7.6044971030     0.7097915871     0.4527172877
   75      H       6.5859316027     0.4814154662     0.7414159820
   76      C       9.2384652050     1.8806609958    -0.8389113309
   77      C      10.3108014805     1.1990756525    -0.2771993979
   78      C       9.3483898313     2.8328774613    -1.8698183582
   79      C      10.5944161558     3.1269491335    -2.3534795162
   80      H      10.7430969837     3.8389181780    -3.1555998841
   81      C       8.6765390639     0.0120362824     1.0556568640
   82      H       8.4510930902    -0.7335776329     1.8068596069
   83      C       9.9886187649     0.2372819608     0.7107842976
   84      H      10.7754256008    -0.3321931024     1.1898214173
   85      C      11.5883617396     1.5273709212    -0.7899465910
   86      H      12.4717576899     1.0360375750    -0.4014611233
   87      C      11.7098333241     2.4613194594    -1.7920071332
   88      H      12.6946742527     2.6924673774    -2.1759133901
   89      B       5.5250301876     5.0347001820    -4.5437729018
   90      C       6.4503860930     6.0255863599    -5.3295018517
   91      C       7.1569095806     5.6223766934    -6.4672208874
   92      C       7.9613800266     6.5307702271    -7.1414548307
   93      H       8.4976328648     6.2181094928    -8.0298622531
   94      C       8.0909814258     7.8395792178    -6.6895855888
   95      C       7.3833602055     8.2414376791    -5.5619983555
   96      H       7.4786814196     9.2603661576    -5.2063251948
   97      C       6.5581038544     7.3504570431    -4.8916542939
   98      N       8.9247021810     8.7462371464    -7.3698031855
   99      C       8.4760591968    10.0543170879    -7.6143549022
  100      C       9.3292607268    11.1426780553    -7.4390887408
  101      H      10.3476796557    10.9779185457    -7.1111910626
  102      C       8.8757394318    12.4288275840    -7.6802755396
  103      H       9.5495434710    13.2637781888    -7.5381706710
  104      C       7.5661076282    12.6531786996    -8.0790123779
  105      H       7.2130565691    13.6600559291    -8.2567251614
  106      C       6.7138381843    11.5712422070    -8.2459050735
  107      H       5.6908628740    11.7304072978    -8.5617204912
  108      C       7.1635850575    10.2803846734    -8.0264864078
  109      H       6.4959308049     9.4405376852    -8.1705559418
  110      C      10.1862164299     8.3307511336    -7.8205737977
  111      C      10.6617078502     8.7342467326    -9.0675288086
  112      H      10.0510483089     9.3712845618    -9.6942413081
  113      C      11.9083098346     8.3203256766    -9.5058651356
  114      H      12.2619374696     8.6425551615   -10.4767715057
  115      C      12.6920903280     7.4852720577    -8.7237253524
  116      H      13.6618303447     7.1581085606    -9.0738086918
  117      C      12.2159681978     7.0746812692    -7.4869795808
  118      H      12.8181543788     6.4281203131    -6.8617818543
  119      C      10.9794765542     7.4982660175    -7.0312161095
  120      H      10.6213152193     7.1822113490    -6.0599968940
  121      C       5.7771107796     7.8001041503    -3.6883562180
  122      H       5.9949037803     8.8347678014    -3.4260302750
  123      H       5.9984630637     7.1857810166    -2.8125801219
  124      H       4.7018165755     7.7263983224    -3.8671689791
  125      C       7.0093382362     4.2172670960    -6.9840380290
  126      H       7.6963028260     4.0129304802    -7.8046805722
  127      H       7.2008336341     3.4766529194    -6.2044777455
  128      H       5.9968736516     4.0329963010    -7.3516963115
 ----------------------------------------------------------------

   10   -2927.8678292154      5.02e-10  Convergence criterion met
 Total energy in the final basis set =    -2927.8678292154
 Final energy is   -2927.86782921537
 **  OPTIMIZATION CONVERGED  **

                    Orbital Energies (a.u.)
 --------------------------------------------------------------

 Alpha MOs
 -- Occupied --
-14.667 -14.667 -10.489 -10.488 -10.488 -10.488 -10.482 -10.482
-10.466 -10.466 -10.465 -10.465 -10.465 -10.465 -10.464 -10.464
-10.463 -10.463 -10.463 -10.463 -10.463 -10.462 -10.462 -10.462
-10.461 -10.461 -10.461 -10.460 -10.460 -10.460 -10.455 -10.454
-10.454 -10.453 -10.453 -10.452 -10.452 -10.451 -10.447 -10.447
-10.447 -10.447 -10.447 -10.447 -10.446 -10.446 -10.445 -10.445
-10.443 -10.443 -10.443 -10.443 -10.442 -10.442 -10.442 -10.441
-10.441 -10.441 -10.441 -10.439 -10.435 -10.435 -10.434 -10.434
-10.434 -10.434 -10.433 -10.433 -10.428 -10.428 -10.427 -10.426
-10.420 -10.418  -6.949  -6.948  -1.078  -1.077  -1.017  -1.016
 -0.964  -0.960  -0.959  -0.959  -0.958  -0.958  -0.938  -0.938
 -0.934  -0.934  -0.910  -0.902  -0.873  -0.872  -0.863  -0.858
 -0.855  -0.852  -0.849  -0.849  -0.848  -0.847  -0.837  -0.836
 -0.836  -0.834  -0.822  -0.815  -0.813  -0.805  -0.798  -0.798
 -0.768  -0.768  -0.764  -0.763  -0.736  -0.731  -0.728  -0.721
 -0.708  -0.707  -0.702  -0.702  -0.690  -0.682  -0.680  -0.680
 -0.679  -0.674  -0.667  -0.666  -0.650  -0.649  -0.644  -0.644
 -0.638  -0.637  -0.605  -0.605  -0.596  -0.595  -0.594  -0.590
 -0.586  -0.586  -0.585  -0.577  -0.575  -0.561  -0.560  -0.551
 -0.550  -0.545  -0.544  -0.540  -0.540  -0.538  -0.529  -0.526
 -0.520  -0.519  -0.516  -0.509  -0.509  -0.508  -0.504  -0.499
 -0.497  -0.497  -0.496  -0.494  -0.494  -0.490  -0.486  -0.485
 -0.485  -0.483  -0.483  -0.482  -0.481  -0.480  -0.480  -0.477
 -0.473  -0.471  -0.470  -0.469  -0.466  -0.465  -0.463  -0.459
 -0.459  -0.455  -0.446  -0.442  -0.441  -0.440  -0.440  -0.437
 -0.432  -0.426  -0.425  -0.424  -0.424  -0.423  -0.422  -0.421
 -0.418  -0.411  -0.411  -0.410  -0.405  -0.404  -0.400  -0.400
 -0.399  -0.396  -0.396  -0.396  -0.395  -0.394  -0.392  -0.391
 -0.386  -0.385  -0.380  -0.369  -0.358  -0.357  -0.352  -0.352
 -0.344  -0.341  -0.319  -0.314  -0.301  -0.301  -0.297  -0.297
 -0.296  -0.295  -0.293  -0.292  -0.284  -0.282  -0.281  -0.275
 -0.274  -0.263  -0.257  -0.256  -0.219  -0.218

          Ground-State Mulliken Net Atomic Charges

     Atom                 Charge (a.u.)
  ----------------------------------------
      1 N                    -0.674754
      2 C                     0.310294
      3 C                    -0.282040
      4 H                     0.240392
      5 C                    -0.212197
      6 H                     0.217586
      7 C                    -0.240250
      8 H                     0.216186
      9 C                    -0.212821
     10 H                     0.219252
     11 C                    -0.287610
     12 H                     0.246563
     13 C                     0.290144
     14 C                    -0.271729
     15 H                     0.237800
     16 C                    -0.211896
     17 H                     0.215405
     18 C                    -0.237115
     19 H                     0.217439
     20 C                    -0.215006
     21 H                     0.220333
     22 C                    -0.275630
     23 H                     0.245420
     24 C                     0.289905
     25 C                    -0.353189
     26 H                     0.232201
     27 C                     0.061259
     28 C                    -0.353035
     29 H                     0.231657
     30 C                     0.059054
     31 C                    -0.223099
     32 C                    -0.759939
     33 H                     0.239399
     34 H                     0.244975
     35 H                     0.246590
     36 C                    -0.762819
     37 H                     0.240563
     38 H                     0.244661
     39 H                     0.244117
     40 B                     0.702190
     41 C                    -0.152363
     42 C                    -0.384354
     43 H                     0.232515
     44 C                     0.094256
     45 C                     0.102232
     46 C                    -0.390391
     47 H                     0.230708
     48 C                    -0.151659
     49 C                     0.197756
     50 C                    -0.378504
     51 H                     0.215982
     52 C                    -0.062393
     53 C                     0.250643
     54 C                     0.197099
     55 C                    -0.383670
     56 H                     0.217920
     57 C                    -0.203971
     58 H                     0.226042
     59 C                    -0.333021
     60 H                     0.220837
     61 C                    -0.334365
     62 H                     0.221000
     63 C                    -0.203118
     64 H                     0.226840
     65 C                    -0.151763
     66 C                    -0.386411
     67 H                     0.231518
     68 C                     0.092686
     69 C                     0.106238
     70 C                    -0.390166
     71 H                     0.229872
     72 C                    -0.151969
     73 C                     0.193058
     74 C                    -0.377069
     75 H                     0.218671
     76 C                    -0.060699
     77 C                     0.252432
     78 C                     0.193684
     79 C                    -0.380520
     80 H                     0.217588
     81 C                    -0.204934
     82 H                     0.227127
     83 C                    -0.333407
     84 H                     0.220747
     85 C                    -0.335607
     86 H                     0.220885
     87 C                    -0.203321
     88 H                     0.226244
     89 B                     0.702758
     90 C                    -0.214573
     91 C                     0.059530
     92 C                    -0.355446
     93 H                     0.233677
     94 C                     0.300814
     95 C                    -0.362857
     96 H                     0.233455
     97 C                     0.057891
     98 N                    -0.673747
     99 C                     0.290320
    100 C                    -0.275664
    101 H                     0.244530
    102 C                    -0.215043
    103 H                     0.220336
    104 C                    -0.236791
    105 H                     0.217718
    106 C                    -0.213892
    107 H                     0.219054
    108 C                    -0.272810
    109 H                     0.239588
    110 C                     0.297828
    111 C                    -0.281526
    112 H                     0.245136
    113 C                    -0.213920
    114 H                     0.219684
    115 C                    -0.238420
    116 H                     0.216713
    117 C                    -0.212881
    118 H                     0.216361
    119 C                    -0.276321
    120 H                     0.241573
    121 C                    -0.767122
    122 H                     0.241339
    123 H                     0.246770
    124 H                     0.246276
    125 C                    -0.756454
    126 H                     0.238892
    127 H                     0.244090
    128 H                     0.241974
  ----------------------------------------
  Sum of atomic charges =    -0.000000

                    Cartesian Multipole Moments
 -----------------------------------------------------------------
    Charge (ESU x 10^10)
                -0.0000
    Dipole Moment (Debye)
         X       0.1016      Y      -0.7882      Z      -0.9471
       Tot       1.2363
    Quadrupole Moments (Debye-Ang)
        XX    -387.6971     XY      -9.0017     YY    -428.2482
        XZ      12.1758     YZ     -19.8933     ZZ    -401.7619

 Total job time:  40666.57s(wall), 160311.37s(cpu)
        *  Thank you very much for using Q-Chem.  Have a nice day.  *
