 Q-Chem 5.0, Q-Chem, Inc., Pleasanton, CA (2017)
 Q-Chem 5.0.1 for Intel X86 EM64T Linux

User input:
--------------------------------------------------------------
$rem
threads 8
jobtype	sp
method PBEh-3c
basis def2-mSVP
mem_static	1024
mem_total	14000
sym_ignore	true
cis_n_roots             6
cis_singlets            true
cis_triplets		true
rpa                     false
calc_soc 		true
cis_moments             true
cis_relaxed_density	true
$end

$molecule
read gsopt.mol
$end

--------------------------------------------------------------

             Standard Nuclear Orientation (Angstroms)
    I     Atom           X                Y                Z
 ----------------------------------------------------------------
    1      N       0.0000000000     0.0000000000     0.0000000000
    2      C       0.0000000000     0.0000000000     1.4036040000
    3      C       1.1990129017     0.0000000000     2.1152993472
    4      H       2.1393507246    -0.0034012527     1.5795706045
    5      C       1.1886759149     0.0026800938     3.5002971794
    6      H       2.1283485789     0.0033449197     4.0374197859
    7      C      -0.0093868130    -0.0152883864     4.1994866084
    8      H      -0.0124666557    -0.0225183601     5.2811700616
    9      C      -1.2033626897    -0.0236249956     3.4934404600
   10      H      -2.1471681308    -0.0300610063     4.0233983793
   11      C      -1.2034484576    -0.0056437720     2.1091462408
   12      H      -2.1418880322     0.0000977161     1.5696413933
   13      C      -0.9236195659    -0.7956319319    -0.6964438982
   14      C      -1.5854255237    -0.2961762060    -1.8171202680
   15      H      -1.3878745657     0.7151271982    -2.1476154520
   16      C      -2.4895070069    -1.0870005533    -2.5060524950
   17      H      -2.9929106877    -0.6837102366    -3.3752145395
   18      C      -2.7666440902    -2.3775618961    -2.0800714605
   19      H      -3.4799264684    -2.9901535863    -2.6150087252
   20      C      -2.1176703695    -2.8729876938    -0.9586960841
   21      H      -2.3183633353    -3.8804581117    -0.6175027832
   22      C      -1.1958241905    -2.0973061033    -0.2760193778
   23      H      -0.6859433212    -2.5010419618     0.5892748944
   24      C       0.8958243352     0.8222519366    -0.7090999436
   25      C       1.1459786789     2.1244161809    -0.2912182917
   26      H       0.6397243683     2.5108990824     0.5856729809
   27      C       2.0369135949     2.9336366038    -0.9834081622
   28      C       1.5431054291     0.3419850632    -1.8422642755
   29      H       1.3606505014    -0.6749761015    -2.1700797215
   30      C       2.4202353217     1.1463309936    -2.5552585630
   31      C       2.6839058106     2.4534576924    -2.1280842403
   32      C       3.1013784788     0.6041362899    -3.7803415853
   33      H       2.8422554484    -0.4392063214    -3.9573875710
   34      H       4.1885184917     0.6621651258    -3.6926949614
   35      H       2.8215179424     1.1675738745    -4.6731972731
   36      C       2.2900357671     4.3383533006    -0.5122226466
   37      H       1.7242925417     4.5690215547     0.3896807797
   38      H       3.3465304141     4.4992310104    -0.2874137956
   39      H       2.0094279486     5.0704398429    -1.2726033442
   40      B       3.6882679999     3.3593892788    -2.9274100555
   41      C       3.1821305419     4.2249733333    -4.1111296881
   42      C       1.8286136037     4.2093591992    -4.4520821974
   43      H       1.1371469887     3.5967632591    -3.8829762712
   44      C       1.3780342377     4.9715707099    -5.5121842907
   45      C       2.2774541577     5.7688745817    -6.2533514394
   46      C       3.6195652645     5.7916625562    -5.9193698259
   47      H       4.3139326677     6.4034524811    -6.4836159518
   48      C       4.0874941571     5.0236376764    -4.8487549173
   49      C       0.0388002295     5.1378337761    -6.0761059379
   50      C      -1.2066187878     4.6416111297    -5.7917796050
   51      H      -1.3759144244     3.9482588880    -4.9770135398
   52      C       0.1781673511     6.0373348872    -7.1483347436
   53      C      -0.8755001524     6.4630564214    -7.9498302102
   54      C       1.5141313554     6.4528795753    -7.3008686378
   55      C       1.8078344420     7.3371962473    -8.3046344745
   56      H       2.8152986086     7.6951709549    -8.4745815127
   57      C      -2.2979769530     5.0553092455    -6.5913722512
   58      H      -3.2815418520     4.6632677245    -6.3667759346
   59      C      -2.1520934795     5.9353878802    -7.6376777080
   60      H      -3.0169581001     6.2245070552    -8.2222828695
   61      C      -0.5439127299     7.3758934508    -8.9787908344
   62      H      -1.3155458233     7.7499340814    -9.6405757096
   63      C       0.7574599487     7.7897318702    -9.1385654363
   64      H       0.9915583907     8.4881879260    -9.9310496861
   65      C       5.1960077218     3.3837712476    -2.5507010691
   66      C       5.6503921740     2.6063091677    -1.4860951058
   67      H       4.9465553325     1.9944929817    -0.9316503497
   68      C       6.9892759900     2.6189028793    -1.1464329223
   69      C       7.9068717274     3.4126735861    -1.8677811789
   70      C       7.4632763008     4.1845509669    -2.9292636054
   71      H       8.1580361888     4.7964827835    -3.4940177017
   72      C       6.1098303571     4.1810207615    -3.2813906337
   73      C       7.7110485379     1.9112712539    -0.0947427913
   74      C       7.3620133395     1.0235751748     0.8881235814
   75      H       6.3407433460     0.6877170587     1.0208889993
   76      C       9.0556115328     2.3057026146    -0.2115006981
   77      C      10.0721404886     1.8496889793     0.6183904622
   78      C       9.2317014884     3.2164589188    -1.2710057576
   79      C      10.4920969996     3.6949629233    -1.5091278240
   80      H      10.6950927607     4.3974012795    -2.3075541584
   81      C       8.3761893627     0.5410583855     1.7473759685
   82      H       8.1056583092    -0.1608271811     2.5254574897
   83      C       9.6892346009     0.9326256298     1.6277872881
   84      H      10.4317536688     0.5362751949     2.3093564905
   85      C      11.3642590350     2.3608930500     0.3498012161
   86      H      12.2070675880     2.0521663645     0.9557256710
   87      C      11.5514415969     3.2519915928    -0.6808507100
   88      H      12.5463889053     3.6325494480    -0.8702709580
   89      B       5.5981158455     5.0469711025    -4.4682006828
   90      C       6.5708923100     5.9553700246    -5.3002385895
   91      C       7.1556351827     5.4724701630    -6.4751239943
   92      C       7.9411662832     6.3088025971    -7.2565733870
   93      H       8.3706556775     5.9318990456    -8.1772653552
   94      C       8.1775351783     7.6236270604    -6.8735601074
   95      C       7.6191452495     8.0961937852    -5.6903893107
   96      H       7.8073569956     9.1174643391    -5.3809857263
   97      C       6.8098454955     7.2791342160    -4.9137205479
   98      N       8.9635157415     8.4696765536    -7.6784137963
   99      C       8.5077720371     9.7585709963    -7.9910940512
  100      C       9.4120402361    10.8101623874    -8.1392477092
  101      H      10.4705973393    10.6289001468    -8.0055599551
  102      C       8.9596018289    12.0799519747    -8.4543853719
  103      H       9.6754456214    12.8838083082    -8.5667993387
  104      C       7.6036419386    12.3315520420    -8.6054709531
  105      H       7.2534089306    13.3273909204    -8.8411065271
  106      C       6.7024298047    11.2890114007    -8.4486435377
  107      H       5.6414019148    11.4668574461    -8.5687296151
  108      C       7.1454999775    10.0107373059    -8.1555671811
  109      H       6.4331793122     9.2028033528    -8.0501566085
  110      C      10.1102367341     7.9476228130    -8.3005764185
  111      C      10.3511168835     8.1624755786    -9.6559719866
  112      H       9.6510529608     8.7472849780   -10.2386497572
  113      C      11.4773880817     7.6248475817   -10.2572095658
  114      H      11.6489227592     7.7981622396   -11.3116692373
  115      C      12.3677714382     6.8525664117    -9.5261057474
  116      H      13.2408024335     6.4263696547   -10.0016565663
  117      C      12.1239120400     6.6301762291    -8.1782039618
  118      H      12.8111509258     6.0319946870    -7.5939966880
  119      C      11.0113107504     7.1793885756    -7.5649469947
  120      H      10.8296120383     7.0079087871    -6.5116399212
  121      C       6.1837611635     7.8077432224    -3.6532124500
  122      H       6.4493944679     8.8486349456    -3.4725271366
  123      H       6.4943670804     7.2310470239    -2.7792719311
  124      H       5.0932688267     7.7517655470    -3.6994346095
  125      C       6.8991610435     4.0552699885    -6.9091681794
  126      H       7.4622868814     3.7986080131    -7.8055748056
  127      H       7.1786215480     3.3419100978    -6.1307186427
  128      H       5.8413539047     3.8895946470    -7.1268559836
 ----------------------------------------------------------------

   14   -2927.8694755277      9.77E-09 Convergence criterion met
 Total energy in the final basis set = -2927.86947553

         TDDFT/TDA Excitation Energies
 ---------------------------------------------------

 Excited state   1: excitation energy (eV) =    2.3434
 Total energy for state  1:                 -2927.78335795 au
    Multiplicity: Triplet
    Trans. Mom.:  0.0000 X   0.0000 Y   0.0000 Z
    Strength   :     0.0000000000
    D(247) --> V(  2) amplitude =  0.2761
    D(251) --> V(  1) amplitude =  0.8457
    D(252) --> V(  1) amplitude = -0.3322

 Excited state   2: excitation energy (eV) =    2.4703
 Total energy for state  2:                 -2927.77869388 au
    Multiplicity: Triplet
    Trans. Mom.:  0.0000 X   0.0000 Y   0.0000 Z
    Strength   :     0.0000000000
    D(254) --> V(  1) amplitude =  0.9450

 Excited state   3: excitation energy (eV) =    2.4964
 Total energy for state  3:                 -2927.77773516 au
    Multiplicity: Singlet
    Trans. Mom.: -0.0523 X  -0.0440 Y   0.0303 Z
    Strength   :     0.0003413923
    D(254) --> V(  1) amplitude =  0.9567

 Excited state   4: excitation energy (eV) =    2.5047
 Total energy for state  4:                 -2927.77742931 au
    Multiplicity: Triplet
    Trans. Mom.:  0.0000 X   0.0000 Y   0.0000 Z
    Strength   :     0.0000000000
    D(250) --> V(  2) amplitude =  0.5050
    D(251) --> V(  1) amplitude =  0.2893
    D(252) --> V(  1) amplitude =  0.7160
    D(252) --> V(  4) amplitude = -0.2132

 Excited state   5: excitation energy (eV) =    2.5261
 Total energy for state  5:                 -2927.77664296 au
    Multiplicity: Triplet
    Trans. Mom.:  0.0000 X   0.0000 Y   0.0000 Z
    Strength   :     0.0000000000
    D(253) --> V(  1) amplitude =  0.9471

 Excited state   6: excitation energy (eV) =    2.5377
 Total energy for state  6:                 -2927.77621788 au
    Multiplicity: Singlet
    Trans. Mom.: -0.0848 X  -0.0598 Y   0.0515 Z
    Strength   :     0.0008347164
    D(253) --> V(  1) amplitude =  0.9632

 Excited state   7: excitation energy (eV) =    2.5543
 Total energy for state  7:                 -2927.77560845 au
    Multiplicity: Triplet
    Trans. Mom.:  0.0000 X   0.0000 Y   0.0000 Z
    Strength   :     0.0000000000
    D(250) --> V(  1) amplitude =  0.7096
    D(250) --> V(  4) amplitude = -0.2508
    D(252) --> V(  2) amplitude =  0.5424

 Excited state   8: excitation energy (eV) =    2.7673
 Total energy for state  8:                 -2927.76777870 au
    Multiplicity: Triplet
    Trans. Mom.:  0.0000 X   0.0000 Y   0.0000 Z
    Strength   :     0.0000000000
    D(247) --> V(  1) amplitude =  0.7011
    D(251) --> V(  2) amplitude =  0.5470

 Excited state   9: excitation energy (eV) =    3.0246
 Total energy for state  9:                 -2927.75832429 au
    Multiplicity: Singlet
    Trans. Mom.:  0.0417 X  -0.0215 Y   0.0298 Z
    Strength   :     0.0002287425
    D(251) --> V(  1) amplitude =  0.9031
    D(252) --> V(  1) amplitude = -0.3349

 Excited state  10: excitation energy (eV) =    3.3234
 Total energy for state 10:                 -2927.74734433 au
    Multiplicity: Singlet
    Trans. Mom.: -2.5251 X   1.0709 Y  -1.9797 Z
    Strength   :     0.9316027188
    D(251) --> V(  1) amplitude =  0.3281
    D(252) --> V(  1) amplitude =  0.8851

 Excited state  11: excitation energy (eV) =    3.6129
 Total energy for state 11:                 -2927.73670213 au
    Multiplicity: Singlet
    Trans. Mom.:  0.0244 X  -0.0077 Y  -0.0098 Z
    Strength   :     0.0000664681
    D(254) --> V(  2) amplitude =  0.9828

 Excited state  12: excitation energy (eV) =    3.6369
 Total energy for state 12:                 -2927.73582350 au
    Multiplicity: Singlet
    Trans. Mom.:  0.0173 X  -0.0021 Y   0.0066 Z
    Strength   :     0.0000308606
    D(253) --> V(  2) amplitude =  0.9838

 ---------------------------------------------------

                    Orbital Energies (a.u.)
 --------------------------------------------------------------

 Alpha MOs
 -- Occupied --
-14.667 -14.667 -10.488 -10.488 -10.488 -10.488 -10.482 -10.482
-10.465 -10.465 -10.465 -10.465 -10.465 -10.465 -10.464 -10.463
-10.463 -10.463 -10.463 -10.462 -10.462 -10.462 -10.462 -10.462
-10.461 -10.460 -10.460 -10.460 -10.460 -10.460 -10.455 -10.454
-10.453 -10.452 -10.452 -10.452 -10.452 -10.451 -10.447 -10.447
-10.447 -10.447 -10.447 -10.447 -10.446 -10.446 -10.446 -10.445
-10.443 -10.443 -10.443 -10.443 -10.443 -10.443 -10.442 -10.442
-10.441 -10.441 -10.441 -10.440 -10.434 -10.434 -10.434 -10.434
-10.433 -10.433 -10.433 -10.432 -10.427 -10.427 -10.427 -10.426
-10.419 -10.418  -6.949  -6.947  -1.078  -1.078  -1.017  -1.016
 -0.964  -0.960  -0.959  -0.959  -0.958  -0.958  -0.938  -0.938
 -0.934  -0.934  -0.909  -0.901  -0.872  -0.871  -0.862  -0.858
 -0.854  -0.852  -0.849  -0.849  -0.848  -0.847  -0.837  -0.837
 -0.836  -0.835  -0.822  -0.815  -0.813  -0.805  -0.799  -0.798
 -0.768  -0.767  -0.763  -0.762  -0.735  -0.730  -0.727  -0.721
 -0.708  -0.706  -0.702  -0.702  -0.690  -0.681  -0.680  -0.680
 -0.680  -0.674  -0.667  -0.666  -0.650  -0.648  -0.643  -0.643
 -0.638  -0.637  -0.605  -0.605  -0.596  -0.594  -0.593  -0.590
 -0.586  -0.586  -0.585  -0.576  -0.575  -0.561  -0.560  -0.550
 -0.550  -0.544  -0.544  -0.540  -0.540  -0.537  -0.529  -0.525
 -0.520  -0.520  -0.516  -0.510  -0.508  -0.508  -0.503  -0.498
 -0.498  -0.497  -0.496  -0.494  -0.494  -0.490  -0.486  -0.485
 -0.484  -0.483  -0.482  -0.482  -0.481  -0.480  -0.480  -0.476
 -0.473  -0.471  -0.470  -0.469  -0.465  -0.465  -0.462  -0.459
 -0.458  -0.455  -0.445  -0.442  -0.440  -0.439  -0.439  -0.437
 -0.431  -0.426  -0.425  -0.424  -0.423  -0.423  -0.421  -0.421
 -0.418  -0.411  -0.411  -0.410  -0.405  -0.404  -0.400  -0.399
 -0.399  -0.396  -0.396  -0.395  -0.395  -0.394  -0.392  -0.391
 -0.385  -0.384  -0.380  -0.368  -0.358  -0.356  -0.352  -0.352
 -0.343  -0.341  -0.319  -0.313  -0.302  -0.301  -0.298  -0.297
 -0.296  -0.295  -0.293  -0.292  -0.284  -0.282  -0.280  -0.274
 -0.274  -0.262  -0.257  -0.256  -0.219  -0.218

          Ground-State Mulliken Net Atomic Charges

     Atom                 Charge (a.u.)
  ----------------------------------------
      1 N                    -0.675067
      2 C                     0.292429
      3 C                    -0.272435
      4 H                     0.238318
      5 C                    -0.213383
      6 H                     0.217756
      7 C                    -0.237697
      8 H                     0.217445
      9 C                    -0.213732
     10 H                     0.220229
     11 C                    -0.278811
     12 H                     0.245688
     13 C                     0.291437
     14 C                    -0.273500
     15 H                     0.239138
     16 C                    -0.213211
     17 H                     0.217795
     18 C                    -0.237640
     19 H                     0.217429
     20 C                    -0.213836
     21 H                     0.220141
     22 C                    -0.277150
     23 H                     0.245135
     24 C                     0.306898
     25 C                    -0.361691
     26 H                     0.233607
     27 C                     0.061673
     28 C                    -0.361518
     29 H                     0.233823
     30 C                     0.060743
     31 C                    -0.225460
     32 C                    -0.761044
     33 H                     0.239547
     34 H                     0.244688
     35 H                     0.244776
     36 C                    -0.759586
     37 H                     0.239250
     38 H                     0.244486
     39 H                     0.243369
     40 B                     0.705001
     41 C                    -0.155340
     42 C                    -0.384973
     43 H                     0.231599
     44 C                     0.090149
     45 C                     0.107974
     46 C                    -0.387932
     47 H                     0.232365
     48 C                    -0.153633
     49 C                     0.198792
     50 C                    -0.379099
     51 H                     0.217379
     52 C                    -0.063134
     53 C                     0.252110
     54 C                     0.198115
     55 C                    -0.383071
     56 H                     0.217190
     57 C                    -0.204335
     58 H                     0.226597
     59 C                    -0.333385
     60 H                     0.220616
     61 C                    -0.335785
     62 H                     0.220796
     63 C                    -0.203465
     64 H                     0.226667
     65 C                    -0.153968
     66 C                    -0.383241
     67 H                     0.232263
     68 C                     0.089725
     69 C                     0.111060
     70 C                    -0.395005
     71 H                     0.229606
     72 C                    -0.154726
     73 C                     0.196127
     74 C                    -0.375946
     75 H                     0.217792
     76 C                    -0.062650
     77 C                     0.253796
     78 C                     0.196816
     79 C                    -0.384847
     80 H                     0.218531
     81 C                    -0.205575
     82 H                     0.226656
     83 C                    -0.333152
     84 H                     0.220576
     85 C                    -0.337261
     86 H                     0.220836
     87 C                    -0.202713
     88 H                     0.226561
     89 B                     0.706901
     90 C                    -0.220437
     91 C                     0.060373
     92 C                    -0.359654
     93 H                     0.233998
     94 C                     0.296802
     95 C                    -0.355043
     96 H                     0.233277
     97 C                     0.059090
     98 N                    -0.671974
     99 C                     0.303215
    100 C                    -0.280397
    101 H                     0.244851
    102 C                    -0.213401
    103 H                     0.219442
    104 C                    -0.239471
    105 H                     0.216513
    106 C                    -0.212109
    107 H                     0.217028
    108 C                    -0.282429
    109 H                     0.240476
    110 C                     0.284430
    111 C                    -0.276446
    112 H                     0.244958
    113 C                    -0.215350
    114 H                     0.220456
    115 C                    -0.236445
    116 H                     0.217882
    117 C                    -0.213994
    118 H                     0.218734
    119 C                    -0.268449
    120 H                     0.239700
    121 C                    -0.761845
    122 H                     0.239561
    123 H                     0.244683
    124 H                     0.244953
    125 C                    -0.761587
    126 H                     0.239903
    127 H                     0.244197
    128 H                     0.245108
  ----------------------------------------
  Sum of atomic charges =    -0.000000

                    Cartesian Multipole Moments
 -----------------------------------------------------------------
    Charge (ESU x 10^10)
                -0.0000
    Dipole Moment (Debye)
         X      -0.0549      Y      -0.2701      Z       0.0238
       Tot       0.2766
    Quadrupole Moments (Debye-Ang)
        XX    -387.4602     XY      -6.5414     YY    -426.1083
        XZ      17.4998     YZ     -19.8772     ZZ    -405.2168

 Total job time:  18147.54s(wall), 69189.57s(cpu)
        *  Thank you very much for using Q-Chem.  Have a nice day.  *
