 Q-Chem 5.0, Q-Chem, Inc., Pleasanton, CA (2017)
 Q-Chem 5.0.1 for Intel X86 EM64T Linux

User input:
--------------------------------------------------------------
$rem
threads 8
jobtype	opt
method PBEh-3c
basis def2-mSVP
mem_static	512
mem_total	6096
sym_ignore	true
$end

$molecule
read incoords.mol
$end

--------------------------------------------------------------

   15   -2927.8141336423      5.85E-09 Convergence criterion met
 Total energy in the final basis set = -2927.81413364
   12   -2927.8502085258      8.69E-09 Convergence criterion met
 Total energy in the final basis set = -2927.85020853
   13   -2927.8620450369      4.52E-09 Convergence criterion met
 Total energy in the final basis set = -2927.86204504
   12   -2927.8656280692      9.30E-09 Convergence criterion met
 Total energy in the final basis set = -2927.86562807
   13   -2927.8671144305      5.09E-09 Convergence criterion met
 Total energy in the final basis set = -2927.86711443
   13   -2927.8674677658      6.20E-09 Convergence criterion met
 Total energy in the final basis set = -2927.86746777
   12   -2927.8674871451      7.32E-09 Convergence criterion met
 Total energy in the final basis set = -2927.86748715
   11   -2927.8674937940      8.87E-09 Convergence criterion met
   10   -2927.8699170368      6.46E-09 Convergence criterion met
 Total energy in the final basis set = -2927.86991704
   10   -2927.8699004511      6.35E-09 Convergence criterion met
 Total energy in the final basis set = -2927.86990045
   11   -2927.8698625733      5.77E-09 Convergence criterion met
 Total energy in the final basis set = -2927.86986257
   10   -2927.8698773706      4.46E-09 Convergence criterion met
 Total energy in the final basis set = -2927.86987737
   10   -2927.8698793049      4.60E-09 Convergence criterion met
 Total energy in the final basis set = -2927.86987930
    8   -2927.8698749659      6.55E-09 Convergence criterion met
 Total energy in the final basis set = -2927.86987497

             Standard Nuclear Orientation (Angstroms)
    I     Atom           X                Y                Z
 ----------------------------------------------------------------
    1      C      -4.8807147160    -0.3362037883     4.4782297387
    2      C      -5.4960592844    -0.8595179539     3.3492179712
    3      C      -4.7794885567    -0.9862925886     2.1550965795
    4      C      -3.4484837444    -0.5559468417     2.1095132390
    5      C      -2.8540476236    -0.0097848203     3.2382817313
    6      C      -3.5587229237     0.0900223158     4.4334735131
    7      N      -2.9373906616     0.6064411778     5.5861284800
    8      C      -6.9239686059    -1.3276648746     3.4166296145
    9      C      -2.6695058866    -0.6901623737     0.8306585337
   10      C      -1.6666096683     0.1465720389     5.9607703975
   11      C      -0.7584419065     1.0068581847     6.5777248304
   12      C      -4.4198618057     2.4956994344     5.9088744341
   13      C      -3.6733383358     1.4451677704     6.4402444530
   14      C      -5.1772828172     3.3037973331     6.7388693223
   15      C      -5.1883898426     3.0922787388     8.1103282058
   16      C      -4.4384255020     2.0535497593     8.6416564273
   17      C      -3.6926333196     1.2278965498     7.8163637263
   18      C      -1.2891337164    -1.1748399865     5.7203400760
   19      C      -0.0272844216    -1.6168085677     6.0789345981
   20      C       0.8710409554    -0.7628306612     6.7013501293
   21      C       0.4928317608     0.5481765771     6.9522969381
   22      C      -6.7376100034    -1.5007210445    -1.3038786513
   23      C      -6.1675936852    -0.8419742985    -0.1877607573
   24      B      -5.4368124692    -1.6727152556     0.9058888887
   25      C      -5.3454801672    -3.2220208469     0.7693101184
   26      C      -5.9168061477    -3.8705638195    -0.3507863013
   27      B      -6.6470579732    -3.0460842330    -1.4432917889
   28      C      -4.6984408024    -3.9781144621     1.7515014231
   29      C      -4.6186997580    -5.3533255576     1.6259585782
   30      C      -5.1888331375    -5.9950120125     0.5047250517
   31      C      -5.8297700643    -5.2584311909    -0.4722356408
   32      C      -7.3932829296    -0.7599203023    -2.2865310320
   33      C      -7.4818200648     0.6135856763    -2.1691323152
   34      C      -6.9142490449     1.2788221560    -1.0611071856
   35      C      -6.2648167535     0.5488943696    -0.0788856651
   36      C      -3.3323066627    -6.3951542117     3.6625540940
   37      C      -2.8936601532    -7.6371499195     4.1807759092
   38      C      -3.1286700126    -8.8303229390     3.5393171588
   39      C      -3.8335455728    -8.8480495130     2.3126067339
   40      C      -4.2510868586    -7.6123371967     1.8303988628
   41      C      -4.0172379297    -6.3841154045     2.4765649066
   42      C      -4.1603446306    -9.9731769271     1.5170865522
   43      C      -4.8514992908    -9.8086379345     0.3398829758
   44      C      -5.2617887900    -8.5374504814    -0.1262729734
   45      C      -4.9581739093    -7.4340626973     0.6277161041
   46      C      -7.3074545240     5.0947412484    -1.0203234570
   47      C      -6.8763382707     3.8456694481    -0.5119566018
   48      C      -7.1677727507     2.7136734987    -1.2246384399
   49      C      -7.8836576012     2.8525053698    -2.4293256582
   50      C      -8.3224882764     4.0611286993    -2.9553073469
   51      C      -8.0070956265     5.2145638126    -2.1982379260
   52      C      -8.1011527681     1.6053730678    -3.0412195124
   53      C      -8.7862612193     1.5571768760    -4.2261924603
   54      C      -9.2464586459     2.7719504330    -4.7849715402
   55      C      -9.0286275023     3.9883411242    -4.1811025515
   56      C      -9.2050242564    -4.8699807048    -3.6825336848
   57      C      -8.6212272741    -4.2393655467    -2.5934071196
   58      C      -7.3032774847    -3.7730605556    -2.6718110280
   59      C      -6.5868470995    -3.9686665864    -3.8583689256
   60      C      -7.1769827044    -4.6195356144    -4.9334681997
   61      C      -8.4901992261    -5.0697259333    -4.8584657056
   62      N      -9.0900472355    -5.7202472866    -5.9531921546
   63      C      -9.4144846275    -4.0422554206    -1.3321973981
   64      C      -5.1652559544    -3.4918893194    -3.9636243533
   65      C      -8.8798108693    -5.2480497748    -7.2581569702
   66      C      -8.9091367137    -3.8815808989    -7.5339193859
   67      C     -11.0557972049    -7.0570920552    -6.4567341188
   68      C      -9.8711253849    -6.8682237464    -5.7453331214
   69      C     -11.8154187722    -8.1976286191    -6.2575343539
   70      C     -11.4232049000    -9.1565658370    -5.3351980564
   71      C     -10.2508398749    -8.9655665540    -4.6190317404
   72      C      -9.4733938729    -7.8387573471    -4.8270558222
   73      C      -8.6432468206    -6.1422268434    -8.3024734702
   74      C      -8.4535735639    -5.6774731049    -9.5926754262
   75      C      -8.4749863536    -4.3171621610    -9.8633152765
   76      C      -8.6978828694    -3.4252057561    -8.8244339642
   77      H      -5.4375018132    -0.2637864874     5.4050167515
   78      H      -1.8259509727     0.3296230299     3.1939365155
   79      H      -6.9993825156    -2.4046858205     3.2489056232
   80      H      -7.5397117169    -0.8438904745     2.6551921096
   81      H      -7.3741669984    -1.1145862214     4.3853658992
   82      H      -2.6077868838    -1.7339487672     0.5126268323
   83      H      -1.6501932661    -0.3201609789     0.9344158878
   84      H      -3.1402460868    -0.1371714815     0.0149183982
   85      H      -1.0364562425     2.0364836849     6.7617093240
   86      H      -4.4099228919     2.6694520641     4.8404238206
   87      H      -5.7552199257     4.1121133564     6.3098814872
   88      H      -5.7772002840     3.7285485814     8.7571967151
   89      H      -4.4455826192     1.8699604558     9.7082351031
   90      H      -3.1261471389     0.4072748875     8.2374090928
   91      H      -1.9861439652    -1.8551455895     5.2485034866
   92      H       0.2496919911    -2.6443762157     5.8808977476
   93      H       1.8535617216    -1.1143624203     6.9858850463
   94      H       1.1843889743     1.2292049451     7.4310493696
   95      H      -4.2607732569    -3.4802619243     2.6090542968
   96      H      -6.2678302433    -5.7519682788    -1.3335174153
   97      H      -7.8313708410    -1.2699727153    -3.1380238810
   98      H      -5.8271304382     1.0469530314     0.7792911760
   99      H      -3.1203707609    -5.4848645645     4.2088764267
  100      H      -2.3528772440    -7.6437657058     5.1178908943
  101      H      -2.7729362146    -9.7568840740     3.9731617539
  102      H      -3.8658910639   -10.9662654765     1.8339725078
  103      H      -5.0914192863   -10.6800258534    -0.2556512777
  104      H      -5.8015676800    -8.4621337822    -1.0623330387
  105      H      -7.0748353658     5.9880054056    -0.4558844722
  106      H      -6.3290078853     3.8080465976     0.4213848674
  107      H      -8.3151137926     6.1929704232    -2.5455521126
  108      H      -8.9804783072     0.6226664825    -4.7384323092
  109      H      -9.7886369604     2.7392790544    -5.7210356283
  110      H      -9.4000100769     4.8929158033    -4.6467037738
  111      H     -10.2322987862    -5.2099249803    -3.6184465113
  112      H      -6.6086450023    -4.7782974624    -5.8425263539
  113      H     -10.4363971065    -4.4050530411    -1.4376813889
  114      H      -9.4676042735    -2.9875667127    -1.0533909639
  115      H      -8.9630857251    -4.5734679116    -0.4913481458
  116      H      -4.7394683688    -3.7070656394    -4.9429649786
  117      H      -4.5282832293    -3.9695923909    -3.2160046006
  118      H      -5.0933388939    -2.4139808305    -3.8038018589
  119      H      -9.0993219680    -3.1781101909    -6.7337872034
  120      H     -11.3805418367    -6.3098052697    -7.1693482912
  121      H     -12.7310981084    -8.3291069575    -6.8196131895
  122      H     -12.0241550534   -10.0420290835    -5.1770444289
  123      H      -9.9278463949    -9.7080917785    -3.9008163934
  124      H      -8.5519913879    -7.7064141913    -4.2752488700
  125      H      -8.6120303001    -7.2055066218    -8.1019045692
  126      H      -8.2735217612    -6.3867071065   -10.3903184443
  127      H      -8.3197203270    -3.9565726892   -10.8712682665
  128      H      -8.7233037439    -2.3612014030    -9.0212449814
 ----------------------------------------------------------------

    8   -2927.8698752537      5.61E-09 Convergence criterion met
 Total energy in the final basis set = -2927.86987525
 Final energy is   -2927.86987525365
 **  OPTIMIZATION CONVERGED  **

                    Orbital Energies (a.u.)
 --------------------------------------------------------------

 Alpha MOs
 -- Occupied --
-14.667 -14.667 -10.488 -10.488 -10.488 -10.488 -10.482 -10.482
-10.465 -10.465 -10.465 -10.465 -10.465 -10.465 -10.464 -10.463
-10.463 -10.463 -10.463 -10.462 -10.462 -10.462 -10.462 -10.462
-10.461 -10.460 -10.460 -10.460 -10.460 -10.460 -10.455 -10.454
-10.453 -10.452 -10.452 -10.452 -10.452 -10.451 -10.447 -10.447
-10.447 -10.447 -10.447 -10.447 -10.446 -10.446 -10.446 -10.445
-10.443 -10.443 -10.443 -10.443 -10.443 -10.443 -10.442 -10.442
-10.441 -10.441 -10.441 -10.440 -10.434 -10.434 -10.434 -10.434
-10.433 -10.433 -10.433 -10.432 -10.427 -10.427 -10.427 -10.426
-10.419 -10.418  -6.949  -6.947  -1.078  -1.078  -1.017  -1.016
 -0.964  -0.960  -0.959  -0.959  -0.958  -0.958  -0.938  -0.938
 -0.934  -0.934  -0.909  -0.901  -0.872  -0.871  -0.862  -0.858
 -0.854  -0.852  -0.849  -0.849  -0.848  -0.847  -0.837  -0.837
 -0.836  -0.835  -0.822  -0.815  -0.813  -0.805  -0.799  -0.798
 -0.768  -0.767  -0.763  -0.762  -0.735  -0.730  -0.727  -0.721
 -0.708  -0.706  -0.702  -0.702  -0.690  -0.681  -0.680  -0.680
 -0.680  -0.674  -0.667  -0.666  -0.650  -0.648  -0.643  -0.643
 -0.638  -0.637  -0.605  -0.605  -0.596  -0.594  -0.593  -0.590
 -0.586  -0.586  -0.585  -0.576  -0.575  -0.561  -0.560  -0.550
 -0.550  -0.544  -0.544  -0.540  -0.540  -0.537  -0.529  -0.525
 -0.520  -0.520  -0.516  -0.510  -0.508  -0.508  -0.503  -0.498
 -0.498  -0.497  -0.496  -0.494  -0.494  -0.490  -0.486  -0.485
 -0.484  -0.483  -0.482  -0.482  -0.481  -0.480  -0.480  -0.476
 -0.473  -0.471  -0.470  -0.469  -0.466  -0.465  -0.462  -0.459
 -0.458  -0.455  -0.445  -0.442  -0.440  -0.439  -0.439  -0.437
 -0.431  -0.426  -0.425  -0.424  -0.423  -0.423  -0.421  -0.421
 -0.418  -0.411  -0.411  -0.410  -0.405  -0.404  -0.400  -0.399
 -0.399  -0.396  -0.396  -0.395  -0.395  -0.394  -0.392  -0.391
 -0.385  -0.384  -0.380  -0.368  -0.358  -0.356  -0.352  -0.352
 -0.343  -0.341  -0.319  -0.313  -0.302  -0.301  -0.298  -0.297
 -0.296  -0.295  -0.293  -0.292  -0.284  -0.282  -0.280  -0.274
 -0.274  -0.262  -0.257  -0.256  -0.219  -0.218

          Ground-State Mulliken Net Atomic Charges

     Atom                 Charge (a.u.)
  ----------------------------------------
      1 C                    -0.359342
      2 C                     0.059734
      3 C                    -0.219931
      4 C                     0.059575
      5 C                    -0.355040
      6 C                     0.296167
      7 N                    -0.671485
      8 C                    -0.761389
      9 C                    -0.761973
     10 C                     0.303083
     11 C                    -0.280367
     12 C                    -0.268211
     13 C                     0.283886
     14 C                    -0.213905
     15 C                    -0.236468
     16 C                    -0.215397
     17 C                    -0.276434
     18 C                    -0.282171
     19 C                    -0.212194
     20 C                    -0.239397
     21 C                    -0.213520
     22 C                    -0.153674
     23 C                    -0.154287
     24 B                     0.705974
     25 C                    -0.153300
     26 C                    -0.154808
     27 B                     0.704356
     28 C                    -0.388120
     29 C                     0.107738
     30 C                     0.090360
     31 C                    -0.385166
     32 C                    -0.383358
     33 C                     0.089515
     34 C                     0.111329
     35 C                    -0.395223
     36 C                    -0.383102
     37 C                    -0.203488
     38 C                    -0.335676
     39 C                     0.252259
     40 C                    -0.063505
     41 C                     0.198310
     42 C                    -0.333440
     43 C                    -0.204371
     44 C                    -0.379007
     45 C                     0.198707
     46 C                    -0.202756
     47 C                    -0.384714
     48 C                     0.196728
     49 C                    -0.062772
     50 C                     0.253872
     51 C                    -0.337371
     52 C                     0.196257
     53 C                    -0.376102
     54 C                    -0.205555
     55 C                    -0.333045
     56 C                    -0.361518
     57 C                     0.061003
     58 C                    -0.225167
     59 C                     0.060875
     60 C                    -0.361536
     61 C                     0.306949
     62 N                    -0.675087
     63 C                    -0.761255
     64 C                    -0.759296
     65 C                     0.292863
     66 C                    -0.272770
     67 C                    -0.277303
     68 C                     0.291636
     69 C                    -0.213865
     70 C                    -0.237624
     71 C                    -0.213311
     72 C                    -0.273557
     73 C                    -0.278970
     74 C                    -0.213645
     75 C                    -0.237744
     76 C                    -0.213321
     77 H                     0.234048
     78 H                     0.233259
     79 H                     0.245142
     80 H                     0.244200
     81 H                     0.239879
     82 H                     0.244983
     83 H                     0.239577
     84 H                     0.244691
     85 H                     0.244867
     86 H                     0.239701
     87 H                     0.218750
     88 H                     0.217882
     89 H                     0.220448
     90 H                     0.244944
     91 H                     0.240436
     92 H                     0.217045
     93 H                     0.216516
     94 H                     0.219402
     95 H                     0.232357
     96 H                     0.231667
     97 H                     0.232233
     98 H                     0.229681
     99 H                     0.217200
    100 H                     0.226674
    101 H                     0.220811
    102 H                     0.220656
    103 H                     0.226606
    104 H                     0.217391
    105 H                     0.226568
    106 H                     0.218545
    107 H                     0.220884
    108 H                     0.217789
    109 H                     0.226648
    110 H                     0.220579
    111 H                     0.233902
    112 H                     0.233570
    113 H                     0.239565
    114 H                     0.244740
    115 H                     0.244800
    116 H                     0.239200
    117 H                     0.243361
    118 H                     0.244506
    119 H                     0.238381
    120 H                     0.245151
    121 H                     0.220146
    122 H                     0.217455
    123 H                     0.217818
    124 H                     0.239143
    125 H                     0.245629
    126 H                     0.220203
    127 H                     0.217494
    128 H                     0.217734
  ----------------------------------------
  Sum of atomic charges =    -0.000000

                    Cartesian Multipole Moments
 -----------------------------------------------------------------
    Charge (ESU x 10^10)
                -0.0000
    Dipole Moment (Debye)
         X      -0.2562      Y      -0.0590      Z      -0.0886
       Tot       0.2774
    Quadrupole Moments (Debye-Ang)
        XX    -425.4771     XY     -12.0033     YY    -379.3256
        XZ      16.3724     YZ      -8.7431     ZZ    -407.6098

 Total job time:  49828.26s(wall), 250268.10s(cpu)
        *  Thank you very much for using Q-Chem.  Have a nice day.  *
