 Q-Chem 5.0, Q-Chem, Inc., Pleasanton, CA (2017)
 Q-Chem 5.0.1 for Intel X86 EM64T Linux

User input:
--------------------------------------------------------------
$rem
threads 8
jobtype	opt
method PBEh-3c
basis def2-mSVP
mem_static	1024
mem_total	14000
sym_ignore	true
cis_n_roots             2
cis_singlets            true
cis_triplets		false
rpa                     false
cis_state_deriv         1
$end

$molecule
read s1preopt.mol
$end

--------------------------------------------------------------

   15   -2927.8601206527      7.06E-09 Convergence criterion met
 Total energy in the final basis set = -2927.86012065
   11   -2927.8607151533      9.11E-09 Convergence criterion met
 Total energy in the final basis set = -2927.86071515
   12   -2927.8608816117      6.54E-09 Convergence criterion met
 Total energy in the final basis set = -2927.86088161
   11   -2927.8611316266      6.63E-09 Convergence criterion met
 Total energy in the final basis set = -2927.86113163
   11   -2927.8614459983      6.15E-09 Convergence criterion met
 Total energy in the final basis set = -2927.86144600
   11   -2927.8617907669      5.69E-09 Convergence criterion met
 Total energy in the final basis set = -2927.86179077
   11   -2927.8620654020      6.17E-09 Convergence criterion met
 Total energy in the final basis set = -2927.86206540
   11   -2927.8622902076      6.84E-09 Convergence criterion met
 Total energy in the final basis set = -2927.86229021
   11   -2927.8624418438      5.42E-09 Convergence criterion met
 Total energy in the final basis set = -2927.86244184
   11   -2927.8624038631      7.30E-09 Convergence criterion met
 Total energy in the final basis set = -2927.86240386
   10   -2927.8624538415      8.87E-09 Convergence criterion met
 Total energy in the final basis set = -2927.86245384
   10   -2927.8624226626      5.68E-09 Convergence criterion met
 Total energy in the final basis set = -2927.86242266

             Standard Nuclear Orientation (Angstroms)
    I     Atom           X                Y                Z
 ----------------------------------------------------------------
    1      C      -4.8427658198    -0.3782793259     4.5009351417
    2      C      -5.4469729072    -0.9474609185     3.3871816571
    3      C      -4.7430987610    -1.0662312954     2.1828864353
    4      C      -3.4311591019    -0.5800138502     2.1200676903
    5      C      -2.8471590350     0.0122209449     3.2325876150
    6      C      -3.5439677298     0.1059430776     4.4301115227
    7      N      -2.9344214848     0.6820306090     5.5680244370
    8      C      -6.8563328644    -1.4633712349     3.4826721925
    9      C      -2.6568765528    -0.6975314373     0.8368977483
   10      C      -1.6773540699     0.2238179919     5.9795508948
   11      C      -0.7550942412     1.0936215892     6.5634812150
   12      C      -4.4530471420     2.5628353090     5.6894502622
   13      C      -3.6613157106     1.6077050646     6.3285236060
   14      C      -5.2125463239     3.4514576967     6.4298238797
   15      C      -5.1853962174     3.4210687175     7.8168230141
   16      C      -4.3919132645     2.4792709737     8.4546765226
   17      C      -3.6427592861     1.5727794153     7.7228014317
   18      C      -1.3175789939    -1.1120771737     5.7933848860
   19      C      -0.0651893770    -1.5593131788     6.1765585784
   20      C       0.8451309101    -0.6961688758     6.7685270674
   21      C       0.4869789209     0.6301245136     6.9620424418
   22      C      -6.7462602471    -1.6511568160    -1.2539483655
   23      C      -6.1672931505    -0.9787666357    -0.1325171817
   24      B      -5.4000861131    -1.7784496169     0.9346351102
   25      C      -5.2706936180    -3.3054154729     0.7837922623
   26      C      -5.8501022815    -3.9754383053    -0.3376947527
   27      B      -6.6019230647    -3.1636328635    -1.3830772859
   28      C      -4.5838615039    -4.0623805370     1.7498493450
   29      C      -4.4666896513    -5.4277783403     1.6267601540
   30      C      -5.0459559102    -6.0914920458     0.5062006778
   31      C      -5.7193836581    -5.3745301138    -0.4490756273
   32      C      -7.4481412448    -0.9008039759    -2.2171708433
   33      C      -7.5801951184     0.4576083875    -2.0873686498
   34      C      -7.0030520008     1.1349676416    -0.9745574490
   35      C      -6.3137851341     0.4162860403    -0.0225762763
   36      C      -3.1192379486    -6.4360357960     3.6383448223
   37      C      -2.6420289682    -7.6651682590     4.1479270860
   38      C      -2.8565030643    -8.8667676129     3.5135698203
   39      C      -3.5818927771    -8.9035181526     2.2989179846
   40      C      -4.0394465655    -7.6783090905     1.8206875614
   41      C      -3.8262238259    -6.4403802884     2.4617267585
   42      C      -3.8939835323   -10.0394951704     1.5132023172
   43      C      -4.6109751353    -9.8956527062     0.3479484949
   44      C      -5.0619299456    -8.6392024033    -0.1144941191
   45      C      -4.7743002193    -7.5211672142     0.6289912162
   46      C      -7.5309215988     4.9298754664    -0.8744152588
   47      C      -7.0422926720     3.6930491291    -0.3945189224
   48      C      -7.3092421115     2.5564507248    -1.1155436796
   49      C      -8.0614335734     2.6872652333    -2.3022261436
   50      C      -8.5578893561     3.8886455628    -2.7979497643
   51      C      -8.2651694466     5.0429608584    -2.0326351582
   52      C      -8.2532279408     1.4393715099    -2.9270636706
   53      C      -8.9730918870     1.3895187685    -4.0945756893
   54      C      -9.4889426008     2.5944172180    -4.6198366443
   55      C      -9.2957289132     3.8100275762    -4.0043797643
   56      C      -9.1984406567    -4.9351097158    -3.6438333407
   57      C      -8.6071313961    -4.3512276476    -2.5519842428
   58      C      -7.2617670208    -3.8968145790    -2.6190143708
   59      C      -6.5322284436    -4.0921463277    -3.8223887019
   60      C      -7.1331416431    -4.6691823442    -4.9126562730
   61      C      -8.4790508848    -5.0886801364    -4.8482657397
   62      N      -9.0833809626    -5.6301994939    -5.9498890360
   63      C      -9.3845287830    -4.1536355415    -1.2895864539
   64      C      -5.0988997395    -3.6692082937    -3.8868199539
   65      C      -8.6604855376    -5.2931362637    -7.2532483466
   66      C      -8.4473503015    -3.9592597839    -7.5955421294
   67      C     -11.2842457268    -6.3755336290    -6.6378008819
   68      C     -10.1604021853    -6.5330273003    -5.8291447176
   69      C     -12.3277709905    -7.2770116704    -6.5386381202
   70      C     -12.2572474235    -8.3347942026    -5.6418742266
   71      C     -11.1343160006    -8.4908371951    -4.8418684158
   72      C     -10.0815990556    -7.5975946325    -4.9337005453
   73      C      -8.4961106159    -6.2987492096    -8.2034795417
   74      C      -8.1029686700    -5.9668576476    -9.4866464075
   75      C      -7.8772913618    -4.6401890636    -9.8294098875
   76      C      -8.0515931448    -3.6406774320    -8.8826501790
   77      H      -5.3905938961    -0.3083708542     5.4336698170
   78      H      -1.8343354174     0.3936929856     3.1734566992
   79      H      -6.8995836944    -2.5386607697     3.2970013612
   80      H      -7.5011208984    -0.9906456323     2.7392360892
   81      H      -7.2882602024    -1.2766760309     4.4657018782
   82      H      -2.5551807817    -1.7418208485     0.5333158386
   83      H      -1.6550655051    -0.2780246497     0.9278140664
   84      H      -3.1647297120    -0.1822343478     0.0193386545
   85      H      -1.0138400773     2.1354869645     6.7005116804
   86      H      -4.4804471081     2.5947732904     4.6079242069
   87      H      -5.8256880266     4.1799811036     5.9149539594
   88      H      -5.7779099143     4.1195777861     8.3922697353
   89      H      -4.3680145133     2.4333498054     9.5359037022
   90      H      -3.0470713920     0.8270889822     8.2329778441
   91      H      -2.0215851782    -1.7985135680     5.3415859789
   92      H       0.1951320756    -2.5983390455     6.0195993028
   93      H       1.8207708361    -1.0514749722     7.0717760950
   94      H       1.1883500372     1.3202349753     7.4131605546
   95      H      -4.1443387203    -3.5530768822     2.6005763406
   96      H      -6.1548951303    -5.8966226757    -1.2966856783
   97      H      -7.8934452790    -1.3991693852    -3.0734792391
   98      H      -5.8740208918     0.9217753192     0.8309455507
   99      H      -2.9215338653    -5.5198358334     4.1799630831
  100      H      -2.0851530560    -7.6569216404     5.0761354782
  101      H      -2.4704209474    -9.7834973436     3.9423994816
  102      H      -3.5682348022   -11.0234491136     1.8283945912
  103      H      -4.8385909059   -10.7763619478    -0.2397623533
  104      H      -5.6202522849    -8.5818193055    -1.0411146606
  105      H      -7.3166831152     5.8235659265    -0.3024581331
  106      H      -6.4715031885     3.6620403166     0.5248457616
  107      H      -8.6179912108     6.0139557099    -2.3575583676
  108      H      -9.1534959801     0.4563433478    -4.6147108524
  109      H     -10.0581832490     2.5581407010    -5.5403327092
  110      H      -9.7112947961     4.7083422678    -4.4443363711
  111      H     -10.2404764467    -5.2252776647    -3.6034173220
  112      H      -6.5642684178    -4.8411046114    -5.8171641089
  113      H     -10.4035729234    -4.5283145765    -1.3782206641
  114      H      -9.4259605534    -3.0977215170    -1.0219038891
  115      H      -8.8990563097    -4.6668806437    -0.4586688168
  116      H      -5.0082168958    -2.5992782875    -3.6968996628
  117      H      -4.6567389705    -3.8859513575    -4.8584003728
  118      H      -4.5114683706    -4.1734314020    -3.1192779039
  119      H      -8.6090719340    -3.1789799267    -6.8634892176
  120      H     -11.3441879835    -5.5454382507    -7.3293433852
  121      H     -13.2041775370    -7.1484934353    -7.1588527125
  122      H     -13.0753934570    -9.0381343782    -5.5691881952
  123      H     -11.0699755578    -9.3208796546    -4.1520234377
  124      H      -9.1947434468    -7.7336431567    -4.3287620185
  125      H      -8.6638426245    -7.3330453152    -7.9334209370
  126      H      -7.9642184619    -6.7484912046   -10.2209362977
  127      H      -7.5705815888    -4.3859701153   -10.8346733952
  128      H      -7.8916003543    -2.6052733405    -9.1493891419
 ----------------------------------------------------------------

   10   -2927.8623972039      4.54E-09 Convergence criterion met
 Total energy in the final basis set = -2927.86239720

         TDDFT/TDA Excitation Energies
 ---------------------------------------------------

 Excited state   1: excitation energy (eV) =    2.0995
 Total energy for state  1:                 -2927.78524156 au
    Multiplicity: Singlet
    Trans. Mom.: -0.0143 X  -0.0274 Y  -0.0358 Z
    Strength   :     0.0001149130
    D(254) --> V(  1) amplitude =  0.9725

 Excited state   2: excitation energy (eV) =    2.4444
 Total energy for state  2:                 -2927.77256824 au
    Multiplicity: Singlet
    Trans. Mom.: -0.0121 X  -0.0184 Y  -0.0294 Z
    Strength   :     0.0000806759
    D(253) --> V(  1) amplitude =  0.9742

 ---------------------------------------------------

 Final energy is   -2927.78524156146
 **  OPTIMIZATION CONVERGED  **

                    Orbital Energies (a.u.)
 --------------------------------------------------------------

 Alpha MOs
 -- Occupied --
-14.668 -14.667 -10.490 -10.490 -10.487 -10.487 -10.483 -10.481
-10.466 -10.466 -10.465 -10.465 -10.465 -10.465 -10.464 -10.463
-10.463 -10.463 -10.463 -10.463 -10.462 -10.462 -10.462 -10.462
-10.461 -10.461 -10.460 -10.460 -10.460 -10.460 -10.454 -10.453
-10.453 -10.452 -10.452 -10.452 -10.449 -10.449 -10.449 -10.449
-10.448 -10.448 -10.446 -10.446 -10.446 -10.446 -10.446 -10.446
-10.445 -10.445 -10.445 -10.445 -10.444 -10.444 -10.441 -10.441
-10.440 -10.440 -10.439 -10.438 -10.434 -10.434 -10.434 -10.434
-10.432 -10.432 -10.427 -10.427 -10.426 -10.426 -10.422 -10.422
-10.420 -10.412  -6.946  -6.938  -1.084  -1.077  -1.016  -1.015
 -0.962  -0.962  -0.958  -0.958  -0.957  -0.955  -0.936  -0.936
 -0.934  -0.934  -0.907  -0.899  -0.871  -0.870  -0.861  -0.856
 -0.855  -0.852  -0.850  -0.848  -0.848  -0.847  -0.840  -0.839
 -0.835  -0.833  -0.822  -0.814  -0.812  -0.803  -0.798  -0.797
 -0.767  -0.762  -0.760  -0.760  -0.736  -0.731  -0.728  -0.721
 -0.709  -0.706  -0.703  -0.701  -0.690  -0.684  -0.682  -0.680
 -0.677  -0.676  -0.667  -0.666  -0.648  -0.645  -0.643  -0.638
 -0.636  -0.636  -0.604  -0.604  -0.597  -0.593  -0.593  -0.590
 -0.585  -0.585  -0.584  -0.576  -0.576  -0.561  -0.560  -0.551
 -0.549  -0.544  -0.542  -0.539  -0.538  -0.536  -0.528  -0.525
 -0.522  -0.518  -0.516  -0.512  -0.508  -0.507  -0.504  -0.500
 -0.497  -0.495  -0.494  -0.493  -0.493  -0.489  -0.488  -0.485
 -0.484  -0.484  -0.483  -0.482  -0.481  -0.480  -0.479  -0.475
 -0.471  -0.470  -0.467  -0.466  -0.464  -0.463  -0.461  -0.459
 -0.458  -0.455  -0.444  -0.443  -0.440  -0.439  -0.438  -0.435
 -0.431  -0.427  -0.426  -0.423  -0.423  -0.422  -0.421  -0.421
 -0.418  -0.414  -0.409  -0.409  -0.406  -0.402  -0.400  -0.400
 -0.399  -0.398  -0.395  -0.395  -0.395  -0.394  -0.391  -0.391
 -0.385  -0.378  -0.377  -0.367  -0.357  -0.357  -0.351  -0.350
 -0.344  -0.335  -0.320  -0.314  -0.306  -0.299  -0.299  -0.296
 -0.296  -0.295  -0.295  -0.291  -0.282  -0.281  -0.279  -0.273
 -0.272  -0.262  -0.255  -0.254  -0.218  -0.211

          Ground-State Mulliken Net Atomic Charges

     Atom                 Charge (a.u.)
  ----------------------------------------
      1 C                    -0.346550
      2 C                     0.054035
      3 C                    -0.218271
      4 C                     0.054047
      5 C                    -0.344869
      6 C                     0.277147
      7 N                    -0.672935
      8 C                    -0.759407
      9 C                    -0.759933
     10 C                     0.309887
     11 C                    -0.284644
     12 C                    -0.277402
     13 C                     0.300008
     14 C                    -0.211473
     15 C                    -0.239328
     16 C                    -0.213926
     17 C                    -0.285374
     18 C                    -0.284815
     19 C                    -0.210936
     20 C                    -0.240529
     21 C                    -0.213209
     22 C                    -0.146676
     23 C                    -0.150100
     24 B                     0.697320
     25 C                    -0.150565
     26 C                    -0.146377
     27 B                     0.677835
     28 C                    -0.392799
     29 C                     0.112309
     30 C                     0.095861
     31 C                    -0.389416
     32 C                    -0.385035
     33 C                     0.095036
     34 C                     0.116028
     35 C                    -0.398696
     36 C                    -0.380455
     37 C                    -0.203337
     38 C                    -0.334186
     39 C                     0.251453
     40 C                    -0.067064
     41 C                     0.197569
     42 C                    -0.332719
     43 C                    -0.203787
     44 C                    -0.378388
     45 C                     0.201553
     46 C                    -0.202761
     47 C                    -0.381881
     48 C                     0.196229
     49 C                    -0.066900
     50 C                     0.253102
     51 C                    -0.335828
     52 C                     0.199478
     53 C                    -0.375486
     54 C                    -0.204764
     55 C                    -0.332402
     56 C                    -0.389625
     57 C                     0.074376
     58 C                    -0.249525
     59 C                     0.075544
     60 C                    -0.388416
     61 C                     0.328782
     62 N                    -0.659872
     63 C                    -0.758983
     64 C                    -0.757473
     65 C                     0.262187
     66 C                    -0.258260
     67 C                    -0.266409
     68 C                     0.265587
     69 C                    -0.216143
     70 C                    -0.234442
     71 C                    -0.217543
     72 C                    -0.261333
     73 C                    -0.265295
     74 C                    -0.216389
     75 C                    -0.234263
     76 C                    -0.217520
     77 H                     0.232752
     78 H                     0.231440
     79 H                     0.245189
     80 H                     0.244342
     81 H                     0.239197
     82 H                     0.244980
     83 H                     0.238977
     84 H                     0.244772
     85 H                     0.246637
     86 H                     0.240801
     87 H                     0.217086
     88 H                     0.216531
     89 H                     0.219432
     90 H                     0.246930
     91 H                     0.240634
     92 H                     0.215939
     93 H                     0.215931
     94 H                     0.218957
     95 H                     0.230373
     96 H                     0.231948
     97 H                     0.232997
     98 H                     0.228171
     99 H                     0.217616
    100 H                     0.226533
    101 H                     0.221239
    102 H                     0.220947
    103 H                     0.226756
    104 H                     0.219325
    105 H                     0.226507
    106 H                     0.218693
    107 H                     0.221319
    108 H                     0.218694
    109 H                     0.226711
    110 H                     0.220883
    111 H                     0.240390
    112 H                     0.240168
    113 H                     0.236466
    114 H                     0.245128
    115 H                     0.242988
    116 H                     0.242785
    117 H                     0.236276
    118 H                     0.243768
    119 H                     0.244471
    120 H                     0.244647
    121 H                     0.221624
    122 H                     0.218369
    123 H                     0.220986
    124 H                     0.246244
    125 H                     0.244878
    126 H                     0.221701
    127 H                     0.218434
    128 H                     0.220775
  ----------------------------------------
  Sum of atomic charges =    -0.000000

                    Cartesian Multipole Moments
 -----------------------------------------------------------------
    Charge (ESU x 10^10)
                -0.0000
    Dipole Moment (Debye)
         X      -0.7903      Y      -0.6119      Z      -1.1294
       Tot       1.5082
    Quadrupole Moments (Debye-Ang)
        XX    -414.7444     XY      -6.9375     YY    -375.7382
        XZ      25.6028     YZ      -4.5058     ZZ    -404.7894

 Total job time:  45783.87s(wall), 289498.93s(cpu)
        *  Thank you very much for using Q-Chem.  Have a nice day.  *
