 Q-Chem 5.0, Q-Chem, Inc., Pleasanton, CA (2017)
 Q-Chem 5.0.1 for Intel X86 EM64T Linux

User input:
--------------------------------------------------------------
$rem
threads 8
jobtype	sp
method PBEh-3c
basis def2-mSVP
mem_static	1024
mem_total	14000
sym_ignore	true
cis_n_roots             6
cis_singlets            true
cis_triplets		true
rpa                     false
calc_soc 		true
cis_moments             true
cis_relaxed_density	true
$end

$molecule
read s1opt.mol
$end

--------------------------------------------------------------

             Standard Nuclear Orientation (Angstroms)
    I     Atom           X                Y                Z
 ----------------------------------------------------------------
    1      N       0.0000000000     0.0000000000     0.0000000000
    2      C       0.0000000000     0.0000000000     1.3682220000
    3      C       1.2034225119     0.0000000000    -0.7358162545
    4      C       2.2258822945     0.8854739788    -0.4013810965
    5      H       2.0993348730     1.5742700521     0.4235544117
    6      C       3.3921117087     0.8931274536    -1.1459475544
    7      H       4.1825737269     1.5852055189    -0.8906176667
    8      C       3.5404181663     0.0326075000    -2.2243002139
    9      H       4.4522050426     0.0455720484    -2.8055140938
   10      C       2.5154509292    -0.8423766941    -2.5588261381
   11      H       2.6302427414    -1.5190355556    -3.3944265398
   12      C       1.3464354604    -0.8624140817    -1.8209622791
   13      H       0.5521920581    -1.5517401595    -2.0756953820
   14      C      -1.2079816745    -0.0153613304    -0.7292063283
   15      C      -1.3627635461     0.8379331327    -1.8196862030
   16      H      -0.5722520463     1.5272568829    -2.0856912833
   17      C      -2.5375569794     0.8078352617    -2.5478230982
   18      H      -2.6621832839     1.4782470180    -3.3871092403
   19      C      -3.5559549790    -0.0694821493    -2.1990464565
   20      H      -4.4725681483    -0.0894591547    -2.7723475637
   21      C      -3.3939262891    -0.9245795523    -1.1181608904
   22      H      -4.1781974600    -1.6196571617    -0.8524627712
   23      C      -2.2219262723    -0.9062553154    -0.3827378739
   24      H      -2.0835828436    -1.5904705959     0.4440652126
   25      C      -1.0924152976     0.5440811496     2.0768827336
   26      H      -1.8965695793     1.0211274689     1.5318404845
   27      C      -1.1150601499     0.5144554774     3.4485099585
   28      C       1.0852834013    -0.5530505680     2.0810032097
   29      H       1.9078724800    -1.0009860554     1.5384436592
   30      C       1.0660980002    -0.5940591298     3.4523710638
   31      C      -0.0452855411    -0.0770957775     4.1724852212
   32      C       2.1996100330    -1.2167997003     4.2036249333
   33      H       2.9743027700    -1.5882407880     3.5338676497
   34      H       1.8475008477    -2.0450204821     4.8187623236
   35      H       2.6495082699    -0.4927129119     4.8839323846
   36      C      -2.2638766764     1.1121804355     4.1971119793
   37      H      -3.0058189889     1.5404067969     3.5243592165
   38      H      -1.9198360125     1.8935541539     4.8749977055
   39      H      -2.7517520651     0.3565100710     4.8135404284
   40      B      -0.0977842782    -0.1848919570     5.7492269821
   41      C       0.4645060751     0.9439238570     6.6016888100
   42      C       1.0278591096     2.0956895737     6.0160108279
   43      H       1.0630276159     2.1953104499     4.9345618473
   44      C       1.5375362576     3.0994361941     6.7988360855
   45      C       1.5023191445     2.9902679829     8.2195970098
   46      C       0.9545631998     1.8732624653     8.8073501206
   47      H       0.9252348049     1.7860772393     9.8880192886
   48      C       0.4265432203     0.8300426589     8.0257570832
   49      C       2.1115448224     4.1961800449     8.7739862604
   50      C       2.3648427876     4.6748614507    10.0353276450
   51      H       2.0966460621     4.1137093544    10.9213520335
   52      C       2.4940283770     4.9911599645     7.6737237684
   53      C       3.1141942073     6.2337951962     7.7759505343
   54      C       2.1671383660     4.3706736777     6.4518465558
   55      C       2.4744735736     5.0237071935     5.2836866703
   56      H       2.2450609760     4.5992242931     4.3137242914
   57      C       3.1052837873     6.2856291603     5.3579223728
   58      H       3.3468190962     6.7993254037     4.4356221472
   59      C       3.4209059805     6.8838397601     6.5558832304
   60      H       3.9042041087     7.8533647302     6.5641076180
   61      C       2.9932999017     5.9338665280    10.1699259637
   62      H       3.1912029867     6.3072545455    11.1665029643
   63      C       3.3620619759     6.7004052524     9.0888692974
   64      H       3.8408383765     7.6599469327     9.2418436709
   65      C      -0.6997334118    -1.4317467148     6.3880553894
   66      C      -1.2133090492    -2.4795318562     5.5994806192
   67      H      -1.1892347043    -2.4045624541     4.5160932394
   68      C      -1.7442365112    -3.6006206450     6.1833005113
   69      C      -1.7896536612    -3.7217700366     7.6022851744
   70      C      -1.2909535306    -2.7065876349     8.3887721593
   71      H      -1.3168379472    -2.7906359385     9.4702884592
   72      C      -0.7386563978    -1.5477239673     7.8128188387
   73      C      -2.3202405001    -4.8040173984     5.5985140595
   74      C      -2.5369661557    -5.2559717262     4.3208051741
   75      H      -2.2582214072    -4.6702075602     3.4530006950
   76      C      -2.7039994512    -5.6207840475     6.6802109986
   77      C      -3.2981118046    -6.8706347067     6.5372860656
   78      C      -2.4042954601    -5.0093891376     7.9161286038
   79      C      -2.7214526268    -5.6904476902     9.0644171309
   80      H      -2.5175347211    -5.2782784389    10.0444827453
   81      C      -3.1382514678    -6.5216739248     4.1469240933
   82      H      -3.3096118402    -6.8814054136     3.1400017400
   83      C      -3.5120494411    -7.3130475671     5.2089175905
   84      H      -3.9696367662    -8.2777380730     5.0266732815
   85      C      -3.3290910121    -6.9620115329     8.9517214206
   86      H      -3.5782003846    -7.4946087196     9.8605668855
   87      C      -3.6141299315    -7.5476441628     7.7396287091
   88      H      -4.0796909332    -8.5249073250     7.7064825876
   89      B      -0.1792401444    -0.4177779590     8.6944026578
   90      C      -0.2120019388    -0.5110968473    10.2715005141
   91      C       0.8811905108    -1.0275439648    10.9772510686
   92      C       0.8743976057    -1.0485047161    12.3661333000
   93      H       1.7339746832    -1.4333283984    12.9028226384
   94      C      -0.2252848931    -0.5844057965    13.0744229010
   95      C      -1.3227797795    -0.0915114267    12.3809168831
   96      H      -2.1846074252     0.2673528005    12.9316418114
   97      C      -1.3161670790    -0.0398809324    10.9928284997
   98      N      -0.2246063539    -0.6066598125    14.4878495573
   99      C      -0.5333908025     0.5624624607    15.1930712974
  100      C      -1.2057069930     0.5041964717    16.4148289432
  101      H      -1.4923056233    -0.4561595292    16.8232264545
  102      C      -1.5101194857     1.6674121464    17.1008974672
  103      H      -2.0317872803     1.6013618537    18.0470373904
  104      C      -1.1745623432     2.9080281092    16.5783560518
  105      H      -1.4239505019     3.8147947042    17.1128228689
  106      C      -0.5178553309     2.9687027908    15.3580358703
  107      H      -0.2454950422     3.9274451221    14.9354127442
  108      C      -0.1896127370     1.8116355835    14.6733641126
  109      H       0.3314313307     1.8731637516    13.7269657091
  110      C       0.2098788861    -1.7652652132    15.1454696303
  111      C       1.0423263778    -1.6947473118    16.2624451158
  112      H       1.3514030967    -0.7292414361    16.6411910330
  113      C       1.4835071615    -2.8536630099    16.8795941166
  114      H       2.1326805672    -2.7784484185    17.7425247601
  115      C       1.1227012571    -4.0994180737    16.3883009545
  116      H       1.4789942945    -5.0019864830    16.8663724452
  117      C       0.3022431820    -4.1718317338    15.2715946286
  118      H       0.0100164563    -5.1355496417    14.8745661600
  119      C      -0.1595204294    -3.0201182225    14.6592445248
  120      H      -0.7995761201    -3.0868977910    13.7889929886
  121      C      -2.5007380413     0.5191309277    10.2551665667
  122      H      -3.2860916559     0.8452417748    10.9368916329
  123      H      -2.9297766430    -0.2206274596     9.5765417821
  124      H      -2.2134706236     1.3764349628     9.6423433974
  125      C       2.0806858454    -1.5380151301    10.2274464375
  126      H       2.8382895417    -1.9364086925    10.9020452164
  127      H       1.8027810686    -2.3316686068     9.5311697997
  128      H       2.5441632044    -0.7476139141     9.6332684212
 ----------------------------------------------------------------

   15   -2927.8617907127      7.08E-09 Convergence criterion met
 Total energy in the final basis set = -2927.86179071

         TDDFT/TDA Excitation Energies
 ---------------------------------------------------

 Excited state   1: excitation energy (eV) =    2.0793
 Total energy for state  1:                 -2927.78537800 au
    Multiplicity: Triplet
    Trans. Mom.:  0.0000 X   0.0000 Y   0.0000 Z
    Strength   :     0.0000000000
    D(254) --> V(  1) amplitude =  0.9677

 Excited state   2: excitation energy (eV) =    2.1001
 Total energy for state  2:                 -2927.78461247 au
    Multiplicity: Singlet
    Trans. Mom.:  0.0019 X   0.0113 Y  -0.0460 Z
    Strength   :     0.0001156432
    D(254) --> V(  1) amplitude =  0.9725

 Excited state   3: excitation energy (eV) =    2.1919
 Total energy for state  3:                 -2927.78124030 au
    Multiplicity: Triplet
    Trans. Mom.:  0.0000 X   0.0000 Y   0.0000 Z
    Strength   :     0.0000000000
    D(246) --> V(  2) amplitude = -0.2443
    D(251) --> V(  1) amplitude = -0.2871
    D(252) --> V(  1) amplitude =  0.8743

 Excited state   4: excitation energy (eV) =    2.4297
 Total energy for state  4:                 -2927.77250040 au
    Multiplicity: Triplet
    Trans. Mom.:  0.0000 X   0.0000 Y   0.0000 Z
    Strength   :     0.0000000000
    D(250) --> V(  2) amplitude =  0.3483
    D(251) --> V(  1) amplitude = -0.5509
    D(253) --> V(  1) amplitude =  0.6719

 Excited state   5: excitation energy (eV) =    2.4314
 Total energy for state  5:                 -2927.77243862 au
    Multiplicity: Triplet
    Trans. Mom.:  0.0000 X   0.0000 Y   0.0000 Z
    Strength   :     0.0000000000
    D(250) --> V(  2) amplitude = -0.3354
    D(251) --> V(  1) amplitude =  0.5297
    D(253) --> V(  1) amplitude =  0.6980

 Excited state   6: excitation energy (eV) =    2.4448
 Total energy for state  6:                 -2927.77194532 au
    Multiplicity: Singlet
    Trans. Mom.: -0.0004 X   0.0063 Y  -0.0354 Z
    Strength   :     0.0000773258
    D(253) --> V(  1) amplitude =  0.9742

 Excited state   7: excitation energy (eV) =    2.4916
 Total energy for state  7:                 -2927.77022691 au
    Multiplicity: Triplet
    Trans. Mom.:  0.0000 X   0.0000 Y   0.0000 Z
    Strength   :     0.0000000000
    D(250) --> V(  1) amplitude =  0.7360
    D(250) --> V(  4) amplitude =  0.2358
    D(251) --> V(  2) amplitude = -0.5198

 Excited state   8: excitation energy (eV) =    2.6938
 Total energy for state  8:                 -2927.76279438 au
    Multiplicity: Triplet
    Trans. Mom.:  0.0000 X   0.0000 Y   0.0000 Z
    Strength   :     0.0000000000
    D(246) --> V(  1) amplitude =  0.6955
    D(252) --> V(  2) amplitude = -0.5299

 Excited state   9: excitation energy (eV) =    2.8721
 Total energy for state  9:                 -2927.75624413 au
    Multiplicity: Singlet
    Trans. Mom.: -0.0352 X  -0.0602 Y  -0.0043 Z
    Strength   :     0.0003428368
    D(251) --> V(  1) amplitude = -0.3136
    D(252) --> V(  1) amplitude =  0.9146

 Excited state  10: excitation energy (eV) =    3.2190
 Total energy for state 10:                 -2927.74349395 au
    Multiplicity: Singlet
    Trans. Mom.: -1.5244 X  -3.1155 Y  -0.3000 Z
    Strength   :     0.9558454140
    D(251) --> V(  1) amplitude =  0.8977
    D(252) --> V(  1) amplitude =  0.3079

 Excited state  11: excitation energy (eV) =    3.3377
 Total energy for state 11:                 -2927.73913101 au
    Multiplicity: Singlet
    Trans. Mom.: -0.0047 X   0.0151 Y  -0.0117 Z
    Strength   :     0.0000315871
    D(254) --> V(  2) amplitude =  0.9943

 Excited state  12: excitation energy (eV) =    3.5986
 Total energy for state 12:                 -2927.72954322 au
    Multiplicity: Singlet
    Trans. Mom.:  0.0104 X  -0.0036 Y   0.0022 Z
    Strength   :     0.0000110848
    D(253) --> V(  2) amplitude =  0.9949

 ---------------------------------------------------

                    Orbital Energies (a.u.)
 --------------------------------------------------------------

 Alpha MOs
 -- Occupied --
-14.668 -14.667 -10.490 -10.490 -10.487 -10.487 -10.483 -10.481
-10.466 -10.466 -10.465 -10.465 -10.465 -10.465 -10.464 -10.463
-10.463 -10.463 -10.463 -10.463 -10.462 -10.462 -10.462 -10.462
-10.461 -10.461 -10.460 -10.460 -10.460 -10.460 -10.454 -10.453
-10.453 -10.452 -10.452 -10.451 -10.449 -10.449 -10.449 -10.449
-10.448 -10.447 -10.446 -10.446 -10.446 -10.446 -10.446 -10.446
-10.445 -10.445 -10.445 -10.445 -10.444 -10.444 -10.441 -10.441
-10.440 -10.440 -10.439 -10.438 -10.434 -10.434 -10.434 -10.434
-10.432 -10.432 -10.427 -10.427 -10.426 -10.426 -10.422 -10.422
-10.420 -10.412  -6.946  -6.938  -1.084  -1.077  -1.016  -1.015
 -0.962  -0.961  -0.958  -0.958  -0.957  -0.955  -0.936  -0.936
 -0.934  -0.934  -0.907  -0.899  -0.871  -0.870  -0.861  -0.856
 -0.855  -0.852  -0.850  -0.848  -0.848  -0.847  -0.840  -0.839
 -0.835  -0.833  -0.822  -0.814  -0.812  -0.803  -0.798  -0.797
 -0.767  -0.762  -0.760  -0.760  -0.736  -0.731  -0.728  -0.721
 -0.709  -0.706  -0.703  -0.701  -0.690  -0.684  -0.682  -0.680
 -0.677  -0.676  -0.667  -0.666  -0.648  -0.645  -0.643  -0.638
 -0.636  -0.636  -0.604  -0.604  -0.597  -0.593  -0.593  -0.590
 -0.585  -0.585  -0.584  -0.576  -0.576  -0.561  -0.560  -0.551
 -0.549  -0.544  -0.542  -0.539  -0.538  -0.536  -0.528  -0.525
 -0.522  -0.518  -0.516  -0.512  -0.508  -0.507  -0.504  -0.500
 -0.497  -0.495  -0.494  -0.493  -0.493  -0.489  -0.488  -0.485
 -0.484  -0.484  -0.483  -0.482  -0.481  -0.480  -0.479  -0.475
 -0.471  -0.470  -0.467  -0.466  -0.464  -0.463  -0.461  -0.459
 -0.458  -0.455  -0.444  -0.443  -0.440  -0.439  -0.438  -0.435
 -0.431  -0.427  -0.426  -0.423  -0.423  -0.422  -0.421  -0.421
 -0.418  -0.414  -0.409  -0.409  -0.406  -0.402  -0.400  -0.400
 -0.399  -0.398  -0.395  -0.395  -0.395  -0.394  -0.391  -0.391
 -0.385  -0.378  -0.377  -0.367  -0.357  -0.357  -0.351  -0.350
 -0.344  -0.335  -0.320  -0.314  -0.306  -0.299  -0.299  -0.296
 -0.296  -0.295  -0.295  -0.291  -0.282  -0.281  -0.279  -0.273
 -0.272  -0.262  -0.255  -0.254  -0.218  -0.211

          Ground-State Mulliken Net Atomic Charges

     Atom                 Charge (a.u.)
  ----------------------------------------
      1 N                    -0.659797
      2 C                     0.328553
      3 C                     0.266019
      4 C                    -0.261659
      5 H                     0.246156
      6 C                    -0.217295
      7 H                     0.220930
      8 C                    -0.234551
      9 H                     0.218336
     10 C                    -0.215909
     11 H                     0.221559
     12 C                    -0.266443
     13 H                     0.244534
     14 C                     0.262327
     15 C                    -0.265363
     16 H                     0.244857
     17 C                    -0.216348
     18 H                     0.221670
     19 C                    -0.234253
     20 H                     0.218402
     21 C                    -0.217443
     22 H                     0.220795
     23 C                    -0.258327
     24 H                     0.244433
     25 C                    -0.388448
     26 H                     0.240171
     27 C                     0.076091
     28 C                    -0.389707
     29 H                     0.240317
     30 C                     0.074208
     31 C                    -0.249812
     32 C                    -0.758777
     33 H                     0.236463
     34 H                     0.245057
     35 H                     0.242912
     36 C                    -0.757592
     37 H                     0.236303
     38 H                     0.243765
     39 H                     0.242760
     40 B                     0.678455
     41 C                    -0.146503
     42 C                    -0.389455
     43 H                     0.231964
     44 C                     0.095572
     45 C                     0.112638
     46 C                    -0.392714
     47 H                     0.230461
     48 C                    -0.150950
     49 C                     0.197575
     50 C                    -0.380299
     51 H                     0.217614
     52 C                    -0.066952
     53 C                     0.251383
     54 C                     0.201148
     55 C                    -0.378482
     56 H                     0.219275
     57 C                    -0.203678
     58 H                     0.226752
     59 C                    -0.332568
     60 H                     0.220905
     61 C                    -0.203352
     62 H                     0.226503
     63 C                    -0.334297
     64 H                     0.221250
     65 C                    -0.146955
     66 C                    -0.384966
     67 H                     0.233108
     68 C                     0.095258
     69 C                     0.115744
     70 C                    -0.398611
     71 H                     0.228154
     72 C                    -0.150326
     73 C                     0.199557
     74 C                    -0.375287
     75 H                     0.218709
     76 C                    -0.067057
     77 C                     0.253064
     78 C                     0.195869
     79 C                    -0.381967
     80 H                     0.218641
     81 C                    -0.204812
     82 H                     0.226693
     83 C                    -0.332505
     84 H                     0.220910
     85 C                    -0.202633
     86 H                     0.226516
     87 C                    -0.335628
     88 H                     0.221267
     89 B                     0.698322
     90 C                    -0.218585
     91 C                     0.054726
     92 C                    -0.346939
     93 H                     0.232660
     94 C                     0.277527
     95 C                    -0.345116
     96 H                     0.231438
     97 C                     0.054086
     98 N                    -0.673026
     99 C                     0.309860
    100 C                    -0.284575
    101 H                     0.246546
    102 C                    -0.213274
    103 H                     0.218986
    104 C                    -0.240503
    105 H                     0.215927
    106 C                    -0.210875
    107 H                     0.215919
    108 C                    -0.284986
    109 H                     0.240636
    110 C                     0.300347
    111 C                    -0.285321
    112 H                     0.246914
    113 C                    -0.213906
    114 H                     0.219417
    115 C                    -0.239336
    116 H                     0.216511
    117 C                    -0.211540
    118 H                     0.217098
    119 C                    -0.277494
    120 H                     0.240810
    121 C                    -0.760057
    122 H                     0.239035
    123 H                     0.244804
    124 H                     0.244996
    125 C                    -0.759651
    126 H                     0.239242
    127 H                     0.244333
    128 H                     0.245166
  ----------------------------------------
  Sum of atomic charges =    -0.000000

                    Cartesian Multipole Moments
 -----------------------------------------------------------------
    Charge (ESU x 10^10)
                -0.0000
    Dipole Moment (Debye)
         X       0.1358      Y      -0.0669      Z      -1.4987
       Tot       1.5063
    Quadrupole Moments (Debye-Ang)
        XX    -423.1908     XY      26.3154     YY    -384.3969
        XZ       3.8047     YZ       1.9578     ZZ    -422.3672

 Total job time:  18313.23s(wall), 55525.99s(cpu)
        *  Thank you very much for using Q-Chem.  Have a nice day.  *
