 Q-Chem 5.1, Q-Chem, Inc., Pleasanton, CA (2018)
 Q-Chem 5.1.1 for Intel X86 EM64T Linux

User input:
--------------------------------------------------------------
$rem
threads 8
jobtype	opt
method PBEh-3c
basis def2-mSVP
mem_static	1024
mem_total	14000
sym_ignore	true
cis_n_roots             3
cis_singlets            false
cis_triplets		true
rpa                     false
cis_state_deriv         1
state_follow		true
$end

$molecule
read t2preopt.mol
$end

--------------------------------------------------------------

             Standard Nuclear Orientation (Angstroms)
    I     Atom           X                Y                Z
 ----------------------------------------------------------------
    1      C      -4.8303850000    -0.3543460000     4.5223780000
    2      C      -5.4389930000    -0.9431220000     3.4218790000
    3      C      -4.7344360000    -1.0925310000     2.2216220000
    4      C      -3.4171430000    -0.6229320000     2.1481940000
    5      C      -2.8292390000    -0.0122320000     3.2476720000
    6      C      -3.5262130000     0.1180650000     4.4435200000
    7      N      -2.9166190000     0.7188660000     5.5627920000
    8      C      -6.8526170000    -1.4457990000     3.5281850000
    9      C      -2.6425980000    -0.7753640000     0.8686400000
   10      C      -1.6219680000     0.3328360000     5.9378500000
   11      C      -0.7198890000     1.2661370000     6.4481220000
   12      C      -4.4680990000     2.5732910000     5.7203160000
   13      C      -3.6551320000     1.6244700000     6.3400520000
   14      C      -5.2321040000     3.4421470000     6.4796340000
   15      C      -5.1850660000     3.3969800000     7.8655950000
   16      C      -4.3676070000     2.4626890000     8.4839010000
   17      C      -3.6144650000     1.5754750000     7.7325060000
   18      C      -1.2127400000    -0.9929980000     5.7939100000
   19      C       0.0730700000    -1.3692410000     6.1412900000
   20      C       0.9660660000    -0.4420440000     6.6579060000
   21      C       0.5571280000     0.8743990000     6.8130740000
   22      C      -6.7348430000    -1.7111240000    -1.2346870000
   23      C      -6.1503210000    -1.0202710000    -0.0936750000
   24      B      -5.3980460000    -1.8122690000     0.9875190000
   25      C      -5.2968450000    -3.3404340000     0.8494120000
   26      C      -5.8934190000    -4.0237740000    -0.2877640000
   27      B      -6.6310310000    -3.2371460000    -1.3767580000
   28      C      -4.6248580000    -4.0907840000     1.8282890000
   29      C      -4.5316530000    -5.4563820000     1.7144420000
   30      C      -5.1309580000    -6.1335290000     0.5782910000
   31      C      -5.7915480000    -5.4157780000    -0.3897300000
   32      C      -7.4103170000    -0.9745350000    -2.2120960000
   33      C      -7.5296800000     0.3894560000    -2.0937510000
   34      C      -6.9503600000     1.0860220000    -0.9586760000
   35      C      -6.2795860000     0.3752570000     0.0086890000
   36      C      -3.2027980000    -6.4626500000     3.7272680000
   37      C      -2.7447630000    -7.6935230000     4.2423320000
   38      C      -2.9795020000    -8.8959730000     3.6130530000
   39      C      -3.7061400000    -8.9338250000     2.3996020000
   40      C      -4.1463680000    -7.7063400000     1.9134320000
   41      C      -3.9117070000    -6.4681630000     2.5496540000
   42      C      -4.0362100000   -10.0691010000     1.6195720000
   43      C      -4.7527160000    -9.9256580000     0.4512750000
   44      C      -5.1866480000    -8.6710840000    -0.0221250000
   45      C      -4.8806960000    -7.5509660000     0.7170230000
   46      C      -7.4447000000     4.8723810000    -0.9086890000
   47      C      -6.9725630000     3.6409550000    -0.4074350000
   48      C      -7.2423570000     2.4983190000    -1.1214670000
   49      C      -7.9790340000     2.6167690000    -2.3209770000
   50      C      -8.4584980000     3.8155340000    -2.8367790000
   51      C      -8.1642910000     4.9741710000    -2.0791910000
   52      C      -8.1749600000     1.3621940000    -2.9396500000
   53      C      -8.8797040000     1.3015790000    -4.1200410000
   54      C      -9.3757210000     2.5036660000    -4.6608310000
   55      C      -9.1800350000     3.7254580000    -4.0528150000
   56      C      -9.2098430000    -4.9278950000    -3.7150470000
   57      C      -8.6207170000    -4.3623500000    -2.5916880000
   58      C      -7.2781370000    -3.9638800000    -2.6164930000
   59      C      -6.5370340000    -4.1872050000    -3.7843040000
   60      C      -7.1291920000    -4.7795730000    -4.8908390000
   61      C      -8.4740140000    -5.1348760000    -4.8765240000
   62      N      -9.0749410000    -5.6711520000    -6.0298950000
   63      C      -9.4458140000    -4.1513710000    -1.3530700000
   64      C      -5.0892370000    -3.7879200000    -3.8452810000
   65      C      -8.7583520000    -5.1439430000    -7.2943880000
   66      C      -8.6401630000    -3.7691370000    -7.4889250000
   67      C     -11.2165960000    -6.5769460000    -6.7248950000
   68      C     -10.0704320000    -6.6562920000    -5.9341600000
   69      C     -12.1893860000    -7.5591070000    -6.6490560000
   70      C     -12.0500380000    -8.6242400000    -5.7718470000
   71      C     -10.9167410000    -8.6992650000    -4.9752260000
   72      C      -9.9284840000    -7.7326200000    -5.0589150000
   73      C      -8.5688900000    -5.9993410000    -8.3791950000
   74      C      -8.2792440000    -5.4868940000    -9.6322840000
   75      C      -8.1526050000    -4.1185150000    -9.8217870000
   76      C      -8.3299050000    -3.2661870000    -8.7418260000
   77      H      -5.3796720000    -0.2598890000     5.4516940000
   78      H      -1.8137850000     0.3596140000     3.1775760000
   79      H      -6.9071030000    -2.5250460000     3.3692490000
   80      H      -7.4974950000    -0.9846560000     2.7772050000
   81      H      -7.2835160000    -1.2344550000     4.5062200000
   82      H      -2.5484290000    -1.8262220000     0.5851200000
   83      H      -1.6363770000    -0.3661760000     0.9527390000
   84      H      -3.1385020000    -0.2691080000     0.0377930000
   85      H      -1.0216120000     2.2999910000     6.5551930000
   86      H      -4.5066520000     2.6183540000     4.6394990000
   87      H      -5.8624700000     4.1675890000     5.9816760000
   88      H      -5.7801410000     4.0803720000     8.4561960000
   89      H      -4.3270200000     2.4084710000     9.5640780000
   90      H      -2.9967350000     0.8358550000     8.2252520000
   91      H      -1.9048650000    -1.7280420000     5.4043260000
   92      H       0.3739960000    -2.4017400000     6.0181070000
   93      H       1.9679070000    -0.7414900000     6.9345190000
   94      H       1.2439260000     1.6121990000     7.2070840000
   95      H      -4.1802380000    -3.5786470000     2.6735100000
   96      H      -6.2392620000    -5.9197790000    -1.2396940000
   97      H      -7.8419120000    -1.4927910000    -3.0614050000
   98      H      -5.8429220000     0.8822500000     0.8617320000
   99      H      -2.9916840000    -5.5452240000     4.2609250000
  100      H      -2.1866650000    -7.6903090000     5.1692800000
  101      H      -2.6059730000    -9.8147850000     4.0480610000
  102      H      -3.7246800000   -11.0555070000     1.9404990000
  103      H      -4.9918480000   -10.8082590000    -0.1278100000
  104      H      -5.7445890000    -8.6102230000    -0.9479430000
  105      H      -7.2317170000     5.7726160000    -0.3475550000
  106      H      -6.4130260000     3.6147160000     0.5185250000
  107      H      -8.5044420000     5.9442230000    -2.4194650000
  108      H      -9.0574260000     0.3637610000    -4.6312350000
  109      H      -9.9317340000     2.4645290000    -5.5885100000
  110      H      -9.5825390000     4.6210910000    -4.5093950000
  111      H     -10.2595130000    -5.1968050000    -3.6898710000
  112      H      -6.5418390000    -4.9519030000    -5.7850880000
  113      H     -10.4706620000    -4.4963740000    -1.4877690000
  114      H      -9.4867800000    -3.0965820000    -1.0734810000
  115      H      -9.0270000000    -4.6893040000    -0.5000070000
  116      H      -4.9643390000    -2.7196790000    -3.6566090000
  117      H      -4.6540200000    -4.0032270000    -4.8206210000
  118      H      -4.4962120000    -4.3142110000    -3.0945470000
  119      H      -8.7913850000    -3.0962890000    -6.6551110000
  120      H     -11.3429290000    -5.7448190000    -7.4053230000
  121      H     -13.0705340000    -7.4816800000    -7.2729100000
  122      H     -12.8146730000    -9.3869110000    -5.7097370000
  123      H     -10.7903670000    -9.5284300000    -4.2910380000
  124      H      -9.0406560000    -7.8100840000    -4.4448510000
  125      H      -8.6543760000    -7.0691210000    -8.2370830000
  126      H      -8.1373980000    -6.1653210000   -10.4636840000
  127      H      -7.9178770000    -3.7209560000   -10.8000790000
  128      H      -8.2399850000    -2.1960900000    -8.8768640000
 ----------------------------------------------------------------

   15   -2927.8630293959      7.40e-09  Convergence criterion met
 Total energy in the final basis set =    -2927.8630293959

         TDDFT/TDA Excitation Energies
 ---------------------------------------------------

 Excited state   1: excitation energy (eV) =    1.9849
 Total energy for state  1:                 -2927.79008505 au
    Multiplicity: Triplet
    Trans. Mom.:  0.0000 X   0.0000 Y   0.0000 Z
    Strength   :     0.0000000000
    D(247) --> V(  2) amplitude = -0.2565
    D(252) --> V(  1) amplitude =  0.9252

 Excited state   2: excitation energy (eV) =    2.3112
 Total energy for state  2:                 -2927.77809344 au
    Multiplicity: Triplet
    Trans. Mom.:  0.0000 X   0.0000 Y   0.0000 Z
    Strength   :     0.0000000000
    D(253) --> V(  1) amplitude = -0.6139
    D(254) --> V(  1) amplitude =  0.7442

 Excited state   3: excitation energy (eV) =    2.3587
 Total energy for state  3:                 -2927.77634972 au
    Multiplicity: Triplet
    Trans. Mom.:  0.0000 X   0.0000 Y   0.0000 Z
    Strength   :     0.0000000000
    D(253) --> V(  1) amplitude =  0.7534
    D(254) --> V(  1) amplitude =  0.6171

 ---------------------------------------------------

 Final energy is   -2927.79008504639
 **  OPTIMIZATION CONVERGED  **

                    Orbital Energies (a.u.)
 --------------------------------------------------------------

 Alpha MOs
 -- Occupied --
-14.668 -14.667 -10.489 -10.488 -10.488 -10.488 -10.483 -10.481
-10.467 -10.467 -10.467 -10.467 -10.466 -10.466 -10.465 -10.464
-10.464 -10.464 -10.464 -10.464 -10.463 -10.463 -10.462 -10.462
-10.461 -10.461 -10.461 -10.461 -10.461 -10.461 -10.454 -10.453
-10.452 -10.452 -10.451 -10.451 -10.451 -10.451 -10.448 -10.448
-10.448 -10.447 -10.447 -10.446 -10.446 -10.446 -10.445 -10.445
-10.444 -10.444 -10.443 -10.443 -10.442 -10.442 -10.442 -10.441
-10.441 -10.441 -10.441 -10.439 -10.435 -10.435 -10.434 -10.434
-10.433 -10.433 -10.432 -10.432 -10.426 -10.426 -10.425 -10.425
-10.419 -10.418  -6.943  -6.942  -1.078  -1.077  -1.015  -1.015
 -0.961  -0.959  -0.958  -0.958  -0.956  -0.956  -0.938  -0.937
 -0.935  -0.935  -0.906  -0.897  -0.871  -0.871  -0.863  -0.857
 -0.857  -0.853  -0.849  -0.849  -0.849  -0.848  -0.837  -0.836
 -0.836  -0.835  -0.817  -0.815  -0.813  -0.799  -0.798  -0.798
 -0.767  -0.766  -0.762  -0.761  -0.734  -0.734  -0.731  -0.719
 -0.708  -0.706  -0.701  -0.701  -0.690  -0.683  -0.681  -0.679
 -0.679  -0.674  -0.668  -0.668  -0.646  -0.643  -0.642  -0.642
 -0.637  -0.636  -0.605  -0.604  -0.599  -0.595  -0.592  -0.591
 -0.586  -0.585  -0.584  -0.577  -0.576  -0.561  -0.560  -0.550
 -0.549  -0.543  -0.542  -0.539  -0.539  -0.536  -0.528  -0.525
 -0.521  -0.519  -0.518  -0.510  -0.510  -0.508  -0.503  -0.500
 -0.498  -0.496  -0.495  -0.494  -0.493  -0.492  -0.484  -0.484
 -0.483  -0.483  -0.483  -0.482  -0.481  -0.480  -0.480  -0.475
 -0.472  -0.471  -0.469  -0.466  -0.464  -0.464  -0.460  -0.458
 -0.457  -0.456  -0.445  -0.440  -0.439  -0.439  -0.438  -0.436
 -0.430  -0.429  -0.425  -0.424  -0.422  -0.421  -0.421  -0.420
 -0.419  -0.412  -0.410  -0.408  -0.405  -0.403  -0.401  -0.399
 -0.399  -0.397  -0.397  -0.396  -0.396  -0.395  -0.391  -0.389
 -0.384  -0.383  -0.376  -0.366  -0.361  -0.357  -0.352  -0.348
 -0.344  -0.337  -0.323  -0.317  -0.303  -0.300  -0.298  -0.297
 -0.297  -0.296  -0.293  -0.292  -0.283  -0.282  -0.276  -0.273
 -0.273  -0.263  -0.256  -0.249  -0.218  -0.218

          Ground-State Mulliken Net Atomic Charges

     Atom                 Charge (a.u.)
  ----------------------------------------
      1 C                    -0.354118
      2 C                     0.057860
      3 C                    -0.220807
      4 C                     0.057824
      5 C                    -0.352135
      6 C                     0.290153
      7 N                    -0.673349
      8 C                    -0.759208
      9 C                    -0.760297
     10 C                     0.303294
     11 C                    -0.282121
     12 C                    -0.273968
     13 C                     0.294181
     14 C                    -0.212509
     15 C                    -0.238027
     16 C                    -0.214570
     17 C                    -0.281039
     18 C                    -0.280397
     19 C                    -0.211864
     20 C                    -0.239253
     21 C                    -0.213759
     22 C                    -0.151730
     23 C                    -0.154598
     24 B                     0.690998
     25 C                    -0.153351
     26 C                    -0.152965
     27 B                     0.688289
     28 C                    -0.385065
     29 C                     0.099231
     30 C                     0.083083
     31 C                    -0.383249
     32 C                    -0.378573
     33 C                     0.082116
     34 C                     0.102715
     35 C                    -0.389662
     36 C                    -0.375399
     37 C                    -0.204278
     38 C                    -0.333418
     39 C                     0.249864
     40 C                    -0.071212
     41 C                     0.203266
     42 C                    -0.331657
     43 C                    -0.204862
     44 C                    -0.371346
     45 C                     0.201845
     46 C                    -0.203626
     47 C                    -0.376594
     48 C                     0.202250
     49 C                    -0.071333
     50 C                     0.251613
     51 C                    -0.335179
     52 C                     0.199792
     53 C                    -0.367613
     54 C                    -0.205816
     55 C                    -0.331386
     56 C                    -0.368790
     57 C                     0.060191
     58 C                    -0.227367
     59 C                     0.060893
     60 C                    -0.364132
     61 C                     0.316863
     62 N                    -0.674813
     63 C                    -0.758905
     64 C                    -0.757815
     65 C                     0.280103
     66 C                    -0.268630
     67 C                    -0.279770
     68 C                     0.293125
     69 C                    -0.213386
     70 C                    -0.237836
     71 C                    -0.213995
     72 C                    -0.273593
     73 C                    -0.270934
     74 C                    -0.214660
     75 C                    -0.236123
     76 C                    -0.214472
     77 H                     0.233642
     78 H                     0.232815
     79 H                     0.245038
     80 H                     0.244055
     81 H                     0.238778
     82 H                     0.244692
     83 H                     0.238746
     84 H                     0.244974
     85 H                     0.245357
     86 H                     0.240555
     87 H                     0.217695
     88 H                     0.217111
     89 H                     0.219884
     90 H                     0.245540
     91 H                     0.240465
     92 H                     0.216919
     93 H                     0.216535
     94 H                     0.219400
     95 H                     0.232170
     96 H                     0.232003
     97 H                     0.233262
     98 H                     0.230062
     99 H                     0.218676
    100 H                     0.227029
    101 H                     0.221331
    102 H                     0.221166
    103 H                     0.227239
    104 H                     0.220020
    105 H                     0.226988
    106 H                     0.219459
    107 H                     0.221410
    108 H                     0.218776
    109 H                     0.227117
    110 H                     0.221111
    111 H                     0.236024
    112 H                     0.234748
    113 H                     0.238396
    114 H                     0.245360
    115 H                     0.243003
    116 H                     0.243901
    117 H                     0.238329
    118 H                     0.243623
    119 H                     0.238190
    120 H                     0.245650
    121 H                     0.220094
    122 H                     0.217480
    123 H                     0.218726
    124 H                     0.240500
    125 H                     0.244535
    126 H                     0.220659
    127 H                     0.218187
    128 H                     0.218574
  ----------------------------------------
  Sum of atomic charges =    -0.000000

                    Cartesian Multipole Moments
 -----------------------------------------------------------------
    Charge (ESU x 10^10)
                -0.0000
    Dipole Moment (Debye)
         X      -0.3437      Y      -0.1560      Z      -0.3863
       Tot       0.5401
    Quadrupole Moments (Debye-Ang)
        XX    -421.5239     XY     -12.0965     YY    -378.2814
        XZ      19.9185     YZ      -9.0705     ZZ    -407.8692

 Total job time:  3507.93s(wall), 25058.76s(cpu)
        *  Thank you very much for using Q-Chem.  Have a nice day.  *
