 Q-Chem 5.1, Q-Chem, Inc., Pleasanton, CA (2018)
 Q-Chem 5.1.1 for Intel X86 EM64T Linux

User input:
--------------------------------------------------------------
$rem
threads 8
jobtype	opt
method PBEh-3c
basis def2-mSVP
mem_static	1024
mem_total	14000
sym_ignore	true
cis_n_roots             4
cis_singlets            false
cis_triplets		true
rpa                     false
cis_state_deriv         1
state_follow		true
$end

$molecule
read tCTpreopt.mol
$end

--------------------------------------------------------------

   15   -2927.8620256832      7.50e-09  Convergence criterion met
 Total energy in the final basis set =    -2927.8620256832
    9   -2927.8620373322      4.99e-09  Convergence criterion met
 Total energy in the final basis set =    -2927.8620373322
    9   -2927.8620008397      4.79e-09  Convergence criterion met
 Total energy in the final basis set =    -2927.8620008397
    9   -2927.8619572693      6.63e-09  Convergence criterion met
 Total energy in the final basis set =    -2927.8619572693
    9   -2927.8620101163      4.87e-09  Convergence criterion met
 Total energy in the final basis set =    -2927.8620101163
    8   -2927.8620300288      7.93e-09  Convergence criterion met
 Total energy in the final basis set =    -2927.8620300288
    8   -2927.8620102165      5.93e-09  Convergence criterion met
 Total energy in the final basis set =    -2927.8620102165

             Standard Nuclear Orientation (Angstroms)
    I     Atom           X                Y                Z
 ----------------------------------------------------------------
    1      N       0.0808640233    -0.0298554727     0.0300176453
    2      C      -0.0020729744     0.0032329096     1.3968437886
    3      C       1.3156765500     0.1194403284    -0.6324470409
    4      C       2.1966044379     1.1271905535    -0.2447423474
    5      H       1.9318235399     1.7989585425     0.5613854437
    6      C       3.3983187284     1.2763233290    -0.9133952475
    7      H       4.0788017693     2.0619279137    -0.6157314484
    8      C       3.7217263335     0.4359044984    -1.9694772982
    9      H       4.6608123973     0.5588263128    -2.4911066920
   10      C       2.8363097585    -0.5605793753    -2.3580435516
   11      H       3.0872309258    -1.2216293880    -3.1762233902
   12      C       1.6341030357    -0.7233722373    -1.6955216659
   13      H       0.9494017307    -1.5078716309    -1.9903776103
   14      C      -1.0728304116    -0.2498562544    -0.7519701109
   15      C      -1.3162181118     0.5408670648    -1.8726413397
   16      H      -0.6346396454     1.3405657160    -2.1312410804
   17      C      -2.4427330477     0.3065705734    -2.6403141965
   18      H      -2.6375440929     0.9271475319    -3.5041801953
   19      C      -3.3252494032    -0.7101414164    -2.3005371679
   20      H      -4.2043147450    -0.8882833760    -2.9046012005
   21      C      -3.0761753076    -1.4993887569    -1.1869016184
   22      H      -3.7536919350    -2.3002862444    -0.9248639096
   23      C      -1.9513965229    -1.2773522121    -0.4127390836
   24      H      -1.7450281517    -1.9081085822     0.4420946788
   25      C      -1.1900176200     0.4429966357     2.0184248060
   26      H      -2.0065765856     0.8093942086     1.4094592304
   27      C      -1.2901451225     0.4573273423     3.3862543023
   28      C       1.0875117966    -0.4188070133     2.1855099351
   29      H       1.9793222448    -0.7969374218     1.7030136863
   30      C       0.9892546139    -0.4254770250     3.5538522425
   31      C      -0.2061006363     0.0116480862     4.1880668084
   32      C       2.1237093922    -0.9300333939     4.3879844115
   33      H       2.9563844177    -1.2708540441     3.7737248725
   34      H       1.8001660363    -1.7571517653     5.0202763308
   35      H       2.4862946073    -0.1496444092     5.0574866474
   36      C      -2.5343107710     0.9514383031     4.0544581181
   37      H      -3.2740472413     1.2981312593     3.3338936852
   38      H      -2.3068798051     1.7696452584     4.7386938997
   39      H      -2.9850628122     0.1617988792     4.6571363907
   40      B      -0.3186619151    -0.0403197686     5.7566146334
   41      C       0.2567388873     1.0931120075     6.5960290520
   42      C       0.8010004952     2.2428742707     5.9919723330
   43      H       0.7821688535     2.3480310514     4.9110645140
   44      C       1.3700700118     3.2290735440     6.7549678431
   45      C       1.4111904186     3.1094916126     8.1740627676
   46      C       0.8657330975     1.9992023787     8.7814193928
   47      H       0.8939829475     1.8985944255     9.8614752226
   48      C       0.2845539083     0.9687888236     8.0180769754
   49      C       2.1161497893     4.2780877759     8.6956026340
   50      C       2.4939166078     4.7195618328     9.9381005499
   51      H       2.2547613550     4.1648112717    10.8366650891
   52      C       2.4759724439     5.0596760651     7.5765227957
   53      C       3.1959532283     6.2476960036     7.6384179741
   54      C       2.0394224720     4.4661852248     6.3765913690
   55      C       2.3242810035     5.0904680233     5.1887489400
   56      H       2.0127275663     4.6761808981     4.2373949416
   57      C       3.0482025747     6.3023778272     5.2224571919
   58      H       3.2751542207     6.7973823056     4.2865315588
   59      C       3.4772620307     6.8729528397     6.3990033325
   60      H       4.0343034692     7.8015093917     6.3751932054
   61      C       3.2221768087     5.9275058840    10.0333456504
   62      H       3.5206414799     6.2712627343    11.0153622814
   63      C       3.5702370736     6.6777135083     8.9337951619
   64      H       4.1338614043     7.5937497956     9.0600137770
   65      C      -0.9093420536    -1.2868810673     6.4035665696
   66      C      -1.4477472158    -2.3328523401     5.6278549490
   67      H      -1.4711702323    -2.2547953040     4.5450398057
   68      C      -1.9410004490    -3.4618425936     6.2261374564
   69      C      -1.9115297377    -3.6013201528     7.6452575498
   70      C      -1.3914795348    -2.5872376547     8.4182103783
   71      H      -1.3624197768    -2.6839296332     9.4988381719
   72      C      -0.8808521464    -1.4174307004     7.8260964545
   73      C      -2.5200305089    -4.6747317612     5.6582223742
   74      C      -2.7899909002    -5.1253707468     4.3894731125
   75      H      -2.5786550503    -4.5231671316     3.5141947004
   76      C      -2.8186864932    -5.5148159574     6.7472526717
   77      C      -3.3705005752    -6.7878790190     6.6182414211
   78      C      -2.4704947000    -4.9113962748     7.9741823055
   79      C      -2.6947054102    -5.6268010454     9.1252614376
   80      H      -2.4484484776    -5.2275544361    10.1008940120
   81      C      -3.3531112008    -6.4109361129     4.2298445300
   82      H      -3.5640074776    -6.7653538456     3.2285817886
   83      C      -3.6389665846    -7.2273070270     5.2995841210
   84      H      -4.0671020918    -8.2083383401     5.1323135292
   85      C      -3.2577471237    -6.9199364704     9.0256349789
   86      H      -3.4301542662    -7.4766007267     9.9379970204
   87      C      -3.5907944520    -7.4976622977     7.8223947516
   88      H      -4.0178461156    -8.4928173490     7.7969920853
   89      B      -0.2827158331    -0.2960422819     8.6914658668
   90      C      -0.2381171020    -0.4343280408    10.2612967187
   91      C       0.8713121811    -1.0042721220    10.8977024984
   92      C       0.9251134559    -1.0694182092    12.2845286596
   93      H       1.7923930877    -1.4948066443    12.7762973576
   94      C      -0.1309144599    -0.5976280974    13.0523092846
   95      C      -1.2480332630    -0.0625999384    12.4259381842
   96      H      -2.0771930666     0.2917611586    13.0276975374
   97      C      -1.3044873301     0.0283073573    11.0413935093
   98      N      -0.0726688912    -0.6661024946    14.4637785705
   99      C      -0.3135053759     0.4917685701    15.2119645840
  100      C      -0.9870487440     0.4346235221    16.4329418394
  101      H      -1.3261902361    -0.5193604339    16.8150725230
  102      C      -1.2304813978     1.5923755982    17.1520961883
  103      H      -1.7569359002     1.5265126733    18.0956808912
  104      C      -0.8289005196     2.8277464829    16.6655191275
  105      H      -1.0302313852     3.7306515643    17.2261348225
  106      C      -0.1684263962     2.8879367826    15.4471438082
  107      H       0.1545924878     3.8425286469    15.0518858776
  108      C       0.0965909474     1.7354204674    14.7282638808
  109      H       0.6170970166     1.7946190093    13.7813708565
  110      C       0.2172434258    -1.8938896846    15.0699874953
  111      C       1.0209901547    -1.9631211724    16.2085601000
  112      H       1.4252473353    -1.0547655452    16.6359534109
  113      C       1.3100877306    -3.1869965365    16.7880832014
  114      H       1.9367638530    -3.2186412610    17.6702073291
  115      C       0.8261098835    -4.3645565737    16.2374007257
  116      H       1.0628617140    -5.3191835198    16.6877287695
  117      C       0.0378186354    -4.2998234828    15.0977504253
  118      H      -0.3503309386    -5.2080920788    14.6546514620
  119      C      -0.2731707837    -3.0804344900    14.5210739413
  120      H      -0.8940584256    -3.0433440239    13.6352414232
  121      C      -2.5189761176     0.6104549604    10.3727630092
  122      H      -3.2778863259     0.9055560349    11.0972660363
  123      H      -2.9728199929    -0.1064078745     9.6854509245
  124      H      -2.2608817542     1.4914733449     9.7815245621
  125      C       2.0060723589    -1.5423939114    10.0719380450
  126      H       2.8262870267    -1.9008058287    10.6939558525
  127      H       1.6741801146    -2.3747246397     9.4474085857
  128      H       2.4041197764    -0.7825592545     9.3965060244
 ----------------------------------------------------------------

    7   -2927.8620172520      5.71e-09  Convergence criterion met
 Total energy in the final basis set =    -2927.8620172520

         TDDFT/TDA Excitation Energies
 ---------------------------------------------------

 Excited state   1: excitation energy (eV) =    2.0848
 Total energy for state  1:                 -2927.78540397 au
    Multiplicity: Triplet
    Trans. Mom.:  0.0000 X   0.0000 Y   0.0000 Z
    Strength   :     0.0000000000
    D(254) --> V(  1) amplitude =  0.9605

 Excited state   2: excitation energy (eV) =    2.2049
 Total energy for state  2:                 -2927.78098896 au
    Multiplicity: Triplet
    Trans. Mom.:  0.0000 X   0.0000 Y   0.0000 Z
    Strength   :     0.0000000000
    D(246) --> V(  2) amplitude = -0.2362
    D(251) --> V(  1) amplitude =  0.4048
    D(252) --> V(  1) amplitude = -0.8204

 Excited state   3: excitation energy (eV) =    2.4352
 Total energy for state  3:                 -2927.77252559 au
    Multiplicity: Triplet
    Trans. Mom.:  0.0000 X   0.0000 Y   0.0000 Z
    Strength   :     0.0000000000
    D(250) --> V(  2) amplitude = -0.4842
    D(251) --> V(  1) amplitude = -0.7195
    D(252) --> V(  1) amplitude = -0.3451

 Excited state   4: excitation energy (eV) =    2.4528
 Total energy for state  4:                 -2927.77187779 au
    Multiplicity: Triplet
    Trans. Mom.:  0.0000 X   0.0000 Y   0.0000 Z
    Strength   :     0.0000000000
    D(253) --> V(  1) amplitude =  0.9660

 ---------------------------------------------------

 Final energy is   -2927.78540397239
 **  OPTIMIZATION CONVERGED  **

                    Orbital Energies (a.u.)
 --------------------------------------------------------------

 Alpha MOs
 -- Occupied --
-14.668 -14.666 -10.490 -10.489 -10.487 -10.487 -10.482 -10.480
-10.466 -10.466 -10.466 -10.466 -10.465 -10.465 -10.465 -10.464
-10.463 -10.463 -10.463 -10.463 -10.463 -10.463 -10.462 -10.462
-10.461 -10.461 -10.461 -10.461 -10.460 -10.460 -10.454 -10.454
-10.453 -10.453 -10.452 -10.452 -10.450 -10.449 -10.449 -10.448
-10.448 -10.448 -10.447 -10.447 -10.447 -10.447 -10.446 -10.445
-10.445 -10.445 -10.445 -10.444 -10.444 -10.444 -10.440 -10.440
-10.440 -10.440 -10.439 -10.438 -10.435 -10.435 -10.435 -10.434
-10.433 -10.432 -10.428 -10.428 -10.427 -10.427 -10.424 -10.422
-10.421 -10.413  -6.946  -6.938  -1.084  -1.077  -1.016  -1.016
 -0.962  -0.962  -0.959  -0.958  -0.956  -0.956  -0.937  -0.936
 -0.934  -0.934  -0.908  -0.899  -0.872  -0.871  -0.862  -0.856
 -0.855  -0.852  -0.850  -0.848  -0.847  -0.847  -0.840  -0.839
 -0.834  -0.833  -0.823  -0.814  -0.812  -0.804  -0.798  -0.797
 -0.767  -0.763  -0.761  -0.760  -0.736  -0.731  -0.728  -0.721
 -0.709  -0.706  -0.703  -0.701  -0.690  -0.684  -0.682  -0.680
 -0.677  -0.675  -0.667  -0.667  -0.648  -0.646  -0.643  -0.638
 -0.637  -0.636  -0.604  -0.604  -0.597  -0.594  -0.594  -0.590
 -0.585  -0.584  -0.584  -0.577  -0.577  -0.562  -0.560  -0.551
 -0.549  -0.545  -0.543  -0.540  -0.538  -0.536  -0.528  -0.525
 -0.522  -0.517  -0.516  -0.512  -0.508  -0.507  -0.504  -0.500
 -0.498  -0.495  -0.494  -0.493  -0.493  -0.490  -0.488  -0.485
 -0.485  -0.484  -0.484  -0.482  -0.481  -0.480  -0.478  -0.475
 -0.471  -0.470  -0.468  -0.467  -0.465  -0.463  -0.461  -0.460
 -0.459  -0.456  -0.445  -0.443  -0.441  -0.440  -0.438  -0.436
 -0.431  -0.427  -0.426  -0.423  -0.423  -0.422  -0.421  -0.421
 -0.418  -0.414  -0.410  -0.409  -0.406  -0.401  -0.400  -0.400
 -0.399  -0.398  -0.396  -0.396  -0.395  -0.394  -0.392  -0.391
 -0.385  -0.379  -0.378  -0.367  -0.358  -0.357  -0.352  -0.350
 -0.345  -0.335  -0.320  -0.314  -0.306  -0.299  -0.298  -0.296
 -0.296  -0.295  -0.295  -0.291  -0.282  -0.281  -0.280  -0.274
 -0.273  -0.262  -0.255  -0.255  -0.218  -0.211

          Ground-State Mulliken Net Atomic Charges

     Atom                 Charge (a.u.)
  ----------------------------------------
      1 N                    -0.658924
      2 C                     0.321722
      3 C                     0.273282
      4 C                    -0.263242
      5 H                     0.245649
      6 C                    -0.216819
      7 H                     0.220342
      8 C                    -0.235437
      9 H                     0.217958
     10 C                    -0.215726
     11 H                     0.221387
     12 C                    -0.270749
     13 H                     0.245223
     14 C                     0.259052
     15 C                    -0.264320
     16 H                     0.244047
     17 C                    -0.216934
     18 H                     0.221943
     19 C                    -0.233971
     20 H                     0.218594
     21 C                    -0.216589
     22 H                     0.219736
     23 C                    -0.256487
     24 H                     0.243470
     25 C                    -0.381554
     26 H                     0.239420
     27 C                     0.081564
     28 C                    -0.387561
     29 H                     0.240340
     30 C                     0.069822
     31 C                    -0.246877
     32 C                    -0.760620
     33 H                     0.237377
     34 H                     0.245453
     35 H                     0.246287
     36 C                    -0.756431
     37 H                     0.236712
     38 H                     0.242044
     39 H                     0.243262
     40 B                     0.675268
     41 C                    -0.148411
     42 C                    -0.387158
     43 H                     0.231981
     44 C                     0.094085
     45 C                     0.115685
     46 C                    -0.394966
     47 H                     0.229084
     48 C                    -0.148755
     49 C                     0.195339
     50 C                    -0.380615
     51 H                     0.217934
     52 C                    -0.065717
     53 C                     0.253084
     54 C                     0.198018
     55 C                    -0.375474
     56 H                     0.219092
     57 C                    -0.204990
     58 H                     0.226656
     59 C                    -0.332611
     60 H                     0.220910
     61 C                    -0.203060
     62 H                     0.226606
     63 C                    -0.335428
     64 H                     0.221339
     65 C                    -0.145070
     66 C                    -0.384054
     67 H                     0.231634
     68 C                     0.095915
     69 C                     0.111438
     70 C                    -0.397035
     71 H                     0.228953
     72 C                    -0.151036
     73 C                     0.200439
     74 C                    -0.375925
     75 H                     0.216869
     76 C                    -0.066295
     77 C                     0.250768
     78 C                     0.198001
     79 C                    -0.382499
     80 H                     0.217949
     81 C                    -0.204137
     82 H                     0.226404
     83 C                    -0.331860
     84 H                     0.221083
     85 C                    -0.202146
     86 H                     0.226443
     87 C                    -0.334353
     88 H                     0.221475
     89 B                     0.696390
     90 C                    -0.216878
     91 C                     0.052363
     92 C                    -0.342364
     93 H                     0.229943
     94 C                     0.269068
     95 C                    -0.340691
     96 H                     0.230384
     97 C                     0.056027
     98 N                    -0.674303
     99 C                     0.313137
    100 C                    -0.288932
    101 H                     0.247535
    102 C                    -0.213177
    103 H                     0.218804
    104 C                    -0.240857
    105 H                     0.215632
    106 C                    -0.210610
    107 H                     0.215556
    108 C                    -0.283278
    109 H                     0.239654
    110 C                     0.308558
    111 C                    -0.285683
    112 H                     0.247087
    113 C                    -0.213572
    114 H                     0.219067
    115 C                    -0.240040
    116 H                     0.216021
    117 C                    -0.210923
    118 H                     0.215792
    119 C                    -0.282087
    120 H                     0.240169
    121 C                    -0.760969
    122 H                     0.239381
    123 H                     0.245099
    124 H                     0.245722
    125 C                    -0.759832
    126 H                     0.239260
    127 H                     0.244367
    128 H                     0.245874
  ----------------------------------------
  Sum of atomic charges =    -0.000000

                    Cartesian Multipole Moments
 -----------------------------------------------------------------
    Charge (ESU x 10^10)
                -0.0000
    Dipole Moment (Debye)
         X       0.2197      Y      -0.2062      Z      -1.6093
       Tot       1.6373
    Quadrupole Moments (Debye-Ang)
        XX    -422.9815     XY      28.6135     YY    -384.9621
        XZ       5.6112     YZ       0.1300     ZZ    -426.6096

 Total job time:  32084.00s(wall), 225133.79s(cpu)
        *  Thank you very much for using Q-Chem.  Have a nice day.  *
