 Q-Chem 5.0, Q-Chem, Inc., Pleasanton, CA (2017)
 Q-Chem 5.0.1 for Intel X86 EM64T Linux

User input:
--------------------------------------------------------------
$rem
threads 8
jobtype	sp
method PBEh-3c
basis def2-mSVP
mem_static	1024
mem_total	8000
sym_ignore	true
unrestricted true
scf_convergence	9
solvent_method	pcm
$end

$molecule
read moms1opt_eth.mol
$end

$solvent
dielectric	8.93
$end

$pcm
theory iefpcm
$end
--------------------------------------------------------------

   16   -3799.4523823021      9.75E-10 Convergence criterion met
 Total energy in the final basis set = -3799.45238230
 Total job time:  4608.62s(wall), 18913.92s(cpu)
        *  Thank you very much for using Q-Chem.  Have a nice day.  *
 Q-Chem 5.0, Q-Chem, Inc., Pleasanton, CA (2017)
 Q-Chem 5.0.1 for Intel X86 EM64T Linux

User input:
--------------------------------------------------------------

$rem
threads 8
jobtype opt
method PBEh-3c
basis def2-mSVP
scf_guess	read
mem_static      1024
mem_total       8000
sym_ignore      true
unrestricted true
mom_start       1
scf_algorithm	diis
scf_max_cycles	250
solvent_method	pcm
geom_opt_tol_energy 25
geom_opt_tol_gradient 75
$end

$solvent
dielectric      8.93
$end
$pcm
theory iefpcm
$end

$occupied
1 2 3 4 5 6 7 8 9 10 11 12 13 14 15 16 17 18 19 20 21 22 23 24 25 26 27 28 29 30 31 32 33 34 35 36 37 38 39 40 41 42 43 44 45 46 47 48 49 50 51 52 53 54 55 56 57 58 59 60 61 62 63 64 65 66 67 68 69 70 71 72 73 74 75 76 77 78 79 80 81 82 83 84 85 86 87 88 89 90 91 92 93 94 95 96 97 98 99 100 101 102 103 104 105 106 107 108 109 110 111 112 113 114 115 116 117 118 119 120 121 122 123 124 125 126 127 128 129 130 131 132 133 134 135 136 137 138 139 140 141 142 143 144 145 146 147 148 149 150 151 152 153 154 155 156 157 158 159 160 161 162 163 164 165 166 167 168 169 170 171 172 173 174 175 176 177 178 179 180 181 182 183 184 185 186 187 188 189 190 191 192 193 194 195 196 197 198 199 200 201 202 203 204 205 206 207 208 209 210 211 212 213 214 215 216 217 218 219 220 221 222 223 224 225 226 227 228 229 230 231 232 233 234 235 236 237 238 239 240 241 242 243 244 245 246 247 248 249 250 251 252 253 254 255 256 257 258 259 260 261 262 263 264 265 266 267 268 269 270 271 272 273 274 275  277
1 2 3 4 5 6 7 8 9 10 11 12 13 14 15 16 17 18 19 20 21 22 23 24 25 26 27 28 29 30 31 32 33 34 35 36 37 38 39 40 41 42 43 44 45 46 47 48 49 50 51 52 53 54 55 56 57 58 59 60 61 62 63 64 65 66 67 68 69 70 71 72 73 74 75 76 77 78 79 80 81 82 83 84 85 86 87 88 89 90 91 92 93 94 95 96 97 98 99 100 101 102 103 104 105 106 107 108 109 110 111 112 113 114 115 116 117 118 119 120 121 122 123 124 125 126 127 128 129 130 131 132 133 134 135 136 137 138 139 140 141 142 143 144 145 146 147 148 149 150 151 152 153 154 155 156 157 158 159 160 161 162 163 164 165 166 167 168 169 170 171 172 173 174 175 176 177 178 179 180 181 182 183 184 185 186 187 188 189 190 191 192 193 194 195 196 197 198 199 200 201 202 203 204 205 206 207 208 209 210 211 212 213 214 215 216 217 218 219 220 221 222 223 224 225 226 227 228 229 230 231 232 233 234 235 236 237 238 239 240 241 242 243 244 245 246 247 248 249 250 251 252 253 254 255 256 257 258 259 260 261 262 263 264 265 266 267 268 269 270 271 272 273 274 275 276
$end

$molecule
read
$end

--------------------------------------------------------------

   22   -3799.4000694661      9.24E-09 Convergence criterion met
 Total energy in the final basis set = -3799.40006947
   19   -3799.4525432193      6.06E-09 Convergence criterion met
 Total energy in the final basis set = -3799.45254322
   13   -3799.4525694694      5.13E-09 Convergence criterion met
 Total energy in the final basis set = -3799.45256947
   13   -3799.4543164556      5.08E-09 Convergence criterion met
 Total energy in the final basis set = -3799.45431646
   13   -3799.4564958818      5.50E-09 Convergence criterion met
 Total energy in the final basis set = -3799.45649588
   13   -3799.4575412565      5.38E-09 Convergence criterion met
 Total energy in the final basis set = -3799.45754126
   13   -3799.4581107055      5.24E-09 Convergence criterion met
 Total energy in the final basis set = -3799.45811071
   13   -3799.4580987889      5.15E-09 Convergence criterion met
 Total energy in the final basis set = -3799.45809879
   12   -3799.4582567062      8.62E-09 Convergence criterion met
 Total energy in the final basis set = -3799.45825671
   13   -3799.4585418652      5.00E-09 Convergence criterion met
 Total energy in the final basis set = -3799.45854187
   13   -3799.4591301789      5.08E-09 Convergence criterion met
 Total energy in the final basis set = -3799.45913018
   13   -3799.4384001224      5.45E-09 Convergence criterion met
 Total energy in the final basis set = -3799.43840012
   13   -3799.4591513368      5.65E-09 Convergence criterion met
 Total energy in the final basis set = -3799.45915134

                    Orbital Energies (a.u.)
 --------------------------------------------------------------

 Alpha MOs
 -- Occupied --
-89.604 -89.602 -14.688 -14.685 -10.510 -10.509 -10.507 -10.506
-10.489 -10.489 -10.489 -10.489 -10.486 -10.485 -10.470 -10.470
-10.469 -10.468 -10.468 -10.467 -10.467 -10.467 -10.467 -10.466
-10.465 -10.465 -10.465 -10.464 -10.463 -10.463 -10.463 -10.463
-10.463 -10.462 -10.461 -10.461 -10.460 -10.460 -10.460 -10.460
-10.460 -10.459 -10.459 -10.459 -10.457 -10.457 -10.456 -10.456
-10.452 -10.452 -10.451 -10.451 -10.451 -10.451 -10.451 -10.451
-10.450 -10.450 -10.448 -10.447 -10.447 -10.447 -10.447 -10.446
-10.446 -10.446 -10.443 -10.442 -10.441 -10.440 -10.440 -10.439
-10.434 -10.434 -10.431 -10.431 -10.424 -10.423  -8.244  -8.241
 -6.958  -6.956  -6.135  -6.133  -6.131  -6.129  -6.126  -6.124
 -1.096  -1.093  -1.020  -1.020  -0.979  -0.978  -0.973  -0.972
 -0.967  -0.964  -0.957  -0.955  -0.935  -0.935  -0.914  -0.906
 -0.905  -0.905  -0.891  -0.889  -0.868  -0.864  -0.863  -0.861
 -0.859  -0.857  -0.850  -0.849  -0.848  -0.848  -0.827  -0.823
 -0.823  -0.819  -0.815  -0.811  -0.810  -0.809  -0.775  -0.775
 -0.770  -0.769  -0.739  -0.735  -0.729  -0.724  -0.724  -0.721
 -0.719  -0.714  -0.714  -0.713  -0.691  -0.684  -0.684  -0.683
 -0.682  -0.670  -0.662  -0.654  -0.652  -0.651  -0.645  -0.645
 -0.636  -0.636  -0.625  -0.620  -0.600  -0.598  -0.592  -0.592
 -0.591  -0.590  -0.586  -0.578  -0.576  -0.563  -0.561  -0.559
 -0.554  -0.549  -0.548  -0.546  -0.541  -0.539  -0.531  -0.531
 -0.530  -0.529  -0.527  -0.522  -0.516  -0.513  -0.506  -0.505
 -0.504  -0.502  -0.500  -0.500  -0.499  -0.497  -0.497  -0.496
 -0.493  -0.490  -0.489  -0.488  -0.486  -0.484  -0.484  -0.482
 -0.480  -0.478  -0.478  -0.477  -0.473  -0.471  -0.469  -0.468
 -0.461  -0.457  -0.453  -0.450  -0.449  -0.446  -0.445  -0.442
 -0.441  -0.440  -0.438  -0.436  -0.433  -0.431  -0.430  -0.430
 -0.427  -0.426  -0.423  -0.419  -0.419  -0.416  -0.406  -0.404
 -0.402  -0.400  -0.400  -0.398  -0.398  -0.396  -0.395  -0.394
 -0.393  -0.390  -0.388  -0.386  -0.386  -0.383  -0.382  -0.378
 -0.374  -0.371  -0.365  -0.363  -0.357  -0.355  -0.353  -0.347
 -0.325  -0.319  -0.312  -0.310  -0.309  -0.304  -0.299  -0.298
 -0.288  -0.286  -0.284  -0.284  -0.283  -0.272  -0.270  -0.266
 -0.263  -0.260  -0.229  -0.217

 Beta MOs
 -- Occupied --
-89.604 -89.602 -14.688 -14.685 -10.510 -10.509 -10.507 -10.506
-10.489 -10.489 -10.489 -10.489 -10.486 -10.485 -10.470 -10.470
-10.469 -10.468 -10.468 -10.467 -10.467 -10.467 -10.467 -10.466
-10.465 -10.465 -10.465 -10.464 -10.463 -10.463 -10.463 -10.463
-10.463 -10.462 -10.461 -10.461 -10.460 -10.460 -10.460 -10.460
-10.460 -10.459 -10.459 -10.459 -10.457 -10.457 -10.456 -10.456
-10.452 -10.452 -10.451 -10.451 -10.451 -10.451 -10.451 -10.451
-10.450 -10.450 -10.448 -10.447 -10.447 -10.447 -10.447 -10.446
-10.446 -10.446 -10.443 -10.442 -10.441 -10.440 -10.440 -10.439
-10.434 -10.434 -10.431 -10.431 -10.424 -10.423  -8.244  -8.241
 -6.958  -6.956  -6.135  -6.133  -6.131  -6.129  -6.126  -6.124
 -1.096  -1.093  -1.020  -1.020  -0.979  -0.978  -0.973  -0.972
 -0.967  -0.964  -0.957  -0.955  -0.935  -0.935  -0.914  -0.906
 -0.905  -0.905  -0.891  -0.889  -0.868  -0.864  -0.863  -0.861
 -0.859  -0.857  -0.850  -0.849  -0.848  -0.848  -0.827  -0.823
 -0.823  -0.819  -0.815  -0.811  -0.810  -0.809  -0.775  -0.775
 -0.770  -0.769  -0.739  -0.735  -0.729  -0.724  -0.724  -0.721
 -0.719  -0.714  -0.714  -0.713  -0.691  -0.684  -0.684  -0.683
 -0.682  -0.670  -0.662  -0.654  -0.652  -0.651  -0.645  -0.645
 -0.636  -0.636  -0.625  -0.620  -0.600  -0.598  -0.592  -0.592
 -0.591  -0.590  -0.586  -0.578  -0.576  -0.563  -0.561  -0.559
 -0.554  -0.549  -0.548  -0.546  -0.541  -0.539  -0.531  -0.531
 -0.530  -0.529  -0.527  -0.522  -0.516  -0.513  -0.506  -0.505
 -0.504  -0.502  -0.500  -0.500  -0.499  -0.497  -0.497  -0.496
 -0.493  -0.490  -0.489  -0.488  -0.486  -0.484  -0.484  -0.482
 -0.480  -0.478  -0.478  -0.477  -0.473  -0.471  -0.469  -0.468
 -0.461  -0.457  -0.453  -0.450  -0.449  -0.446  -0.445  -0.442
 -0.441  -0.440  -0.438  -0.436  -0.433  -0.431  -0.430  -0.430
 -0.427  -0.426  -0.423  -0.419  -0.419  -0.416  -0.406  -0.404
 -0.402  -0.400  -0.400  -0.398  -0.398  -0.396  -0.395  -0.394
 -0.393  -0.390  -0.388  -0.386  -0.386  -0.383  -0.382  -0.378
 -0.374  -0.371  -0.365  -0.363  -0.357  -0.355  -0.353  -0.347
 -0.325  -0.319  -0.312  -0.310  -0.309  -0.304  -0.299  -0.298
 -0.288  -0.286  -0.284  -0.284  -0.283  -0.272  -0.270  -0.266
 -0.263  -0.260  -0.229  -0.217

          Ground-State Mulliken Net Atomic Charges

     Atom                 Charge (a.u.)    Spin (a.u.)
  --------------------------------------------------------
      1 S                     0.121687      -0.000000
      2 C                    -0.205737       0.000000
      3 C                    -0.266651      -0.000000
      4 H                     0.260494      -0.000000
      5 C                    -0.261125       0.000000
      6 H                     0.250453      -0.000000
      7 C                    -0.247751      -0.000000
      8 H                     0.252438       0.000000
      9 C                    -0.316414       0.000000
     10 H                     0.274545      -0.000000
     11 C                     0.415491      -0.000000
     12 N                    -0.712913      -0.000000
     13 C                     0.412934       0.000000
     14 C                    -0.311288      -0.000000
     15 H                     0.273872      -0.000000
     16 C                    -0.249913       0.000000
     17 H                     0.251935       0.000000
     18 C                    -0.260472      -0.000000
     19 H                     0.250334      -0.000000
     20 C                    -0.269620      -0.000000
     21 H                     0.260146      -0.000000
     22 C                    -0.197592       0.000000
     23 C                     0.224847       0.000000
     24 C                    -0.317959      -0.000000
     25 H                     0.245691      -0.000000
     26 C                    -0.342593       0.000000
     27 H                     0.259247       0.000000
     28 C                     0.028716      -0.000000
     29 C                     0.058769      -0.000000
     30 C                    -0.208145       0.000000
     31 C                    -0.776968      -0.000000
     32 H                     0.258679      -0.000000
     33 H                     0.253295       0.000000
     34 H                     0.252440       0.000000
     35 C                    -0.550222      -0.000000
     36 H                     0.253658       0.000000
     37 H                     0.247828       0.000000
     38 C                    -0.655041       0.000000
     39 H                     0.233185       0.000000
     40 H                     0.231363      -0.000000
     41 H                     0.225279      -0.000000
     42 B                     0.693571      -0.000000
     43 C                    -0.153154      -0.000000
     44 C                    -0.398710      -0.000000
     45 H                     0.250880       0.000000
     46 C                     0.086981       0.000000
     47 C                     0.075801       0.000000
     48 C                    -0.389333      -0.000000
     49 H                     0.246226       0.000000
     50 C                    -0.155942      -0.000000
     51 C                     0.174939      -0.000000
     52 C                    -0.391903       0.000000
     53 H                     0.253416      -0.000000
     54 C                    -0.064589       0.000000
     55 C                     0.219372      -0.000000
     56 C                     0.173826      -0.000000
     57 C                    -0.385570       0.000000
     58 H                     0.251053      -0.000000
     59 C                    -0.232647      -0.000000
     60 H                     0.258645       0.000000
     61 C                    -0.347396       0.000000
     62 H                     0.255831      -0.000000
     63 C                    -0.233744      -0.000000
     64 H                     0.258433       0.000000
     65 C                    -0.345395       0.000000
     66 H                     0.255742      -0.000000
     67 B                     0.682445      -0.000000
     68 C                    -0.143686      -0.000000
     69 C                    -0.395170      -0.000000
     70 H                     0.252766       0.000000
     71 C                     0.074391       0.000000
     72 C                     0.085684       0.000000
     73 C                    -0.395435      -0.000000
     74 H                     0.244550       0.000000
     75 C                    -0.159906      -0.000000
     76 C                     0.180275      -0.000000
     77 C                    -0.393114       0.000000
     78 H                     0.252318      -0.000000
     79 C                    -0.065425       0.000000
     80 C                     0.218385      -0.000000
     81 C                     0.180374      -0.000000
     82 C                    -0.391337       0.000000
     83 H                     0.250124      -0.000000
     84 C                    -0.232418      -0.000000
     85 H                     0.258683       0.000000
     86 C                    -0.346323       0.000000
     87 H                     0.256227      -0.000000
     88 C                    -0.232630      -0.000000
     89 H                     0.258342       0.000000
     90 C                    -0.345224       0.000000
     91 H                     0.256160      -0.000000
     92 C                    -0.214822       0.000000
     93 C                     0.049904       0.000000
     94 C                    -0.310255      -0.000000
     95 H                     0.247488      -0.000000
     96 C                     0.175107       0.000000
     97 C                    -0.308736      -0.000000
     98 H                     0.252726      -0.000000
     99 C                     0.041984       0.000000
    100 N                    -0.717233       0.000000
    101 C                     0.437673      -0.000000
    102 C                     0.437313       0.000000
    103 C                    -0.210428      -0.000000
    104 C                    -0.264037       0.000000
    105 H                     0.259593      -0.000000
    106 C                    -0.264034      -0.000000
    107 H                     0.249701      -0.000000
    108 C                    -0.247093       0.000000
    109 H                     0.248975      -0.000000
    110 C                    -0.327247       0.000000
    111 H                     0.276003      -0.000000
    112 C                    -0.211875      -0.000000
    113 C                    -0.263582       0.000000
    114 H                     0.259850      -0.000000
    115 C                    -0.263248       0.000000
    116 H                     0.250000       0.000000
    117 C                    -0.246802      -0.000000
    118 H                     0.249961      -0.000000
    119 C                    -0.329186       0.000000
    120 H                     0.275334       0.000000
    121 C                    -0.770347      -0.000000
    122 H                     0.256769      -0.000000
    123 H                     0.251334       0.000000
    124 H                     0.251388       0.000000
    125 C                    -0.560320      -0.000000
    126 H                     0.258952       0.000000
    127 H                     0.250486       0.000000
    128 C                    -0.657991      -0.000000
    129 H                     0.236678       0.000000
    130 H                     0.231069       0.000000
    131 H                     0.226242       0.000000
    132 S                     0.139393      -0.000000
  --------------------------------------------------------
  Sum of atomic charges =    -0.000000

                    Cartesian Multipole Moments
 -----------------------------------------------------------------
    Charge (ESU x 10^10)
                -0.0000
    Dipole Moment (Debye)
         X       0.0719      Y      -1.4109      Z      -1.0466
       Tot       1.7582
    Quadrupole Moments (Debye-Ang)
        XX    -476.0721     XY      -9.9951     YY    -455.0081
        XZ      68.6509     YZ     -34.3616     ZZ    -444.5230

             Standard Nuclear Orientation (Angstroms)
    I     Atom           X                Y                Z
 ----------------------------------------------------------------
    1      S       0.0665770595     0.4840982220     0.3871599941
    2      C       0.0040026875     0.5069675196     2.1472269096
    3      C       1.1892965370     0.5394032264     2.8660654522
    4      H       2.1254716772     0.6656163886     2.3365586309
    5      C       1.1786175226     0.3801589912     4.2434147343
    6      H       2.1070161559     0.3854302045     4.7979294619
    7      C      -0.0339929224     0.2067152886     4.8903239807
    8      H      -0.0650571178     0.0720205041     5.9635216703
    9      C      -1.2261403785     0.2167143595     4.1806529808
   10      H      -2.1543772183     0.0879306493     4.7179748191
   11      C      -1.2296087968     0.3721187007     2.7938232068
   12      N      -2.4163101573     0.3845491751     2.0436893556
   13      C      -2.5337007494     1.1527782594     0.8766213130
   14      C      -3.7473071688     1.7298016445     0.4997679037
   15      H      -4.6275257311     1.5950316468     1.1121824863
   16      C      -3.8501989080     2.4651499184    -0.6720053466
   17      H      -4.8088315668     2.8867436196    -0.9450397486
   18      C      -2.7422465474     2.6697406913    -1.4783777336
   19      H      -2.8190522087     3.2488835829    -2.3886457259
   20      C      -1.5264994379     2.1147664907    -1.1068821629
   21      H      -0.6494122644     2.2580178800    -1.7257425119
   22      C      -1.4290203606     1.3446327118     0.0425144928
   23      C      -3.6207262214    -0.0913696607     2.6400083743
   24      C      -4.0869630878    -1.3419203349     2.2824576038
   25      H      -3.5279267820    -1.9302077270     1.5630296882
   26      C      -4.3382152336     0.6862840218     3.5428928408
   27      H      -3.9801044165     1.6768607603     3.7999664813
   28      C      -5.5073833866     0.2015852317     4.1110142756
   29      C      -5.2652242240    -1.8427274906     2.8339890900
   30      C      -5.9721695485    -1.0774051845     3.7639261126
   31      C      -6.2811447819     1.0412799807     5.0886041701
   32      H      -5.7873382905     1.9929009517     5.2814959604
   33      H      -6.3993786537     0.5313558135     6.0473317364
   34      H      -7.2851235100     1.2609160878     4.7176989001
   35      C      -5.7291579456    -3.2214134345     2.4333444967
   36      H      -6.7894048101    -3.3511360094     2.6685636973
   37      H      -5.6535027189    -3.3253816633     1.3477108437
   38      C      -4.9264896781    -4.3372471232     3.0987018276
   39      H      -5.0283756421    -4.3050011100     4.1835090231
   40      H      -5.2709154825    -5.3151082003     2.7609888574
   41      H      -3.8651959674    -4.2569630147     2.8605484643
   42      B      -7.2732287852    -1.6199480298     4.4591604605
   43      C      -7.1637718790    -2.3539210106     5.8285007314
   44      C      -5.9125279222    -2.7230161605     6.3373854542
   45      H      -5.0077651483    -2.4315463024     5.8159991718
   46      C      -5.8329738953    -3.5102299137     7.4755958842
   47      C      -7.0115247767    -3.8926140893     8.1531720825
   48      C      -8.2489563936    -3.4748098393     7.6984593195
   49      H      -9.1491946995    -3.7657425690     8.2293888985
   50      C      -8.3411915892    -2.7273670478     6.5236818890
   51      C      -4.7008910587    -4.1708541135     8.1286722142
   52      C      -3.3530869626    -4.2493184080     7.8955535873
   53      H      -2.8763287604    -3.6954685489     7.0961752558
   54      C      -5.2480568914    -4.9386394169     9.1754718552
   55      C      -4.5157303357    -5.7983085046     9.9865588895
   56      C      -6.6469316058    -4.7982206085     9.2384521195
   57      C      -7.3465299601    -5.5320765769    10.1604583090
   58      H      -8.4254748202    -5.4739324217    10.2404217565
   59      C      -2.5761512520    -5.1000126017     8.7194088152
   60      H      -1.5122342529    -5.1648739128     8.5330424238
   61      C      -3.1239109324    -5.8558635086     9.7317090112
   62      H      -2.4906162441    -6.5047352359    10.3240387158
   63      C      -6.6257288441    -6.4015587784    11.0126660576
   64      H      -7.1748921967    -6.9853755675    11.7398392395
   65      C      -5.2577306141    -6.5418384990    10.9380528145
   66      H      -4.7507277088    -7.2333507330    11.5997290746
   67      B      -9.7340076326    -2.3632001001     5.9436626337
   68      C      -9.8382730510    -1.7794125127     4.5116768960
   69      C     -11.0913833560    -1.6453729573     3.9117465828
   70      H     -11.9897506225    -1.8989971456     4.4641453352
   71      C     -11.1849549405    -1.2139648605     2.6027986540
   72      C     -10.0185782849    -0.8737275965     1.8780133603
   73      C      -8.7741117166    -0.9649976353     2.4780380899
   74      H      -7.8836855885    -0.6948802035     1.9215318979
   75      C      -8.6676837802    -1.4349552417     3.7922528090
   76      C     -10.4225622885    -0.4975174406     0.5205563355
   77      C      -9.7720708224    -0.1089491272    -0.6238112317
   78      H      -8.6958846255     0.0047242351    -0.6612085833
   79      C     -11.8237629613    -0.6300685843     0.4795402927
   80      C     -12.6026477766    -0.3981155632    -0.6520465363
   81      C     -12.3393760051    -1.0569261422     1.7168148544
   82      C     -13.6931473721    -1.2528568792     1.8310468373
   83      H     -14.1486615701    -1.5862210117     2.7557011918
   84      C     -10.5387380117     0.1397843723    -1.7894854156
   85      H     -10.0225099734     0.4436229529    -2.6908882821
   86      C     -11.9078482809     0.0037082256    -1.8183787992
   87      H     -12.4529523954     0.1991600322    -2.7340756383
   88      C     -14.5108288145    -1.0165785632     0.6995388072
   89      H     -15.5779589388    -1.1721671057     0.7921364886
   90      C     -13.9970404679    -0.6045099456    -0.5089963587
   91      H     -14.6587332904    -0.4419912789    -1.3513104472
   92      C     -11.0452779812    -2.6164333215     6.7710720123
   93      C     -11.5352744097    -1.6226535913     7.6187024261
   94      C     -12.7059631816    -1.8426287004     8.3425603535
   95      H     -13.0926440736    -1.0772993296     9.0065934664
   96      C     -13.3958542456    -3.0294694140     8.1982027540
   97      C     -12.9150850319    -4.0227218523     7.3560240778
   98      H     -13.4686950117    -4.9501579620     7.2564260880
   99      C     -11.7408778893    -3.8299184926     6.6430892508
  100      N     -14.6302772353    -3.2152817877     8.8883148119
  101      C     -15.7940471124    -2.8744010536     8.1968380012
  102      C     -14.6176660072    -3.9615591294    10.0727889802
  103      C     -17.0564876426    -2.9223887579     8.7988352499
  104      C     -18.2026239121    -2.6118890706     8.0809459447
  105      H     -19.1657381878    -2.6713460762     8.5739205753
  106      C     -18.1289688080    -2.2159133822     6.7545316316
  107      H     -19.0294134687    -1.9660323321     6.2102773160
  108      C     -16.8839384854    -2.1492526941     6.1512919211
  109      H     -16.7901787507    -1.8446912793     5.1171006177
  110      C     -15.7377923779    -2.4816862940     6.8575040437
  111      H     -14.7870294356    -2.4253185260     6.3462872729
  112      C     -15.7671534247    -4.1246910884    10.8564438991
  113      C     -15.7424767396    -4.9067848976    12.0025269308
  114      H     -16.6522544983    -5.0255803701    12.5788922410
  115      C     -14.5727038066    -5.5194375181    12.4223664557
  116      H     -14.5657530971    -6.1172844160    13.3234576209
  117      C     -13.4234167239    -5.3450846559    11.6701801199
  118      H     -12.4932581284    -5.8062095804    11.9748645054
  119      C     -13.4462619517    -4.5852282551    10.5108358467
  120      H     -12.5330084220    -4.4791493489     9.9446479526
  121      C     -11.2354234101    -4.9036196799     5.7204953357
  122      H     -11.8378968576    -5.8086476104     5.7901181819
  123      H     -11.2585600019    -4.5748015601     4.6787047796
  124      H     -10.2022246366    -5.1766782598     5.9440677950
  125      C     -10.8578450227    -0.2821004787     7.7129867117
  126      H      -9.8119481737    -0.3534283770     7.4012182162
  127      H     -10.8335532445     0.0475040085     8.7547891497
  128      C     -11.5688305175     0.7689355030     6.8633619362
  129      H     -11.5845798595     0.4771633941     5.8115961093
  130      H     -11.0686586124     1.7351053471     6.9355436631
  131      H     -12.6017325729     0.9014151940     7.1866504541
  132      S     -17.2603320750    -3.2633957812    10.5100593691
 ----------------------------------------------------------------
