 Q-Chem 5.0, Q-Chem, Inc., Pleasanton, CA (2017)
 Q-Chem 5.0.1 for Intel X86 EM64T Linux

User input:
--------------------------------------------------------------
$rem
threads 8
jobtype	sp
method PBEh-3c
basis def2-mSVP
mem_static	1024
mem_total	8000
sym_ignore	true
unrestricted true
scf_convergence	9
solvent_method	pcm
$end

$molecule
read incoords.mol
$end

$solvent
dielectric	1.0001
$end

$pcm
theory iefpcm
$end
--------------------------------------------------------------

   20   -3799.4125745794      7.82E-10 Convergence criterion met
 Total energy in the final basis set = -3799.41257458
 Total job time:  5556.45s(wall), 16845.17s(cpu)
        *  Thank you very much for using Q-Chem.  Have a nice day.  *
 Q-Chem 5.0, Q-Chem, Inc., Pleasanton, CA (2017)
 Q-Chem 5.0.1 for Intel X86 EM64T Linux

User input:
--------------------------------------------------------------

$rem
threads 8
jobtype opt
method PBEh-3c
basis def2-mSVP
scf_guess	read
mem_static      1024
mem_total       8000
sym_ignore      true
unrestricted true
mom_start       1
scf_algorithm	diis
scf_max_cycles	250
solvent_method	pcm
geom_opt_tol_energy 25
geom_opt_tol_gradient 75
$end

$solvent
dielectric      1.0001
$end

$pcm
theory iefpcm
$end

$occupied
1 2 3 4 5 6 7 8 9 10 11 12 13 14 15 16 17 18 19 20 21 22 23 24 25 26 27 28 29 30 31 32 33 34 35 36 37 38 39 40 41 42 43 44 45 46 47 48 49 50 51 52 53 54 55 56 57 58 59 60 61 62 63 64 65 66 67 68 69 70 71 72 73 74 75 76 77 78 79 80 81 82 83 84 85 86 87 88 89 90 91 92 93 94 95 96 97 98 99 100 101 102 103 104 105 106 107 108 109 110 111 112 113 114 115 116 117 118 119 120 121 122 123 124 125 126 127 128 129 130 131 132 133 134 135 136 137 138 139 140 141 142 143 144 145 146 147 148 149 150 151 152 153 154 155 156 157 158 159 160 161 162 163 164 165 166 167 168 169 170 171 172 173 174 175 176 177 178 179 180 181 182 183 184 185 186 187 188 189 190 191 192 193 194 195 196 197 198 199 200 201 202 203 204 205 206 207 208 209 210 211 212 213 214 215 216 217 218 219 220 221 222 223 224 225 226 227 228 229 230 231 232 233 234 235 236 237 238 239 240 241 242 243 244 245 246 247 248 249 250 251 252 253 254 255 256 257 258 259 260 261 262 263 264 265 266 267 268 269 270 271 272 273 274 275  277
1 2 3 4 5 6 7 8 9 10 11 12 13 14 15 16 17 18 19 20 21 22 23 24 25 26 27 28 29 30 31 32 33 34 35 36 37 38 39 40 41 42 43 44 45 46 47 48 49 50 51 52 53 54 55 56 57 58 59 60 61 62 63 64 65 66 67 68 69 70 71 72 73 74 75 76 77 78 79 80 81 82 83 84 85 86 87 88 89 90 91 92 93 94 95 96 97 98 99 100 101 102 103 104 105 106 107 108 109 110 111 112 113 114 115 116 117 118 119 120 121 122 123 124 125 126 127 128 129 130 131 132 133 134 135 136 137 138 139 140 141 142 143 144 145 146 147 148 149 150 151 152 153 154 155 156 157 158 159 160 161 162 163 164 165 166 167 168 169 170 171 172 173 174 175 176 177 178 179 180 181 182 183 184 185 186 187 188 189 190 191 192 193 194 195 196 197 198 199 200 201 202 203 204 205 206 207 208 209 210 211 212 213 214 215 216 217 218 219 220 221 222 223 224 225 226 227 228 229 230 231 232 233 234 235 236 237 238 239 240 241 242 243 244 245 246 247 248 249 250 251 252 253 254 255 256 257 258 259 260 261 262 263 264 265 266 267 268 269 270 271 272 273 274 275 276
$end

$molecule
read
$end

--------------------------------------------------------------

   20   -3799.3358173812      8.65E-09 Convergence criterion met
 Total energy in the final basis set = -3799.33581738
   15   -3799.3360735092      7.64E-09 Convergence criterion met
 Total energy in the final basis set = -3799.33607351
   16   -3799.3360305799      8.91E-09 Convergence criterion met
 Total energy in the final basis set = -3799.33603058
   16   -3799.3363918537      8.39E-09 Convergence criterion met
 Total energy in the final basis set = -3799.33639185
   16   -3799.3369927066      7.48E-09 Convergence criterion met
 Total energy in the final basis set = -3799.33699271
   20   -3799.3391446508      8.58E-09 Convergence criterion met
 Total energy in the final basis set = -3799.33914465
   61   -3799.3229992036      5.78E-09 Convergence criterion met
 Total energy in the final basis set = -3799.32299920
   32   -3799.3255972421      6.02E-09 Convergence criterion met
 Total energy in the final basis set = -3799.32559724
   27   -3799.3304138057      8.23E-09 Convergence criterion met
 Total energy in the final basis set = -3799.33041381

                    Orbital Energies (a.u.)
 --------------------------------------------------------------

 Alpha MOs
 -- Occupied --
-89.711 -89.573 -14.806 -14.658 -10.598 -10.598 -10.581 -10.581
-10.537 -10.536 -10.531 -10.530 -10.529 -10.528 -10.528 -10.527
-10.527 -10.480 -10.480 -10.477 -10.477 -10.475 -10.470 -10.460
-10.460 -10.454 -10.439 -10.439 -10.439 -10.439 -10.438 -10.438
-10.437 -10.437 -10.437 -10.435 -10.434 -10.434 -10.434 -10.433
-10.433 -10.433 -10.433 -10.432 -10.432 -10.431 -10.431 -10.430
-10.430 -10.425 -10.424 -10.424 -10.422 -10.422 -10.422 -10.421
-10.421 -10.421 -10.421 -10.421 -10.421 -10.420 -10.420 -10.419
-10.419 -10.418 -10.415 -10.414 -10.414 -10.413 -10.406 -10.398
-10.394 -10.392 -10.391 -10.391 -10.388 -10.388  -8.350  -8.214
 -6.886  -6.883  -6.241  -6.237  -6.231  -6.105  -6.101  -6.096
 -1.188  -1.070  -1.057  -1.055  -0.995  -0.986  -0.985  -0.984
 -0.949  -0.947  -0.945  -0.930  -0.927  -0.925  -0.923  -0.911
 -0.907  -0.906  -0.901  -0.888  -0.879  -0.872  -0.865  -0.856
 -0.847  -0.838  -0.831  -0.826  -0.823  -0.821  -0.821  -0.821
 -0.820  -0.806  -0.795  -0.792  -0.788  -0.786  -0.781  -0.778
 -0.776  -0.768  -0.762  -0.744  -0.738  -0.725  -0.716  -0.711
 -0.709  -0.703  -0.701  -0.700  -0.695  -0.693  -0.689  -0.681
 -0.660  -0.658  -0.657  -0.650  -0.649  -0.641  -0.633  -0.630
 -0.624  -0.617  -0.615  -0.613  -0.613  -0.612  -0.609  -0.602
 -0.600  -0.589  -0.580  -0.578  -0.573  -0.568  -0.567  -0.567
 -0.563  -0.560  -0.555  -0.553  -0.548  -0.546  -0.540  -0.528
 -0.525  -0.523  -0.523  -0.515  -0.514  -0.511  -0.510  -0.507
 -0.506  -0.501  -0.499  -0.498  -0.494  -0.491  -0.486  -0.485
 -0.482  -0.480  -0.477  -0.476  -0.472  -0.472  -0.469  -0.468
 -0.466  -0.464  -0.462  -0.460  -0.460  -0.458  -0.457  -0.455
 -0.454  -0.453  -0.452  -0.451  -0.449  -0.443  -0.440  -0.437
 -0.436  -0.435  -0.433  -0.430  -0.427  -0.420  -0.416  -0.415
 -0.414  -0.411  -0.408  -0.407  -0.403  -0.401  -0.397  -0.396
 -0.394  -0.393  -0.390  -0.386  -0.385  -0.382  -0.377  -0.371
 -0.371  -0.371  -0.370  -0.369  -0.367  -0.363  -0.363  -0.358
 -0.357  -0.351  -0.347  -0.340  -0.339  -0.339  -0.338  -0.333
 -0.317  -0.317  -0.305  -0.302  -0.291  -0.290  -0.284  -0.283
 -0.282  -0.273  -0.271  -0.253  -0.250  -0.246  -0.240  -0.237
 -0.227  -0.221  -0.182  -0.132

 Beta MOs
 -- Occupied --
-89.712 -89.573 -14.816 -14.658 -10.598 -10.597 -10.583 -10.583
-10.536 -10.535 -10.533 -10.532 -10.530 -10.529 -10.527 -10.527
-10.526 -10.480 -10.480 -10.478 -10.477 -10.474 -10.470 -10.460
-10.460 -10.454 -10.440 -10.440 -10.439 -10.438 -10.438 -10.438
-10.437 -10.437 -10.436 -10.435 -10.435 -10.435 -10.434 -10.433
-10.433 -10.432 -10.432 -10.432 -10.431 -10.431 -10.431 -10.430
-10.430 -10.425 -10.424 -10.424 -10.422 -10.422 -10.421 -10.421
-10.421 -10.421 -10.421 -10.420 -10.420 -10.420 -10.419 -10.419
-10.418 -10.418 -10.416 -10.414 -10.414 -10.414 -10.406 -10.398
-10.395 -10.392 -10.391 -10.391 -10.387 -10.387  -8.352  -8.214
 -6.883  -6.881  -6.242  -6.238  -6.237  -6.105  -6.101  -6.096
 -1.203  -1.070  -1.064  -1.059  -0.998  -0.988  -0.984  -0.983
 -0.950  -0.948  -0.945  -0.934  -0.926  -0.924  -0.923  -0.913
 -0.906  -0.905  -0.901  -0.890  -0.879  -0.871  -0.864  -0.855
 -0.854  -0.838  -0.831  -0.827  -0.823  -0.820  -0.820  -0.820
 -0.819  -0.810  -0.795  -0.794  -0.786  -0.785  -0.780  -0.778
 -0.777  -0.767  -0.764  -0.744  -0.738  -0.727  -0.719  -0.713
 -0.710  -0.702  -0.700  -0.698  -0.695  -0.693  -0.689  -0.681
 -0.662  -0.660  -0.657  -0.649  -0.649  -0.641  -0.633  -0.631
 -0.624  -0.620  -0.615  -0.614  -0.613  -0.611  -0.610  -0.609
 -0.600  -0.598  -0.581  -0.579  -0.573  -0.569  -0.567  -0.566
 -0.562  -0.560  -0.559  -0.555  -0.548  -0.545  -0.539  -0.527
 -0.527  -0.525  -0.523  -0.521  -0.514  -0.514  -0.513  -0.507
 -0.506  -0.501  -0.499  -0.498  -0.496  -0.493  -0.490  -0.486
 -0.484  -0.480  -0.479  -0.477  -0.475  -0.472  -0.471  -0.470
 -0.467  -0.466  -0.462  -0.461  -0.460  -0.458  -0.457  -0.454
 -0.453  -0.452  -0.452  -0.451  -0.450  -0.449  -0.443  -0.440
 -0.436  -0.436  -0.433  -0.431  -0.426  -0.420  -0.416  -0.415
 -0.414  -0.411  -0.408  -0.407  -0.403  -0.399  -0.396  -0.394
 -0.393  -0.392  -0.391  -0.389  -0.388  -0.384  -0.381  -0.377
 -0.371  -0.371  -0.368  -0.367  -0.367  -0.363  -0.362  -0.357
 -0.357  -0.355  -0.351  -0.346  -0.339  -0.338  -0.331  -0.331
 -0.316  -0.316  -0.315  -0.305  -0.301  -0.289  -0.284  -0.283
 -0.282  -0.280  -0.269  -0.268  -0.250  -0.246  -0.241  -0.240
 -0.230  -0.224  -0.213  -0.182

          Ground-State Mulliken Net Atomic Charges

     Atom                 Charge (a.u.)    Spin (a.u.)
  --------------------------------------------------------
      1 C                    -0.294623      -0.000934
      2 C                     0.029058       0.003127
      3 C                    -0.177985      -0.024555
      4 C                     0.060808       0.003639
      5 C                    -0.292103      -0.001166
      6 C                     0.150970       0.001036
      7 N                    -0.722141      -0.000052
      8 C                    -0.754890       0.000598
      9 C                    -0.534514       0.002321
     10 C                     0.449974       0.000017
     11 C                    -0.200805       0.000002
     12 C                    -0.313874       0.000008
     13 C                     0.453275       0.000012
     14 C                    -0.220594      -0.000002
     15 C                    -0.237444      -0.000001
     16 C                    -0.243978      -0.000001
     17 C                    -0.203833      -0.000001
     18 C                    -0.314322       0.000010
     19 C                    -0.228630      -0.000008
     20 C                    -0.234981      -0.000001
     21 C                    -0.245213      -0.000006
     22 C                    -0.130435       0.010273
     23 C                    -0.132922       0.062961
     24 B                     0.568009       0.274377
     25 C                    -0.138847       0.063783
     26 C                    -0.122908       0.001173
     27 B                     0.532214       0.346245
     28 C                    -0.393691      -0.058802
     29 C                     0.093888       0.094972
     30 C                     0.080109       0.035061
     31 C                    -0.406144      -0.013106
     32 C                    -0.389122      -0.020601
     33 C                     0.078812       0.042706
     34 C                     0.097978       0.094330
     35 C                    -0.415522      -0.059329
     36 C                    -0.404602       0.087649
     37 C                    -0.203185      -0.054180
     38 C                    -0.348368       0.080494
     39 C                     0.255165      -0.038710
     40 C                    -0.080927       0.023785
     41 C                     0.206505      -0.058216
     42 C                    -0.344899       0.065630
     43 C                    -0.198616      -0.046176
     44 C                    -0.390543       0.069167
     45 C                     0.199754      -0.043098
     46 C                    -0.197467      -0.055898
     47 C                    -0.397067       0.089866
     48 C                     0.197473      -0.058844
     49 C                    -0.081938       0.024829
     50 C                     0.257251      -0.040696
     51 C                    -0.350216       0.082956
     52 C                     0.198172      -0.045995
     53 C                    -0.385565       0.074776
     54 C                    -0.198794      -0.049466
     55 C                    -0.345026       0.071449
     56 C                    -0.284745      -0.014573
     57 C                     0.044503       0.004232
     58 C                    -0.148086      -0.025434
     59 C                     0.027182       0.004745
     60 C                    -0.322032      -0.014715
     61 C                     0.126809       0.026104
     62 N                    -0.626557      -0.356557
     63 C                    -0.542484       0.002722
     64 C                    -0.750510       0.000168
     65 C                     0.435597       0.028749
     66 C                    -0.265298      -0.086292
     67 C                    -0.198724      -0.152804
     68 C                     0.438249       0.031334
     69 C                    -0.233247       0.106581
     70 C                    -0.207760      -0.160708
     71 C                    -0.213444       0.052702
     72 C                    -0.269127      -0.087149
     73 C                    -0.197666      -0.153352
     74 C                    -0.233931       0.107329
     75 C                    -0.206813      -0.162185
     76 C                    -0.216003       0.052468
     77 H                     0.219757       0.000349
     78 H                     0.217272       0.000334
     79 H                     0.251434      -0.001081
     80 H                     0.246433      -0.000529
     81 H                     0.226004       0.001530
     82 H                     0.253217      -0.001435
     83 H                     0.219470       0.000375
     84 C                    -0.652534      -0.000099
     85 H                     0.263088      -0.000004
     86 H                     0.214029       0.000000
     87 H                     0.212025       0.000000
     88 H                     0.221917       0.000000
     89 H                     0.272949      -0.000009
     90 H                     0.218827       0.000053
     91 H                     0.211669      -0.000001
     92 H                     0.221773       0.000001
     93 H                     0.218647       0.002456
     94 H                     0.179300      -0.000314
     95 H                     0.170853       0.000142
     96 H                     0.219168       0.002227
     97 H                     0.220242      -0.005386
     98 H                     0.214239       0.002675
     99 H                     0.207451      -0.004848
    100 H                     0.206951      -0.003911
    101 H                     0.202726       0.002341
    102 H                     0.181621      -0.004222
    103 H                     0.215266       0.002750
    104 H                     0.211045      -0.005346
    105 H                     0.207095      -0.005002
    106 H                     0.174703      -0.004589
    107 H                     0.199199       0.002508
    108 H                     0.206263      -0.004272
    109 H                     0.219716       0.001015
    110 H                     0.228281       0.000980
    111 H                     0.218122       0.000738
    112 H                     0.288480      -0.002316
    113 C                    -0.648116      -0.000333
    114 H                     0.217279       0.002285
    115 H                     0.269856      -0.000799
    116 H                     0.273815      -0.001296
    117 H                     0.324621       0.005071
    118 H                     0.262751      -0.004776
    119 H                     0.263790       0.008822
    120 H                     0.268914      -0.002206
    121 H                     0.319651       0.005097
    122 H                     0.262671      -0.004802
    123 H                     0.264165       0.008892
    124 H                     0.271321      -0.002190
    125 H                     0.193055      -0.000059
    126 H                     0.228564      -0.000023
    127 H                     0.264018      -0.000215
    128 H                     0.208976       0.000001
    129 H                     0.209466      -0.000056
    130 H                     0.258376      -0.000345
    131 S                     0.331161      -0.230946
    132 S                     0.160378      -0.000000
  --------------------------------------------------------
  Sum of atomic charges =    -0.000000

                    Cartesian Multipole Moments
 -----------------------------------------------------------------
    Charge (ESU x 10^10)
                -0.0000
    Dipole Moment (Debye)
         X     -13.6313      Y     -13.4807      Z     -27.0416
       Tot      33.1480
    Quadrupole Moments (Debye-Ang)
        XX    -282.6577     XY     143.6721     YY    -355.3437
        XZ     244.2147     YZ     135.0913     ZZ    -327.1661

             Standard Nuclear Orientation (Angstroms)
    I     Atom           X                Y                Z
 ----------------------------------------------------------------
    1      C      -4.9376003838    -0.2009721888     4.3914283332
    2      C      -5.5498236066    -0.6100907993     3.2113658206
    3      C      -4.8000372988    -0.7060048671     2.0277436836
    4      C      -3.4457863190    -0.3453223928     2.0468990740
    5      C      -2.8495085719     0.0627399800     3.2361238150
    6      C      -3.5902147079     0.1128171765     4.4026526012
    7      N      -2.9474078721     0.4162182561     5.6395690879
    8      C      -6.9969313831    -1.0182211665     3.2374720858
    9      C      -2.6143231248    -0.4036902551     0.7911379500
   10      C      -2.4507614652    -0.6649127542     6.3584912230
   11      C      -1.7672739999    -0.5195972255     7.5712716684
   12      C      -3.4300032537     2.7440937285     5.2191067543
   13      C      -2.8651244790     1.7480173736     6.0208711958
   14      C      -3.3621780791     4.0794982383     5.5705101865
   15      C      -2.7314051871     4.4704026345     6.7392281500
   16      C      -2.1701407483     3.4964780751     7.5472888499
   17      C      -2.2288095002     2.1540147966     7.2014515623
   18      C      -2.6159385975    -1.9653641403     5.8683159820
   19      C      -2.1294196556    -3.0649202138     6.5509051951
   20      C      -1.4548901248    -2.9090188425     7.7494952959
   21      C      -1.2802961138    -1.6293203003     8.2489081610
   22      C      -6.9473974690    -1.2591243968    -1.3365846608
   23      C      -6.3218715686    -0.5812151066    -0.2414999002
   24      B      -5.4713870307    -1.3781119984     0.7579895506
   25      C      -5.3082014751    -2.9001178998     0.5833168893
   26      C      -5.9393379015    -3.5664197914    -0.5138461358
   27      B      -6.7707381736    -2.7674984113    -1.5126124532
   28      C      -4.5661832068    -3.6601364304     1.5048695369
   29      C      -4.4319489070    -5.0211578915     1.3594111361
   30      C      -5.0589690493    -5.6808088008     0.2636730344
   31      C      -5.7885952022    -4.9598282445    -0.6484456908
   32      C      -7.7243571019    -0.5154728900    -2.2427991520
   33      C      -7.8881046307     0.8372511911    -2.0878874728
   34      C      -7.2643320872     1.5210579076    -1.0040884892
   35      C      -6.4977546208     0.8093181044    -0.1077798395
   36      C      -2.9786128217    -6.0308024619     3.2968383228
   37      C      -2.4807449123    -7.2614487635     3.7821390755
   38      C      -2.7316253442    -8.4634349622     3.1621230556
   39      C      -3.5144153547    -8.4975160270     1.9834864360
   40      C      -3.9909136503    -7.2708205718     1.5276326301
   41      C      -3.7478212280    -6.0330486066     2.1590707559
   42      C      -3.8660850360    -9.6324600759     1.2135218074
   43      C      -4.6360861076    -9.4859149856     0.0829093016
   44      C      -5.1042845347    -8.2279084059    -0.3580255401
   45      C      -4.7791123588    -7.1095015234     0.3697760915
   46      C      -7.9067379957     5.2973437970    -0.8287742028
   47      C      -7.3505851402     4.0726086110    -0.3940143422
   48      C      -7.6214556467     2.9332705042    -1.1101925229
   49      C      -8.4485371059     3.0536611064    -2.2485870455
   50      C      -9.0130995416     4.2430349141    -2.6993064418
   51      C      -8.7118149790     5.3991562207    -1.9399165858
   52      C      -8.6401827176     1.8044374353    -2.8722017323
   53      C      -9.4332029916     1.7432500700    -3.9918365706
   54      C     -10.0178922043     2.9354662978    -4.4710400812
   55      C      -9.8227878301     4.1521991208    -3.8577742664
   56      C      -9.3090386041    -4.5040569909    -3.9031627691
   57      C      -8.7534941089    -3.9318495644    -2.7611774544
   58      C      -7.4271886164    -3.4816999075    -2.7690094177
   59      C      -6.6626786983    -3.6313354750    -3.9420518556
   60      C      -7.2246755298    -4.1957230304    -5.0794444278
   61      C      -8.5431270800    -4.6173759610    -5.0438558060
   62      N      -9.1514577799    -5.1531979480    -6.2349483703
   63      C      -9.6045378058    -3.8344178066    -1.5248539910
   64      C      -5.2372848278    -3.1657404865    -3.9807634550
   65      C      -9.7541891119    -4.2583971860    -7.0946932861
   66      C      -9.6154004317    -2.8746478280    -6.8795209010
   67      C      -9.7018167555    -7.1553630239    -7.5173242247
   68      C      -9.0072208103    -6.5010527300    -6.4770353745
   69      C      -9.5197172085    -8.5170580673    -7.7450632253
   70      C      -8.6697441744    -9.2466634600    -6.9447772211
   71      C      -7.9966553422    -8.6160375375    -5.8983940747
   72      C      -8.1583578582    -7.2727586068    -5.6626607337
   73      C     -10.5252729424    -4.6862228274    -8.1986163580
   74      C     -11.1022997051    -3.7582000233    -9.0615273695
   75      C     -10.9386511537    -2.4097852376    -8.8377611685
   76      C     -10.1977188124    -1.9753570119    -7.7384591321
   77      H      -5.5031919344    -0.1660830077     5.3155774274
   78      H      -1.7932958436     0.3066956163     3.2610901865
   79      H      -7.1205002523    -2.0551236170     2.9177078566
   80      H      -7.6007808146    -0.4104737198     2.5626015792
   81      H      -7.4185548634    -0.9262763829     4.2384927485
   82      H      -2.8297705516    -1.3281654174     0.2500468013
   83      H      -1.5550815432    -0.4473988534     1.0582243429
   84      C      -2.8491666110     0.7845388254    -0.1376092496
   85      H      -3.9325928624     2.4721157507     4.3013090009
   86      H      -3.8124485327     4.8152322940     4.9170322173
   87      H      -2.6780051951     5.5130820701     7.0183986535
   88      H      -1.6703041674     3.7724981928     8.4682242580
   89      H      -3.1366551067    -2.1248560589     4.9349075691
   90      H      -2.2861733132    -4.0513866930     6.1327159881
   91      H      -1.0712316848    -3.7659204813     8.2851126012
   92      H      -0.7538548334    -1.4761809678     9.1833845069
   93      H      -4.0962468457    -3.1671385657     2.3495816222
   94      H      -6.2647049803    -5.4747086205    -1.4791694785
   95      H      -8.2062125381    -1.0201238081    -3.0760383741
   96      H      -6.0179845263     1.3219342758     0.7205076141
   97      H      -2.7369105458    -5.1152180876     3.8219605162
   98      H      -1.8748620473    -7.2528916103     4.6792151537
   99      H      -2.3293173216    -9.3812529365     3.5734969442
  100      H      -3.5297228479   -10.6175728905     1.5140009925
  101      H      -4.8951034565   -10.3671155443    -0.4914249046
  102      H      -5.7091601329    -8.1677930820    -1.2551221995
  103      H      -7.6885956477     6.1918117572    -0.2590850899
  104      H      -6.7262918258     4.0522536160     0.4903952341
  105      H      -9.1151439273     6.3613115341    -2.2307467858
  106      H      -9.6207945588     0.8067269774    -4.5045658292
  107      H     -10.6456606453     2.8898832218    -5.3527292153
  108      H     -10.2931339719     5.0407597373    -4.2610228194
  109      H     -10.3390106028    -4.8449493810    -3.9021484461
  110      H      -6.6452759658    -4.2916303729    -5.9918576317
  111      H     -10.6351496026    -3.6041384004    -1.8097838594
  112      H      -9.2610143260    -3.0011546848    -0.9093160831
  113      C      -9.5761375718    -5.1224394168    -0.7061592077
  114      H      -4.7940640093    -3.3035607596    -4.9672955573
  115      H      -4.6302658210    -3.7089723351    -3.2554991142
  116      H      -5.1644247123    -2.1095130845    -3.7175076223
  117      H      -9.0417929034    -2.5160326685    -6.0384339900
  118      H     -10.0490982074    -8.9952771379    -8.5590932102
  119      H      -8.5271206317   -10.3018651003    -7.1314857284
  120      H      -7.3329439042    -9.1838136856    -5.2612222188
  121      H      -7.6257155196    -6.8067155190    -4.8472743270
  122      H     -11.6740278781    -4.1064434351    -9.9120300959
  123      H     -11.3832208376    -1.6946420174    -9.5156137214
  124      H     -10.0684735158    -0.9175303429    -7.5565764019
  125      H      -9.9249260744    -5.9751059553    -1.2923115415
  126      H     -10.2172869847    -5.0375417045     0.1711330813
  127      H      -8.5669560036    -5.3427309248    -0.3598531185
  128      H      -2.2043736492     0.7211947425    -1.0153954313
  129      H      -2.6365114172     1.7288966185     0.3654274288
  130      H      -3.8802089943     0.8180490323    -0.4884645517
  131      S     -10.8852821177    -6.3518165293    -8.4837886129
  132      S      -1.4602580655     1.0371790997     8.3118775355
 ----------------------------------------------------------------
