 Q-Chem 5.0, Q-Chem, Inc., Pleasanton, CA (2017)
 Q-Chem 5.0.1 for Intel X86 EM64T Linux

User input:
--------------------------------------------------------------
$rem
threads 8
jobtype	sp
method PBEh-3c
basis def2-mSVP
mem_static	1024
mem_total	8000
sym_ignore	true
unrestricted true
scf_convergence	9
solvent_method	pcm
$end

$molecule
read incoords.mol
$end

$solvent
dielectric	2.38
$end

$pcm
theory iefpcm
$end
--------------------------------------------------------------

   20   -3799.4310139616      3.61E-10 Convergence criterion met
 Total energy in the final basis set = -3799.43101396
 Total job time:  5769.65s(wall), 17005.10s(cpu)
        *  Thank you very much for using Q-Chem.  Have a nice day.  *
 Q-Chem 5.0, Q-Chem, Inc., Pleasanton, CA (2017)
 Q-Chem 5.0.1 for Intel X86 EM64T Linux

User input:
--------------------------------------------------------------

$rem
threads 8
jobtype opt
method PBEh-3c
basis def2-mSVP
scf_guess	read
mem_static      1024
mem_total       8000
sym_ignore      true
unrestricted true
mom_start       1
scf_algorithm	diis
scf_max_cycles	250
solvent_method	pcm
geom_opt_tol_energy 25
geom_opt_tol_gradient 75
$end

$solvent
dielectric      2.38
$end

$pcm
theory iefpcm
$end

$occupied
1 2 3 4 5 6 7 8 9 10 11 12 13 14 15 16 17 18 19 20 21 22 23 24 25 26 27 28 29 30 31 32 33 34 35 36 37 38 39 40 41 42 43 44 45 46 47 48 49 50 51 52 53 54 55 56 57 58 59 60 61 62 63 64 65 66 67 68 69 70 71 72 73 74 75 76 77 78 79 80 81 82 83 84 85 86 87 88 89 90 91 92 93 94 95 96 97 98 99 100 101 102 103 104 105 106 107 108 109 110 111 112 113 114 115 116 117 118 119 120 121 122 123 124 125 126 127 128 129 130 131 132 133 134 135 136 137 138 139 140 141 142 143 144 145 146 147 148 149 150 151 152 153 154 155 156 157 158 159 160 161 162 163 164 165 166 167 168 169 170 171 172 173 174 175 176 177 178 179 180 181 182 183 184 185 186 187 188 189 190 191 192 193 194 195 196 197 198 199 200 201 202 203 204 205 206 207 208 209 210 211 212 213 214 215 216 217 218 219 220 221 222 223 224 225 226 227 228 229 230 231 232 233 234 235 236 237 238 239 240 241 242 243 244 245 246 247 248 249 250 251 252 253 254 255 256 257 258 259 260 261 262 263 264 265 266 267 268 269 270 271 272 273 274 275  277
1 2 3 4 5 6 7 8 9 10 11 12 13 14 15 16 17 18 19 20 21 22 23 24 25 26 27 28 29 30 31 32 33 34 35 36 37 38 39 40 41 42 43 44 45 46 47 48 49 50 51 52 53 54 55 56 57 58 59 60 61 62 63 64 65 66 67 68 69 70 71 72 73 74 75 76 77 78 79 80 81 82 83 84 85 86 87 88 89 90 91 92 93 94 95 96 97 98 99 100 101 102 103 104 105 106 107 108 109 110 111 112 113 114 115 116 117 118 119 120 121 122 123 124 125 126 127 128 129 130 131 132 133 134 135 136 137 138 139 140 141 142 143 144 145 146 147 148 149 150 151 152 153 154 155 156 157 158 159 160 161 162 163 164 165 166 167 168 169 170 171 172 173 174 175 176 177 178 179 180 181 182 183 184 185 186 187 188 189 190 191 192 193 194 195 196 197 198 199 200 201 202 203 204 205 206 207 208 209 210 211 212 213 214 215 216 217 218 219 220 221 222 223 224 225 226 227 228 229 230 231 232 233 234 235 236 237 238 239 240 241 242 243 244 245 246 247 248 249 250 251 252 253 254 255 256 257 258 259 260 261 262 263 264 265 266 267 268 269 270 271 272 273 274 275 276
$end

$molecule
read
$end

--------------------------------------------------------------

   19   -3799.3683138728      8.10E-09 Convergence criterion met
 Total energy in the final basis set = -3799.36831387
   15   -3799.3686587152      8.85E-09 Convergence criterion met
 Total energy in the final basis set = -3799.36865872
   15   -3799.3686940294      9.92E-09 Convergence criterion met
 Total energy in the final basis set = -3799.36869403
   16   -3799.3691254246      6.99E-09 Convergence criterion met
 Total energy in the final basis set = -3799.36912542
   16   -3799.3698111842      7.55E-09 Convergence criterion met
 Total energy in the final basis set = -3799.36981118
   16   -3799.3706558614      8.45E-09 Convergence criterion met
 Total energy in the final basis set = -3799.37065586
   16   -3799.3712640685      7.68E-09 Convergence criterion met
   15   -3799.3719253436      9.61E-09 Convergence criterion met
 Total energy in the final basis set = -3799.37192534
   15   -3799.3719425403      9.97E-09 Convergence criterion met
 Total energy in the final basis set = -3799.37194254
   16   -3799.3719479860      7.48E-09 Convergence criterion met
 Total energy in the final basis set = -3799.37194799
   16   -3799.3719449812      7.47E-09 Convergence criterion met
 Total energy in the final basis set = -3799.37194498
   16   -3799.3719506410      7.46E-09 Convergence criterion met
 Total energy in the final basis set = -3799.37195064
   16   -3799.3719613699      7.39E-09 Convergence criterion met
 Total energy in the final basis set = -3799.37196137

             Standard Nuclear Orientation (Angstroms)
    I     Atom           X                Y                Z
 ----------------------------------------------------------------
    1      C      -4.9133683200    -0.1102144200     4.4256277850
    2      C      -5.5484468994    -0.5642238617     3.2749633435
    3      C      -4.8141992282    -0.7686067985     2.0948735772
    4      C      -3.4399874170    -0.4818729463     2.0854304391
    5      C      -2.8104380776    -0.0307019246     3.2419249622
    6      C      -3.5541265568     0.1362172589     4.3935362557
    7      N      -2.8850314895     0.5104478291     5.6113358733
    8      C      -7.0164960444    -0.8794704669     3.3133766964
    9      C      -2.6243132110    -0.6629436039     0.8326318096
   10      C      -2.4807880152    -0.5154776722     6.4366072476
   11      C      -1.8078816513    -0.2834463319     7.6516465279
   12      C      -3.1933313979     2.7973698302     4.9321141950
   13      C      -2.7006162223     1.8523076315     5.8526363397
   14      C      -3.0069505016     4.1386389343     5.1449513212
   15      C      -2.3270634734     4.5970575906     6.2782920652
   16      C      -1.8456253612     3.6951836096     7.1952838597
   17      C      -2.0279123345     2.3238741320     6.9960561650
   18      C      -2.7380458349    -1.8522194039     6.0685088497
   19      C      -2.3538986890    -2.8871086392     6.8811974223
   20      C      -1.6949238228    -2.6436792720     8.0907219855
   21      C      -1.4234306009    -1.3515870745     8.4676479141
   22      C      -6.9873813521    -1.2681241769    -1.2540146675
   23      C      -6.3670129968    -0.6137032696    -0.1443849435
   24      B      -5.5244007866    -1.4328911401     0.8385370005
   25      C      -5.3778779332    -2.9487356815     0.6505697922
   26      C      -5.9915386739    -3.5918394279    -0.4695276550
   27      B      -6.8145026628    -2.7789357508    -1.4731865081
   28      C      -4.6467384338    -3.7331935285     1.5698875888
   29      C      -4.5170224474    -5.0883829298     1.3960419515
   30      C      -5.1259279797    -5.7235047853     0.2728042981
   31      C      -5.8412106840    -4.9822969410    -0.6342605632
   32      C      -7.7713429935    -0.5136075908    -2.1454785981
   33      C      -7.9488764360     0.8340723127    -1.9565039918
   34      C      -7.3330798134     1.4956320198    -0.8537355249
   35      C      -6.5578500100     0.7762679273     0.0242271311
   36      C      -3.0861873875    -6.1461841988     3.3280417067
   37      C      -2.5815547621    -7.3860066687     3.7839809370
   38      C      -2.8121169063    -8.5702169479     3.1212013072
   39      C      -3.5796039235    -8.5756432325     1.9317141059
   40      C      -4.0617121029    -7.3399011621     1.5059741344
   41      C      -3.8365357766    -6.1203783532     2.1779413010
   42      C      -3.9111301262    -9.6921019404     1.1242956981
   43      C      -4.6696658356    -9.5178630627    -0.0109675617
   44      C      -5.1450785853    -8.2513819386    -0.4221578521
   45      C      -4.8381739599    -7.1523184585     0.3435744649
   46      C      -8.0395689273     5.2566353356    -0.5590833619
   47      C      -7.4613642324     4.0274323388    -0.1633081590
   48      C      -7.7123781791     2.9086975674    -0.9174912082
   49      C      -8.5407542841     3.0469801050    -2.0516694939
   50      C      -9.1267358388     4.2398446429    -2.4642672811
   51      C      -8.8464143376     5.3766578735    -1.6681211946
   52      C      -8.7146213816     1.8143410456    -2.7132430396
   53      C      -9.5070744130     1.7719890695    -3.8338009441
   54      C     -10.1119330174     2.9707659403    -4.2754828336
   55      C      -9.9373693822     4.1715311491    -3.6251706440
   56      C      -9.3477573234    -4.5217796656    -3.8544103394
   57      C      -8.7817992090    -3.9606436324    -2.7104643885
   58      C      -7.4705407548    -3.4738645357    -2.7380669582
   59      C      -6.7372401032    -3.5795301869    -3.9333501063
   60      C      -7.3161030340    -4.1393637310    -5.0635482461
   61      C      -8.6241181611    -4.6046697053    -5.0259928833
   62      N      -9.2441451096    -5.1542138135    -6.1887821793
   63      C      -9.6100053468    -3.9297450672    -1.4522207575
   64      C      -5.3228356395    -3.0762706364    -3.9988643681
   65      C      -9.7730554340    -4.2605822151    -7.1309434708
   66      C      -9.4925288480    -2.8946401124    -7.0921383462
   67      C      -9.7027473412    -7.1474366452    -7.5001691496
   68      C      -8.9444683330    -6.4787744168    -6.5326788888
   69      C      -9.3896398653    -8.4403164329    -7.8891793526
   70      C      -8.3507851349    -9.1265821448    -7.2795585820
   71      C      -7.6221690727    -8.4914315885    -6.2886033377
   72      C      -7.9019083541    -7.1816569569    -5.9276889343
   73      C     -10.6106090122    -4.7258905618    -8.1512498130
   74      C     -11.0984301175    -3.8678821373    -9.1239668889
   75      C     -10.8125209881    -2.5125053622    -9.0730618457
   76      C     -10.0183161830    -2.0342715020    -8.0446000401
   77      H      -5.4694327242     0.0196284278     5.3470602328
   78      H      -1.7436452558     0.1627680513     3.2471880602
   79      H      -7.1997386428    -1.9159844210     3.0249280464
   80      H      -7.5744684172    -0.2603929766     2.6098035401
   81      H      -7.4370379439    -0.7246860532     4.3067938922
   82      H      -2.9370375668    -1.5763034778     0.3227263263
   83      H      -1.5728305461    -0.8015300620     1.0973778141
   84      C      -2.7546311036     0.5181783768    -0.1266008152
   85      H      -3.7213250318     2.4641845506     4.0511561534
   86      H      -3.3935304181     4.8444619079     4.4231605200
   87      H      -2.1822712296     5.6563016219     6.4366055171
   88      H      -1.3226538947     4.0391732164     8.0785717295
   89      H      -3.2450409834    -2.0725859406     5.1417290557
   90      H      -2.5680606139    -3.9022011961     6.5757461510
   91      H      -1.3970660503    -3.4660748983     8.7258263286
   92      H      -0.9080580548    -1.1511976716     9.3983809521
   93      H      -4.1819394135    -3.2579603111     2.4278261720
   94      H      -6.3030730944    -5.4695674753    -1.4878529115
   95      H      -8.2450349905    -1.0106837778    -2.9864220111
   96      H      -6.0843608291     1.2780929826     0.8630044874
   97      H      -2.8709943899    -5.2435791743     3.8873836308
   98      H      -1.9894945489    -7.4025854387     4.6905605243
   99      H      -2.4056493409    -9.4969840449     3.5081109913
  100      H      -3.5689942658   -10.6825510867     1.3994525329
  101      H      -4.9145738322   -10.3819523488    -0.6161359568
  102      H      -5.7385333378    -8.1719236919    -1.3249502721
  103      H      -7.8388323801     6.1366981704     0.0388012002
  104      H      -6.8383229884     3.9893846122     0.7218163426
  105      H      -9.2681821706     6.3396000706    -1.9293984441
  106      H      -9.6798152604     0.8506603146    -4.3772295894
  107      H     -10.7378428391     2.9385259801    -5.1585604967
  108      H     -10.4232144586     5.0640209545    -4.0004025501
  109      H     -10.3686581155    -4.8884964970    -3.8391379306
  110      H      -6.7529077205    -4.2075179219    -5.9886372348
  111      H     -10.6314700932    -3.6240586151    -1.6959047601
  112      H      -9.2221271511    -3.1760639139    -0.7639252482
  113      C      -9.6439884316    -5.2869300864    -0.7533665423
  114      H      -4.8980671661    -3.2075334472    -4.9941360284
  115      H      -4.6823541890    -3.6021959689    -3.2883664144
  116      H      -5.2662707227    -2.0153248243    -3.7475364631
  117      H      -8.8668177033    -2.4921043331    -6.3088881061
  118      H      -9.9839355147    -8.9174519449    -8.6586905734
  119      H      -8.1243777827   -10.1431914029    -7.5712719054
  120      H      -6.8139800896    -9.0099219387    -5.7894889091
  121      H      -7.3072510340    -6.7138265163    -5.1567332002
  122      H     -11.7236680596    -4.2666712984    -9.9132903504
  123      H     -11.2110949156    -1.8440983808    -9.8241397625
  124      H      -9.7875008228    -0.9790575716    -7.9800863743
  125      H     -10.0535165318    -6.0582844888    -1.4075500041
  126      H     -10.2613448997    -5.2490352695     0.1450706646
  127      H      -8.6425903927    -5.5987756071    -0.4564556215
  128      H      -2.1326549163     0.3669995410    -1.0092735275
  129      H      -2.4433132517     1.4505607267     0.3471731536
  130      H      -3.7830103332     0.6386569394    -0.4654442738
  131      S     -11.1639388874    -6.3952273790    -8.1242760532
  132      S      -1.3947105809     1.2873065158     8.2136151613
 ----------------------------------------------------------------

   16   -3799.3719650196      7.56E-09 Convergence criterion met
 Total energy in the final basis set = -3799.37196502
 Final energy is   -3799.37196501955
 **  OPTIMIZATION CONVERGED  **

                    Orbital Energies (a.u.)
 --------------------------------------------------------------

 Alpha MOs
 -- Occupied --
-89.689 -89.587 -14.779 -14.670 -10.573 -10.573 -10.555 -10.555
-10.512 -10.509 -10.508 -10.502 -10.501 -10.501 -10.501 -10.500
-10.500 -10.492 -10.492 -10.471 -10.471 -10.466 -10.466 -10.464
-10.464 -10.463 -10.448 -10.447 -10.447 -10.446 -10.445 -10.445
-10.444 -10.444 -10.444 -10.444 -10.443 -10.443 -10.442 -10.442
-10.441 -10.441 -10.441 -10.441 -10.440 -10.439 -10.439 -10.439
-10.437 -10.436 -10.436 -10.435 -10.435 -10.433 -10.433 -10.433
-10.432 -10.432 -10.430 -10.430 -10.429 -10.428 -10.428 -10.428
-10.426 -10.425 -10.424 -10.424 -10.422 -10.416 -10.416 -10.409
-10.406 -10.405 -10.401 -10.400 -10.397 -10.397  -8.328  -8.226
 -6.894  -6.890  -6.219  -6.215  -6.209  -6.117  -6.114  -6.109
 -1.165  -1.078  -1.033  -1.028  -0.994  -0.993  -0.976  -0.967
 -0.960  -0.958  -0.937  -0.934  -0.933  -0.921  -0.915  -0.914
 -0.904  -0.894  -0.891  -0.888  -0.881  -0.873  -0.868  -0.867
 -0.847  -0.842  -0.834  -0.831  -0.829  -0.829  -0.828  -0.826
 -0.814  -0.808  -0.797  -0.793  -0.789  -0.787  -0.782  -0.779
 -0.777  -0.763  -0.758  -0.749  -0.735  -0.716  -0.712  -0.710
 -0.707  -0.703  -0.701  -0.698  -0.692  -0.691  -0.687  -0.685
 -0.671  -0.668  -0.658  -0.656  -0.649  -0.641  -0.637  -0.627
 -0.624  -0.622  -0.621  -0.619  -0.607  -0.603  -0.589  -0.588
 -0.584  -0.576  -0.576  -0.574  -0.574  -0.570  -0.569  -0.562
 -0.554  -0.554  -0.552  -0.549  -0.540  -0.539  -0.537  -0.535
 -0.535  -0.534  -0.525  -0.521  -0.516  -0.510  -0.506  -0.505
 -0.500  -0.495  -0.494  -0.490  -0.487  -0.485  -0.484  -0.483
 -0.482  -0.481  -0.480  -0.479  -0.478  -0.472  -0.471  -0.470
 -0.468  -0.468  -0.466  -0.465  -0.464  -0.463  -0.461  -0.459
 -0.458  -0.455  -0.452  -0.451  -0.448  -0.445  -0.444  -0.442
 -0.437  -0.436  -0.434  -0.428  -0.428  -0.423  -0.422  -0.422
 -0.418  -0.417  -0.416  -0.412  -0.409  -0.407  -0.405  -0.404
 -0.403  -0.402  -0.392  -0.390  -0.386  -0.381  -0.380  -0.379
 -0.379  -0.378  -0.375  -0.374  -0.372  -0.369  -0.367  -0.364
 -0.361  -0.354  -0.349  -0.347  -0.345  -0.339  -0.337  -0.327
 -0.321  -0.312  -0.311  -0.300  -0.295  -0.294  -0.294  -0.289
 -0.286  -0.282  -0.280  -0.263  -0.261  -0.258  -0.258  -0.247
 -0.236  -0.231  -0.214  -0.141

 Beta MOs
 -- Occupied --
-89.691 -89.587 -14.788 -14.670 -10.572 -10.572 -10.558 -10.558
-10.512 -10.508 -10.507 -10.503 -10.503 -10.502 -10.502 -10.500
-10.500 -10.492 -10.492 -10.471 -10.471 -10.466 -10.465 -10.464
-10.464 -10.462 -10.449 -10.447 -10.447 -10.446 -10.445 -10.444
-10.444 -10.444 -10.444 -10.443 -10.443 -10.443 -10.442 -10.442
-10.442 -10.440 -10.440 -10.440 -10.440 -10.439 -10.439 -10.439
-10.437 -10.436 -10.436 -10.435 -10.435 -10.433 -10.433 -10.432
-10.432 -10.432 -10.430 -10.428 -10.428 -10.428 -10.428 -10.427
-10.426 -10.425 -10.424 -10.424 -10.423 -10.416 -10.416 -10.409
-10.406 -10.405 -10.400 -10.400 -10.396 -10.396  -8.330  -8.226
 -6.891  -6.888  -6.220  -6.217  -6.216  -6.117  -6.114  -6.109
 -1.179  -1.078  -1.040  -1.032  -0.994  -0.993  -0.977  -0.971
 -0.960  -0.958  -0.936  -0.933  -0.932  -0.923  -0.914  -0.913
 -0.908  -0.894  -0.891  -0.889  -0.880  -0.873  -0.870  -0.867
 -0.847  -0.842  -0.834  -0.832  -0.829  -0.828  -0.828  -0.827
 -0.816  -0.808  -0.795  -0.791  -0.789  -0.787  -0.785  -0.780
 -0.775  -0.764  -0.758  -0.748  -0.737  -0.716  -0.711  -0.709
 -0.706  -0.702  -0.701  -0.697  -0.694  -0.692  -0.689  -0.687
 -0.671  -0.668  -0.657  -0.652  -0.651  -0.639  -0.637  -0.627
 -0.624  -0.622  -0.621  -0.619  -0.607  -0.605  -0.591  -0.590
 -0.588  -0.584  -0.575  -0.574  -0.573  -0.570  -0.567  -0.562
 -0.553  -0.553  -0.553  -0.549  -0.544  -0.541  -0.539  -0.537
 -0.535  -0.534  -0.524  -0.520  -0.516  -0.509  -0.506  -0.504
 -0.500  -0.497  -0.496  -0.493  -0.490  -0.487  -0.487  -0.485
 -0.484  -0.481  -0.480  -0.479  -0.478  -0.472  -0.471  -0.470
 -0.469  -0.469  -0.468  -0.465  -0.464  -0.463  -0.462  -0.461
 -0.459  -0.458  -0.456  -0.452  -0.450  -0.446  -0.444  -0.443
 -0.438  -0.436  -0.434  -0.430  -0.428  -0.427  -0.423  -0.422
 -0.422  -0.418  -0.416  -0.415  -0.407  -0.407  -0.404  -0.402
 -0.401  -0.399  -0.392  -0.390  -0.386  -0.380  -0.379  -0.379
 -0.377  -0.376  -0.375  -0.374  -0.372  -0.369  -0.368  -0.366
 -0.364  -0.363  -0.354  -0.347  -0.340  -0.338  -0.336  -0.327
 -0.325  -0.319  -0.311  -0.295  -0.294  -0.294  -0.290  -0.289
 -0.286  -0.283  -0.278  -0.277  -0.261  -0.258  -0.258  -0.252
 -0.239  -0.233  -0.224  -0.214

          Ground-State Mulliken Net Atomic Charges

     Atom                 Charge (a.u.)    Spin (a.u.)
  --------------------------------------------------------
      1 C                    -0.297119      -0.014461
      2 C                     0.014539       0.006258
      3 C                    -0.151052      -0.029269
      4 C                     0.043166       0.006867
      5 C                    -0.293982      -0.014646
      6 C                     0.107723       0.025869
      7 N                    -0.640513      -0.330310
      8 C                    -0.755987      -0.000060
      9 C                    -0.541063       0.002057
     10 C                     0.454741       0.007932
     11 C                    -0.213509      -0.139260
     12 C                    -0.282559      -0.053983
     13 C                     0.460426       0.008898
     14 C                    -0.220716       0.021451
     15 C                    -0.219677      -0.130427
     16 C                    -0.236872       0.087621
     17 C                    -0.214890      -0.139047
     18 C                    -0.279445      -0.052308
     19 C                    -0.221725       0.019867
     20 C                    -0.218371      -0.129576
     21 C                    -0.236913       0.087072
     22 C                    -0.148832       0.054542
     23 C                    -0.127220       0.013708
     24 B                     0.529404       0.333093
     25 C                    -0.133971       0.023862
     26 C                    -0.138952       0.057293
     27 B                     0.560663       0.283259
     28 C                    -0.402447      -0.027662
     29 C                     0.086127       0.049703
     30 C                     0.070178       0.090095
     31 C                    -0.407814      -0.057266
     32 C                    -0.396998      -0.054242
     33 C                     0.068730       0.086850
     34 C                     0.088685       0.042031
     35 C                    -0.418303      -0.019605
     36 C                    -0.407513       0.076359
     37 C                    -0.215617      -0.050079
     38 C                    -0.357413       0.071937
     39 C                     0.237782      -0.041007
     40 C                    -0.080765       0.025093
     41 C                     0.188785      -0.047154
     42 C                    -0.356249       0.082802
     43 C                    -0.216550      -0.055634
     44 C                    -0.401476       0.089650
     45 C                     0.189246      -0.058215
     46 C                    -0.215971      -0.045601
     47 C                    -0.406418       0.068966
     48 C                     0.187148      -0.043420
     49 C                    -0.078703       0.023155
     50 C                     0.238454      -0.037656
     51 C                    -0.358009       0.064613
     52 C                     0.185682      -0.055456
     53 C                    -0.397380       0.083998
     54 C                    -0.218332      -0.052148
     55 C                    -0.354966       0.077425
     56 C                    -0.311159      -0.000988
     57 C                     0.044797       0.003047
     58 C                    -0.183275      -0.024264
     59 C                     0.027602       0.003002
     60 C                    -0.334059      -0.000843
     61 C                     0.211006       0.000774
     62 N                    -0.706743      -0.000043
     63 C                    -0.541693       0.003955
     64 C                    -0.758101       0.000638
     65 C                     0.419554       0.000015
     66 C                    -0.306560      -0.000005
     67 C                    -0.198002      -0.000003
     68 C                     0.421671       0.000014
     69 C                    -0.258443       0.000003
     70 C                    -0.249702      -0.000004
     71 C                    -0.236392       0.000002
     72 C                    -0.309391      -0.000004
     73 C                    -0.196750      -0.000001
     74 C                    -0.258369       0.000001
     75 C                    -0.249069      -0.000003
     76 C                    -0.237849       0.000000
     77 H                     0.242337       0.001090
     78 H                     0.239696       0.001069
     79 H                     0.266233      -0.001233
     80 H                     0.263003      -0.000365
     81 H                     0.230769       0.001876
     82 H                     0.276474      -0.001979
     83 H                     0.224615       0.000621
     84 C                    -0.657287       0.000253
     85 H                     0.319334       0.003496
     86 H                     0.278246      -0.000583
     87 H                     0.275736       0.007268
     88 H                     0.277589      -0.003576
     89 H                     0.322743       0.003450
     90 H                     0.279250      -0.000490
     91 H                     0.276151       0.007217
     92 H                     0.277282      -0.003546
     93 H                     0.194924       0.000568
     94 H                     0.219948       0.002160
     95 H                     0.218302       0.002105
     96 H                     0.199330       0.000064
     97 H                     0.204205      -0.004634
     98 H                     0.221102       0.002492
     99 H                     0.225463      -0.004243
    100 H                     0.225121      -0.004930
    101 H                     0.232277       0.002703
    102 H                     0.227269      -0.005279
    103 H                     0.225574       0.002263
    104 H                     0.211653      -0.004115
    105 H                     0.225668      -0.003802
    106 H                     0.227311      -0.004941
    107 H                     0.232023       0.002535
    108 H                     0.225049      -0.004608
    109 H                     0.226188       0.000343
    110 H                     0.238228       0.000353
    111 H                     0.228374       0.000350
    112 H                     0.260999      -0.002322
    113 C                    -0.650543      -0.000445
    114 H                     0.232650       0.001613
    115 H                     0.247559      -0.000684
    116 H                     0.250359      -0.000894
    117 H                     0.271720       0.000000
    118 H                     0.242566       0.000000
    119 H                     0.231069       0.000000
    120 H                     0.233983      -0.000000
    121 H                     0.271001      -0.000001
    122 H                     0.242711       0.000000
    123 H                     0.231201       0.000000
    124 H                     0.234557       0.000001
    125 H                     0.214561       0.000046
    126 H                     0.217058       0.000025
    127 H                     0.239314      -0.000066
    128 H                     0.227981      -0.000062
    129 H                     0.202972      -0.000104
    130 H                     0.262188      -0.000614
    131 S                     0.123337      -0.000000
    132 S                     0.376306      -0.269563
  --------------------------------------------------------
  Sum of atomic charges =    -0.000000

                    Cartesian Multipole Moments
 -----------------------------------------------------------------
    Charge (ESU x 10^10)
                -0.0000
    Dipole Moment (Debye)
         X      16.7802      Y      13.2212      Z      28.6345
       Tot      35.7255
    Quadrupole Moments (Debye-Ang)
        XX    -645.1180     XY     -84.7077     YY    -473.0549
        XZ     -88.4685     YZ      -3.3594     ZZ    -328.3031

 Total job time:  88961.51s(wall), 260528.42s(cpu)
        *  Thank you very much for using Q-Chem.  Have a nice day.  *
