 Q-Chem 5.0, Q-Chem, Inc., Pleasanton, CA (2017)
 Q-Chem 5.0.1 for Intel X86 EM64T Linux

User input:
--------------------------------------------------------------
$rem
threads 8
jobtype	sp
method PBEh-3c
basis def2-mSVP
mem_static	1024
mem_total	8000
sym_ignore	true
unrestricted true
scf_convergence	9
solvent_method	pcm
$end

$molecule
read incoords.mol
$end

$solvent
dielectric	2.03
$end

$pcm
theory iefpcm
$end
--------------------------------------------------------------

   20   -3799.4279754186      3.73E-10 Convergence criterion met
 Total energy in the final basis set = -3799.42797542
 Total job time:  5762.43s(wall), 16995.04s(cpu)
        *  Thank you very much for using Q-Chem.  Have a nice day.  *
 Q-Chem 5.0, Q-Chem, Inc., Pleasanton, CA (2017)
 Q-Chem 5.0.1 for Intel X86 EM64T Linux

User input:
--------------------------------------------------------------

$rem
threads 8
jobtype opt
method PBEh-3c
basis def2-mSVP
scf_guess	read
mem_static      1024
mem_total       8000
sym_ignore      true
unrestricted true
mom_start       1
scf_algorithm	diis
scf_max_cycles	250
solvent_method	pcm
geom_opt_tol_energy 25
geom_opt_tol_gradient 75
$end

$solvent
dielectric      2.03
$end
$pcm
theory iefpcm
$end

$occupied
1 2 3 4 5 6 7 8 9 10 11 12 13 14 15 16 17 18 19 20 21 22 23 24 25 26 27 28 29 30 31 32 33 34 35 36 37 38 39 40 41 42 43 44 45 46 47 48 49 50 51 52 53 54 55 56 57 58 59 60 61 62 63 64 65 66 67 68 69 70 71 72 73 74 75 76 77 78 79 80 81 82 83 84 85 86 87 88 89 90 91 92 93 94 95 96 97 98 99 100 101 102 103 104 105 106 107 108 109 110 111 112 113 114 115 116 117 118 119 120 121 122 123 124 125 126 127 128 129 130 131 132 133 134 135 136 137 138 139 140 141 142 143 144 145 146 147 148 149 150 151 152 153 154 155 156 157 158 159 160 161 162 163 164 165 166 167 168 169 170 171 172 173 174 175 176 177 178 179 180 181 182 183 184 185 186 187 188 189 190 191 192 193 194 195 196 197 198 199 200 201 202 203 204 205 206 207 208 209 210 211 212 213 214 215 216 217 218 219 220 221 222 223 224 225 226 227 228 229 230 231 232 233 234 235 236 237 238 239 240 241 242 243 244 245 246 247 248 249 250 251 252 253 254 255 256 257 258 259 260 261 262 263 264 265 266 267 268 269 270 271 272 273 274 275  277
1 2 3 4 5 6 7 8 9 10 11 12 13 14 15 16 17 18 19 20 21 22 23 24 25 26 27 28 29 30 31 32 33 34 35 36 37 38 39 40 41 42 43 44 45 46 47 48 49 50 51 52 53 54 55 56 57 58 59 60 61 62 63 64 65 66 67 68 69 70 71 72 73 74 75 76 77 78 79 80 81 82 83 84 85 86 87 88 89 90 91 92 93 94 95 96 97 98 99 100 101 102 103 104 105 106 107 108 109 110 111 112 113 114 115 116 117 118 119 120 121 122 123 124 125 126 127 128 129 130 131 132 133 134 135 136 137 138 139 140 141 142 143 144 145 146 147 148 149 150 151 152 153 154 155 156 157 158 159 160 161 162 163 164 165 166 167 168 169 170 171 172 173 174 175 176 177 178 179 180 181 182 183 184 185 186 187 188 189 190 191 192 193 194 195 196 197 198 199 200 201 202 203 204 205 206 207 208 209 210 211 212 213 214 215 216 217 218 219 220 221 222 223 224 225 226 227 228 229 230 231 232 233 234 235 236 237 238 239 240 241 242 243 244 245 246 247 248 249 250 251 252 253 254 255 256 257 258 259 260 261 262 263 264 265 266 267 268 269 270 271 272 273 274 275 276
$end

$molecule
read
$end

--------------------------------------------------------------

   19   -3799.3631698652      8.40E-09 Convergence criterion met
 Total energy in the final basis set = -3799.36316987
   15   -3799.3634848597      8.30E-09 Convergence criterion met
 Total energy in the final basis set = -3799.36348486
   15   -3799.3635039514      9.53E-09 Convergence criterion met
 Total energy in the final basis set = -3799.36350395
   15   -3799.3639584138      9.58E-09 Convergence criterion met
 Total energy in the final basis set = -3799.36395841
   16   -3799.3646509132      7.04E-09 Convergence criterion met
 Total energy in the final basis set = -3799.36465091
   16   -3799.3655279551      8.07E-09 Convergence criterion met
 Total energy in the final basis set = -3799.36552796
   16   -3799.3660777075      6.89E-09 Convergence criterion met
   15   -3799.3667695546      8.24E-09 Convergence criterion met
 Total energy in the final basis set = -3799.36676955
   15   -3799.3667828597      8.88E-09 Convergence criterion met
 Total energy in the final basis set = -3799.36678286
   15   -3799.3667821328      9.21E-09 Convergence criterion met
 Total energy in the final basis set = -3799.36678213
   15   -3799.3667821505      9.19E-09 Convergence criterion met
 Total energy in the final basis set = -3799.36678215
   15   -3799.3667881874      9.13E-09 Convergence criterion met
 Total energy in the final basis set = -3799.36678819
   15   -3799.3667942495      9.08E-09 Convergence criterion met
 Total energy in the final basis set = -3799.36679425

             Standard Nuclear Orientation (Angstroms)
    I     Atom           X                Y                Z
 ----------------------------------------------------------------
    1      C      -4.9184728269    -0.1091950945     4.4216691893
    2      C      -5.5508642064    -0.5587311611     3.2678249292
    3      C      -4.8132590693    -0.7613978412     2.0894575276
    4      C      -3.4387923193    -0.4754417842     2.0843502574
    5      C      -2.8118633394    -0.0287473442     3.2439528864
    6      C      -3.5586850009     0.1349136662     4.3940680613
    7      N      -2.8919877639     0.5012308146     5.6157483833
    8      C      -7.0193122321    -0.8722036944     3.3009335878
    9      C      -2.6205182343    -0.6536862304     0.8329618898
   10      C      -2.4947139516    -0.5298904388     6.4378604765
   11      C      -1.8249375318    -0.3059923078     7.6561596330
   12      C      -3.1892067029     2.7917093497     4.9451099283
   13      C      -2.7025902137     1.8411641196     5.8633365495
   14      C      -2.9977309737     4.1312975349     5.1634638507
   15      C      -2.3188224962     4.5823365647     6.3002598663
   16      C      -1.8436896325     3.6749830546     7.2152219300
   17      C      -2.0312005057     2.3053169918     7.0104873803
   18      C      -2.7561509508    -1.8639192816     6.0625503730
   19      C      -2.3795859202    -2.9040519561     6.8719819118
   20      C      -1.7241024971    -2.6686354814     8.0849215879
   21      C      -1.4482023321    -1.3794057645     8.4686041989
   22      C      -6.9867047287    -1.2647765538    -1.2576421691
   23      C      -6.3648978486    -0.6082171181    -0.1503763343
   24      B      -5.5205325953    -1.4259509954     0.8315793302
   25      C      -5.3706374081    -2.9412382719     0.6452437256
   26      C      -5.9872729756    -3.5868124869    -0.4716574401
   27      B      -6.8134660238    -2.7760086231    -1.4743778600
   28      C      -4.6347513499    -3.7235353322     1.5626512155
   29      C      -4.5037258023    -5.0785440594     1.3902218587
   30      C      -5.1170290775    -5.7163665982     0.2710729889
   31      C      -5.8364911154    -4.9773185147    -0.6344194642
   32      C      -7.7724159660    -0.5123431511    -2.1490258332
   33      C      -7.9502860158     0.8355386885    -1.9621249457
   34      C      -7.3328996722     1.4993485636    -0.8618803225
   35      C      -6.5560065260     0.7819904770     0.0160369267
   36      C      -3.0619766266    -6.1309845616     3.3169115305
   37      C      -2.5543951917    -7.3692668049     3.7733251406
   38      C      -2.7881286191    -8.5551174726     3.1148281174
   39      C      -3.5615797864    -8.5638151465     1.9293499448
   40      C      -4.0462812436    -7.3293946102     1.5030232981
   41      C      -3.8185414346    -6.1082147678     2.1709251291
   42      C      -3.8966644059    -9.6822829684     1.1263491925
   43      C      -4.6606779110    -9.5110156169    -0.0055318173
   44      C      -5.1383995834    -8.2457929924    -0.4175200125
   45      C      -4.8282487085    -7.1447442736     0.3438700369
   46      C      -8.0396439385     5.2607395111    -0.5737965649
   47      C      -7.4605764651     4.0325116486    -0.1766152225
   48      C      -7.7127070437     2.9122192579    -0.9278327230
   49      C      -8.5431117344     3.0480309644    -2.0607135735
   50      C      -9.1300684070     4.2398061510    -2.4747079415
   51      C      -8.8484575099     5.3782179503    -1.6815064712
   52      C      -8.7177382996     1.8140056280    -2.7193396660
   53      C      -9.5122180591     1.7691533094    -3.8381849839
   54      C     -10.1181982389     2.9667530167    -4.2812633582
   55      C      -9.9427416057     4.1688255606    -3.6339263924
   56      C      -9.3506005546    -4.5185009886    -3.8515194453
   57      C      -8.7838073835    -3.9556702997    -2.7089588021
   58      C      -7.4711172375    -3.4729504114    -2.7371430109
   59      C      -6.7375581769    -3.5836707913    -3.9317072759
   60      C      -7.3175054579    -4.1448031593    -5.0606577953
   61      C      -8.6267265659    -4.6065050105    -5.0225609598
   62      N      -9.2477297331    -5.1570275934    -6.1842438102
   63      C      -9.6122543376    -3.9182624888    -1.4511314901
   64      C      -5.3219642986    -3.0838856561    -3.9978111659
   65      C      -9.7742547523    -4.2641037608    -7.1283273937
   66      C      -9.4905835502    -2.8988160695    -7.0918981239
   67      C      -9.7106425269    -7.1516064495    -7.4919176127
   68      C      -8.9515920803    -6.4831122136    -6.5249726801
   69      C      -9.4001404220    -8.4458341733    -7.8781657725
   70      C      -8.3637615060    -9.1336043048    -7.2662213963
   71      C      -7.6348037110    -8.4985612323    -6.2756139349
   72      C      -7.9116347742    -7.1875196697    -5.9174388568
   73      C     -10.6121353909    -4.7294821575    -8.1482586970
   74      C     -11.0970300105    -3.8721149387    -9.1228687160
   75      C     -10.8080955651    -2.5173846501    -9.0743658146
   76      C     -10.0136137115    -2.0390806730    -8.0463057478
   77      H      -5.4770536110     0.0181002921     5.3419786670
   78      H      -1.7447398548     0.1629089208     3.2526943352
   79      H      -7.2025819965    -1.9077832307     3.0092587158
   80      H      -7.5740114995    -0.2511700525     2.5965802929
   81      H      -7.4430585454    -0.7190555227     4.2932915663
   82      H      -2.9301797472    -1.5676485611     0.3223397329
   83      H      -1.5690313048    -0.7896565297     1.0992763589
   84      C      -2.7530145666     0.5274889889    -0.1259206107
   85      H      -3.7163289810     2.4630269849     4.0619172049
   86      H      -3.3795045919     4.8415226317     4.4434632234
   87      H      -2.1699047517     5.6403353900     6.4630169909
   88      H      -1.3217833647     4.0135191853     8.1012339582
   89      H      -3.2604328937    -2.0773519190     5.1326560662
   90      H      -2.5970561753    -3.9168174747     6.5611919343
   91      H      -1.4321556372    -3.4950852654     8.7175091979
   92      H      -0.9353276739    -1.1856467928     9.4021081644
   93      H      -4.1670758770    -3.2467682835     2.4182298254
   94      H      -6.3014963953    -5.4661450686    -1.4854090301
   95      H      -8.2470330584    -1.0113557495    -2.9882533872
   96      H      -6.0810883931     1.2856276722     0.8529813136
   97      H      -2.8434682908    -5.2265411380     3.8720705052
   98      H      -1.9571125353    -7.3834922761     4.6765471312
   99      H      -2.3792513593    -9.4807408530     3.5019130183
  100      H      -3.5528601412   -10.6719516340     1.4021777592
  101      H      -4.9082565398   -10.3766634980    -0.6073603464
  102      H      -5.7362850150    -8.1686861969    -1.3175490383
  103      H      -7.8380046463     6.1421615580     0.0217912209
  104      H      -6.8358505646     3.9963055161     0.7073965979
  105      H      -9.2708507111     6.3405454791    -1.9440172435
  106      H      -9.6857613940     0.8466017923    -4.3792263409
  107      H     -10.7457822901     2.9324594619    -5.1630617958
  108      H     -10.4294994723     5.0603599427    -4.0102113574
  109      H     -10.3724952281    -4.8823239808    -3.8360735893
  110      H      -6.7543226984    -4.2167144224    -5.9854615159
  111      H     -10.6352092265    -3.6199510553    -1.6976737668
  112      H      -9.2284315392    -3.1565601896    -0.7693643286
  113      C      -9.6391200958    -5.2696176161    -0.7408340124
  114      H      -4.8977345701    -3.2167806967    -4.9931074144
  115      H      -4.6825913874    -3.6108758008    -3.2871285472
  116      H      -5.2630174676    -2.0229210088    -3.7471772828
  117      H      -8.8645383657    -2.4966008749    -6.3087708482
  118      H      -9.9947075334    -8.9225956572    -8.6476646231
  119      H      -8.1394767323   -10.1512479273    -7.5559199194
  120      H      -6.8285265613    -9.0181944912    -5.7746197368
  121      H      -7.3170457066    -6.7195620859    -5.1465332348
  122      H     -11.7222916740    -4.2711862190    -9.9119982223
  123      H     -11.2044770978    -1.8495011724    -9.8270528866
  124      H      -9.7803400084    -0.9843024181    -7.9836668581
  125      H     -10.0421682931    -6.0491012208    -1.3893536935
  126      H     -10.2585577375    -5.2282234978     0.1560370663
  127      H      -8.6364037957    -5.5723662368    -0.4391961136
  128      H      -2.1293132933     0.3783525057    -1.0076745602
  129      H      -2.4451293762     1.4607353073     0.3484264843
  130      H      -3.7811530494     0.6448902958    -0.4664369864
  131      S     -11.1694189521    -6.3973130676    -8.1187193101
  132      S      -1.4065463652     1.2608219295     8.2260460334
 ----------------------------------------------------------------

   15   -3799.3667970197      9.10E-09 Convergence criterion met
 Total energy in the final basis set = -3799.36679702
 Final energy is   -3799.36679701974
 **  OPTIMIZATION CONVERGED  **

                    Orbital Energies (a.u.)
 --------------------------------------------------------------

 Alpha MOs
 -- Occupied --
-89.692 -89.585 -14.782 -14.668 -10.576 -10.576 -10.559 -10.559
-10.514 -10.513 -10.512 -10.505 -10.505 -10.504 -10.504 -10.504
-10.503 -10.489 -10.489 -10.469 -10.469 -10.466 -10.465 -10.465
-10.464 -10.463 -10.447 -10.446 -10.445 -10.445 -10.444 -10.443
-10.443 -10.442 -10.442 -10.442 -10.442 -10.441 -10.441 -10.440
-10.440 -10.440 -10.439 -10.439 -10.439 -10.437 -10.437 -10.437
-10.435 -10.434 -10.434 -10.433 -10.433 -10.433 -10.433 -10.431
-10.431 -10.431 -10.428 -10.428 -10.427 -10.427 -10.426 -10.426
-10.425 -10.424 -10.422 -10.422 -10.420 -10.416 -10.414 -10.407
-10.404 -10.403 -10.399 -10.399 -10.395 -10.395  -8.332  -8.224
 -6.893  -6.889  -6.222  -6.219  -6.213  -6.115  -6.112  -6.106
 -1.168  -1.076  -1.037  -1.032  -0.992  -0.991  -0.978  -0.970
 -0.958  -0.956  -0.935  -0.932  -0.931  -0.925  -0.914  -0.912
 -0.908  -0.895  -0.889  -0.889  -0.880  -0.872  -0.870  -0.865
 -0.845  -0.840  -0.833  -0.829  -0.828  -0.828  -0.827  -0.826
 -0.815  -0.806  -0.796  -0.791  -0.788  -0.786  -0.786  -0.780
 -0.776  -0.765  -0.756  -0.747  -0.739  -0.716  -0.711  -0.709
 -0.705  -0.701  -0.699  -0.696  -0.694  -0.691  -0.690  -0.688
 -0.669  -0.667  -0.656  -0.654  -0.650  -0.639  -0.635  -0.626
 -0.624  -0.621  -0.619  -0.617  -0.606  -0.605  -0.593  -0.591
 -0.586  -0.577  -0.576  -0.573  -0.572  -0.570  -0.568  -0.561
 -0.556  -0.553  -0.552  -0.551  -0.543  -0.538  -0.537  -0.536
 -0.534  -0.533  -0.523  -0.520  -0.514  -0.508  -0.505  -0.503
 -0.500  -0.497  -0.494  -0.488  -0.488  -0.486  -0.485  -0.484
 -0.483  -0.481  -0.479  -0.478  -0.478  -0.471  -0.471  -0.469
 -0.468  -0.467  -0.465  -0.464  -0.463  -0.462  -0.460  -0.459
 -0.458  -0.456  -0.452  -0.450  -0.448  -0.446  -0.443  -0.442
 -0.437  -0.435  -0.433  -0.428  -0.426  -0.424  -0.421  -0.420
 -0.417  -0.416  -0.415  -0.414  -0.408  -0.405  -0.405  -0.403
 -0.401  -0.400  -0.391  -0.388  -0.386  -0.381  -0.379  -0.378
 -0.377  -0.376  -0.374  -0.372  -0.370  -0.367  -0.365  -0.364
 -0.362  -0.353  -0.349  -0.347  -0.346  -0.337  -0.335  -0.325
 -0.319  -0.315  -0.311  -0.299  -0.296  -0.292  -0.292  -0.287
 -0.286  -0.280  -0.278  -0.261  -0.260  -0.256  -0.256  -0.245
 -0.235  -0.229  -0.211  -0.139

 Beta MOs
 -- Occupied --
-89.694 -89.585 -14.791 -14.668 -10.576 -10.576 -10.561 -10.561
-10.514 -10.512 -10.511 -10.507 -10.506 -10.506 -10.505 -10.504
-10.503 -10.489 -10.489 -10.469 -10.469 -10.466 -10.466 -10.465
-10.464 -10.463 -10.447 -10.446 -10.446 -10.445 -10.444 -10.443
-10.443 -10.442 -10.442 -10.442 -10.442 -10.441 -10.440 -10.440
-10.440 -10.439 -10.439 -10.439 -10.438 -10.438 -10.437 -10.437
-10.435 -10.434 -10.434 -10.433 -10.433 -10.433 -10.433 -10.431
-10.430 -10.430 -10.428 -10.427 -10.427 -10.426 -10.426 -10.425
-10.425 -10.424 -10.423 -10.422 -10.421 -10.416 -10.414 -10.407
-10.404 -10.403 -10.399 -10.399 -10.394 -10.394  -8.334  -8.224
 -6.890  -6.886  -6.223  -6.220  -6.220  -6.115  -6.112  -6.106
 -1.182  -1.076  -1.044  -1.036  -0.992  -0.991  -0.979  -0.974
 -0.958  -0.956  -0.934  -0.931  -0.931  -0.927  -0.913  -0.912
 -0.912  -0.896  -0.890  -0.889  -0.879  -0.873  -0.871  -0.865
 -0.845  -0.840  -0.835  -0.833  -0.828  -0.827  -0.827  -0.825
 -0.817  -0.806  -0.794  -0.790  -0.788  -0.787  -0.785  -0.781
 -0.774  -0.766  -0.756  -0.747  -0.741  -0.717  -0.709  -0.708
 -0.704  -0.701  -0.699  -0.697  -0.696  -0.693  -0.690  -0.690
 -0.669  -0.666  -0.656  -0.652  -0.651  -0.637  -0.635  -0.627
 -0.624  -0.621  -0.619  -0.617  -0.609  -0.605  -0.595  -0.593
 -0.592  -0.586  -0.574  -0.572  -0.572  -0.570  -0.566  -0.561
 -0.556  -0.554  -0.551  -0.551  -0.546  -0.545  -0.537  -0.537
 -0.534  -0.533  -0.523  -0.519  -0.514  -0.508  -0.505  -0.502
 -0.500  -0.500  -0.500  -0.492  -0.489  -0.488  -0.488  -0.485
 -0.483  -0.481  -0.480  -0.478  -0.477  -0.472  -0.471  -0.471
 -0.469  -0.468  -0.467  -0.464  -0.464  -0.462  -0.461  -0.460
 -0.459  -0.458  -0.456  -0.450  -0.449  -0.448  -0.443  -0.442
 -0.438  -0.435  -0.434  -0.432  -0.429  -0.426  -0.423  -0.421
 -0.420  -0.416  -0.415  -0.414  -0.407  -0.405  -0.403  -0.401
 -0.400  -0.397  -0.390  -0.388  -0.386  -0.380  -0.378  -0.377
 -0.376  -0.374  -0.373  -0.372  -0.371  -0.370  -0.367  -0.367
 -0.365  -0.362  -0.352  -0.346  -0.339  -0.336  -0.335  -0.330
 -0.323  -0.318  -0.310  -0.296  -0.293  -0.292  -0.288  -0.288
 -0.287  -0.285  -0.277  -0.275  -0.260  -0.256  -0.256  -0.250
 -0.237  -0.232  -0.222  -0.211

          Ground-State Mulliken Net Atomic Charges

     Atom                 Charge (a.u.)    Spin (a.u.)
  --------------------------------------------------------
      1 C                    -0.297448      -0.014636
      2 C                     0.014981       0.006282
      3 C                    -0.149475      -0.029269
      4 C                     0.044367       0.006987
      5 C                    -0.294023      -0.014857
      6 C                     0.106610       0.026120
      7 N                    -0.639508      -0.332752
      8 C                    -0.755089      -0.000031
      9 C                    -0.540762       0.002042
     10 C                     0.453070       0.009483
     11 C                    -0.212790      -0.140626
     12 C                    -0.281194      -0.056149
     13 C                     0.458919       0.010783
     14 C                    -0.219565       0.023735
     15 C                    -0.218030      -0.132291
     16 C                    -0.236129       0.088960
     17 C                    -0.214215      -0.140131
     18 C                    -0.278038      -0.054274
     19 C                    -0.220755       0.022042
     20 C                    -0.216633      -0.131689
     21 C                    -0.236180       0.088580
     22 C                    -0.148700       0.055600
     23 C                    -0.126281       0.011195
     24 B                     0.529148       0.335863
     25 C                    -0.133067       0.021958
     26 C                    -0.138681       0.059283
     27 B                     0.563957       0.281621
     28 C                    -0.401156      -0.026282
     29 C                     0.088346       0.047835
     30 C                     0.071972       0.092215
     31 C                    -0.407154      -0.058870
     32 C                    -0.395417      -0.055081
     33 C                     0.070586       0.088144
     34 C                     0.090906       0.039650
     35 C                    -0.418115      -0.017540
     36 C                    -0.406118       0.075877
     37 C                    -0.212720      -0.049920
     38 C                    -0.355958       0.071663
     39 C                     0.240757      -0.041100
     40 C                    -0.080627       0.025133
     41 C                     0.191016      -0.046625
     42 C                    -0.354842       0.083512
     43 C                    -0.213810      -0.055997
     44 C                    -0.400035       0.090421
     45 C                     0.191072      -0.058746
     46 C                    -0.213199      -0.044953
     47 C                    -0.404880       0.067745
     48 C                     0.189054      -0.042569
     49 C                    -0.078338       0.022963
     50 C                     0.241339      -0.037336
     51 C                    -0.356460       0.063555
     52 C                     0.187594      -0.055547
     53 C                    -0.395931       0.083904
     54 C                    -0.215683      -0.052002
     55 C                    -0.353422       0.077280
     56 C                    -0.309454      -0.000985
     57 C                     0.046133       0.003053
     58 C                    -0.183704      -0.024165
     59 C                     0.028790       0.003007
     60 C                    -0.333378      -0.000848
     61 C                     0.210833       0.000785
     62 N                    -0.707104      -0.000044
     63 C                    -0.541553       0.003888
     64 C                    -0.757352       0.000640
     65 C                     0.420396       0.000015
     66 C                    -0.305022      -0.000005
     67 C                    -0.196979      -0.000003
     68 C                     0.422547       0.000014
     69 C                    -0.256748       0.000003
     70 C                    -0.247232      -0.000004
     71 C                    -0.234171       0.000002
     72 C                    -0.307872      -0.000003
     73 C                    -0.195693      -0.000001
     74 C                    -0.256685       0.000001
     75 C                    -0.246590      -0.000003
     76 C                    -0.235730       0.000000
     77 H                     0.239483       0.001096
     78 H                     0.236949       0.001082
     79 H                     0.267588      -0.001261
     80 H                     0.264315      -0.000358
     81 H                     0.228463       0.001901
     82 H                     0.278271      -0.001963
     83 H                     0.222672       0.000635
     84 C                    -0.656258       0.000262
     85 H                     0.319855       0.003599
     86 H                     0.276661      -0.000701
     87 H                     0.273774       0.007376
     88 H                     0.274906      -0.003656
     89 H                     0.323696       0.003548
     90 H                     0.278373      -0.000599
     91 H                     0.274309       0.007337
     92 H                     0.274549      -0.003633
     93 H                     0.191127       0.000487
     94 H                     0.219310       0.002248
     95 H                     0.217372       0.002158
     96 H                     0.196380      -0.000053
     97 H                     0.198941      -0.004623
     98 H                     0.217083       0.002493
     99 H                     0.222267      -0.004235
    100 H                     0.221960      -0.004986
    101 H                     0.229513       0.002725
    102 H                     0.224750      -0.005333
    103 H                     0.222095       0.002239
    104 H                     0.207555      -0.004054
    105 H                     0.222513      -0.003746
    106 H                     0.224916      -0.004942
    107 H                     0.229280       0.002532
    108 H                     0.221928      -0.004611
    109 H                     0.224383       0.000341
    110 H                     0.236361       0.000352
    111 H                     0.227306       0.000355
    112 H                     0.261071      -0.002287
    113 C                    -0.649545      -0.000442
    114 H                     0.231115       0.001609
    115 H                     0.247609      -0.000676
    116 H                     0.250383      -0.000896
    117 H                     0.270519       0.000000
    118 H                     0.239785       0.000000
    119 H                     0.227966       0.000000
    120 H                     0.230923      -0.000000
    121 H                     0.269741      -0.000001
    122 H                     0.239928       0.000000
    123 H                     0.228115       0.000000
    124 H                     0.231612       0.000001
    125 H                     0.214012       0.000035
    126 H                     0.215767       0.000024
    127 H                     0.240257      -0.000069
    128 H                     0.227674      -0.000069
    129 H                     0.201331      -0.000104
    130 H                     0.264180      -0.000625
    131 S                     0.124861      -0.000000
    132 S                     0.373351      -0.267013
  --------------------------------------------------------
  Sum of atomic charges =    -0.000000

                    Cartesian Multipole Moments
 -----------------------------------------------------------------
    Charge (ESU x 10^10)
                -0.0000
    Dipole Moment (Debye)
         X      16.4594      Y      13.0020      Z      28.2482
       Tot      35.1842
    Quadrupole Moments (Debye-Ang)
        XX    -642.6769     XY     -82.9145     YY    -474.4767
        XZ     -88.0332     YZ      -3.6771     ZZ    -331.4373

 Total job time:  88965.02s(wall), 257474.24s(cpu)
        *  Thank you very much for using Q-Chem.  Have a nice day.  *
