 Q-Chem 5.0, Q-Chem, Inc., Pleasanton, CA (2017)
 Q-Chem 5.0.1 for Intel X86 EM64T Linux

User input:
--------------------------------------------------------------
$rem
threads 8
jobtype	sp
method PBEh-3c
basis def2-mSVP
mem_static	1024
mem_total	8000
sym_ignore	true
unrestricted true
scf_convergence	9
solvent_method	pcm
$end

$molecule
read moms1opt_eth.mol
$end

$solvent
dielectric	8.93
$end

$pcm
theory iefpcm
$end
--------------------------------------------------------------

   16   -3799.4523823021      9.75E-10 Convergence criterion met
 Total energy in the final basis set = -3799.45238230
 Total job time:  4608.62s(wall), 18913.92s(cpu)
        *  Thank you very much for using Q-Chem.  Have a nice day.  *
 Q-Chem 5.0, Q-Chem, Inc., Pleasanton, CA (2017)
 Q-Chem 5.0.1 for Intel X86 EM64T Linux

User input:
--------------------------------------------------------------

$rem
threads 8
jobtype opt
method PBEh-3c
basis def2-mSVP
scf_guess	read
mem_static      1024
mem_total       8000
sym_ignore      true
unrestricted true
mom_start       1
scf_algorithm	diis
scf_max_cycles	250
solvent_method	pcm
geom_opt_tol_energy 25
geom_opt_tol_gradient 75
$end

$solvent
dielectric      8.93
$end
$pcm
theory iefpcm
$end

$occupied
1 2 3 4 5 6 7 8 9 10 11 12 13 14 15 16 17 18 19 20 21 22 23 24 25 26 27 28 29 30 31 32 33 34 35 36 37 38 39 40 41 42 43 44 45 46 47 48 49 50 51 52 53 54 55 56 57 58 59 60 61 62 63 64 65 66 67 68 69 70 71 72 73 74 75 76 77 78 79 80 81 82 83 84 85 86 87 88 89 90 91 92 93 94 95 96 97 98 99 100 101 102 103 104 105 106 107 108 109 110 111 112 113 114 115 116 117 118 119 120 121 122 123 124 125 126 127 128 129 130 131 132 133 134 135 136 137 138 139 140 141 142 143 144 145 146 147 148 149 150 151 152 153 154 155 156 157 158 159 160 161 162 163 164 165 166 167 168 169 170 171 172 173 174 175 176 177 178 179 180 181 182 183 184 185 186 187 188 189 190 191 192 193 194 195 196 197 198 199 200 201 202 203 204 205 206 207 208 209 210 211 212 213 214 215 216 217 218 219 220 221 222 223 224 225 226 227 228 229 230 231 232 233 234 235 236 237 238 239 240 241 242 243 244 245 246 247 248 249 250 251 252 253 254 255 256 257 258 259 260 261 262 263 264 265 266 267 268 269 270 271 272 273 274 275  277
1 2 3 4 5 6 7 8 9 10 11 12 13 14 15 16 17 18 19 20 21 22 23 24 25 26 27 28 29 30 31 32 33 34 35 36 37 38 39 40 41 42 43 44 45 46 47 48 49 50 51 52 53 54 55 56 57 58 59 60 61 62 63 64 65 66 67 68 69 70 71 72 73 74 75 76 77 78 79 80 81 82 83 84 85 86 87 88 89 90 91 92 93 94 95 96 97 98 99 100 101 102 103 104 105 106 107 108 109 110 111 112 113 114 115 116 117 118 119 120 121 122 123 124 125 126 127 128 129 130 131 132 133 134 135 136 137 138 139 140 141 142 143 144 145 146 147 148 149 150 151 152 153 154 155 156 157 158 159 160 161 162 163 164 165 166 167 168 169 170 171 172 173 174 175 176 177 178 179 180 181 182 183 184 185 186 187 188 189 190 191 192 193 194 195 196 197 198 199 200 201 202 203 204 205 206 207 208 209 210 211 212 213 214 215 216 217 218 219 220 221 222 223 224 225 226 227 228 229 230 231 232 233 234 235 236 237 238 239 240 241 242 243 244 245 246 247 248 249 250 251 252 253 254 255 256 257 258 259 260 261 262 263 264 265 266 267 268 269 270 271 272 273 274 275 276
$end

$molecule
read
$end

--------------------------------------------------------------

   22   -3799.4000694661      9.24E-09 Convergence criterion met
 Total energy in the final basis set = -3799.40006947
   19   -3799.4525432193      6.06E-09 Convergence criterion met
 Total energy in the final basis set = -3799.45254322
   13   -3799.4525694694      5.13E-09 Convergence criterion met
 Total energy in the final basis set = -3799.45256947
   13   -3799.4543164556      5.08E-09 Convergence criterion met
 Total energy in the final basis set = -3799.45431646
   13   -3799.4564958818      5.50E-09 Convergence criterion met
 Total energy in the final basis set = -3799.45649588
   13   -3799.4575412565      5.38E-09 Convergence criterion met
 Total energy in the final basis set = -3799.45754126
   13   -3799.4581107055      5.24E-09 Convergence criterion met
   13   -3799.4613118702      5.08E-09 Convergence criterion met
 Total energy in the final basis set = -3799.46131187
   13   -3799.4615579248      5.07E-09 Convergence criterion met
 Total energy in the final basis set = -3799.46155792
   13   -3799.4615731657      5.08E-09 Convergence criterion met
 Total energy in the final basis set = -3799.46157317
   13   -3799.4616594513      5.02E-09 Convergence criterion met
 Total energy in the final basis set = -3799.46165945
   13   -3799.4616653315      4.98E-09 Convergence criterion met
 Total energy in the final basis set = -3799.46166533
   13   -3799.4616595821      4.98E-09 Convergence criterion met
 Total energy in the final basis set = -3799.46165958

             Standard Nuclear Orientation (Angstroms)
    I     Atom           X                Y                Z
 ----------------------------------------------------------------
    1      S       0.1565741046     0.3804685779     0.4121197072
    2      C       0.0582904267     0.4012924139     2.1701224487
    3      C       1.2288576075     0.4233984380     2.9131501070
    4      H       2.1763668688     0.5452849028     2.4031133276
    5      C       1.1892791947     0.2587841464     4.2897285426
    6      H       2.1062213362     0.2559937292     4.8630630420
    7      C      -0.0373183636     0.0891704555     4.9104669881
    8      H      -0.0916643155    -0.0506203333     5.9821166336
    9      C      -1.2145061358     0.1096599104     4.1762993739
   10      H      -2.1547113682    -0.0156926635     4.6939683474
   11      C      -1.1885612370     0.2727678920     2.7911208545
   12      N      -2.3611601383     0.2985172758     2.0221890764
   13      C      -2.4511740709     1.0621528985     0.8496726724
   14      C      -3.6545455381     1.6396097465     0.4416126732
   15      H      -4.5506143895     1.5077691662     1.0309514013
   16      C      -3.7283976796     2.3733216328    -0.7333817998
   17      H      -4.6801189965     2.7950027123    -1.0294460205
   18      C      -2.6020073870     2.5753266839    -1.5139857354
   19      H      -2.6562935714     3.1535780819    -2.4264353624
   20      C      -1.3968567987     2.0174316404    -1.1133884412
   21      H      -0.5053351397     2.1562362131    -1.7122607192
   22      C      -1.3276489486     1.2490925729     0.0391435701
   23      C      -3.5805887082    -0.1378054631     2.6182867415
   24      C      -4.0671063852    -1.3897774474     2.2954545840
   25      H      -3.5113130999    -2.0124426671     1.6029012988
   26      C      -4.2928389560     0.6836941537     3.4844199050
   27      H      -3.9164443910     1.6743805988     3.7139915920
   28      C      -5.4795751208     0.2420899727     4.0508664257
   29      C      -5.2625865774    -1.8487344415     2.8472983893
   30      C      -5.9659070388    -1.0378477672     3.7407171986
   31      C      -6.2543349037     1.1312737468     4.9824312745
   32      H      -5.7343241250     2.0698715580     5.1700822709
   33      H      -6.4228258129     0.6498790448     5.9485174517
   34      H      -7.2365878296     1.3757632961     4.5713604029
   35      C      -5.7500410932    -3.2294518976     2.4843771831
   36      H      -6.8153404983    -3.3300270118     2.7098578618
   37      H      -5.6632279910    -3.3686385309     1.4034420720
   38      C      -4.9792119041    -4.3400860540     3.1943406513
   39      H      -5.0984618267    -4.2753401683     4.2760051478
   40      H      -5.3365110157    -5.3206851719     2.8787319732
   41      H      -3.9129324039    -4.2858571362     2.9717835750
   42      B      -7.2867959257    -1.5313649590     4.4359960671
   43      C      -7.2047579788    -2.2432453194     5.8179587484
   44      C      -5.9653146405    -2.6168600893     6.3476870629
   45      H      -5.0514166497    -2.3388045130     5.8348368086
   46      C      -5.9077625181    -3.3915858068     7.4946678887
   47      C      -7.0987185488    -3.7577341611     8.1587872566
   48      C      -8.3269001137    -3.3369779649     7.6805119875
   49      H      -9.2369688157    -3.6180106011     8.1991395405
   50      C      -8.3958516932    -2.5982027742     6.4986012239
   51      C      -4.7905090254    -4.0546928073     8.1695736417
   52      C      -3.4403134313    -4.1472194663     7.9546772205
   53      H      -2.9485691072    -3.6047008558     7.1564908954
   54      C      -5.3583640385    -4.8092276888     9.2146338127
   55      C      -4.6442468537    -5.6684888811    10.0419604947
   56      C      -6.7566711388    -4.6571014384     9.2572473497
   57      C      -7.4747714511    -5.3778152260    10.1760385388
   58      H      -8.5539771988    -5.3100234823    10.2411117560
   59      C      -2.6818930445    -4.9980659454     8.7950737979
   60      H      -1.6163275312    -5.0745054765     8.6229010780
   61      C      -3.2497036019    -5.7407097761     9.8057048111
   62      H      -2.6301763100    -6.3907434272    10.4112269972
   63      C      -6.7720564795    -6.2458686473    11.0449495650
   64      H      -7.3354253548    -6.8188303859    11.7699244395
   65      C      -5.4048126509    -6.3980401592    10.9891980074
   66      H      -4.9121889117    -7.0878722279    11.6634203973
   67      B      -9.7788220474    -2.2310885486     5.8922568085
   68      C      -9.8550553181    -1.6527467177     4.4555899458
   69      C     -11.0972547483    -1.5028981248     3.8357005632
   70      H     -12.0077630661    -1.7344061387     4.3775412113
   71      C     -11.1638123518    -1.0856289051     2.5199520954
   72      C      -9.9815188003    -0.7757414481     1.8090359277
   73      C      -8.7487189959    -0.8808385294     2.4290051672
   74      H      -7.8448791916    -0.6346153628     1.8829302962
   75      C      -8.6696967900    -1.3347716639     3.7491721411
   76      C     -10.3573038407    -0.4105827529     0.4410621871
   77      C      -9.6820973051    -0.0499478686    -0.6974475491
   78      H      -8.6034269180     0.0437434797    -0.7191300412
   79      C     -11.7596339195    -0.5186002330     0.3797571284
   80      C     -12.5161560741    -0.2882623322    -0.7667703074
   81      C     -12.3017693658    -0.9194900516     1.6140301184
   82      C     -13.6600605860    -1.0902091990     1.7093696758
   83      H     -14.1357584813    -1.4026221933     2.6309274631
   84      C     -10.4251873726     0.1975915771    -1.8779954422
   85      H      -9.8892087578     0.4800168643    -2.7747630147
   86      C     -11.7960900054     0.0858410952    -1.9269989009
   87      H     -12.3231920211     0.2790381578    -2.8535821339
   88      C     -14.4557239936    -0.8553878196     0.5617506719
   89      H     -15.5266958040    -0.9913044437     0.6394839692
   90      C     -13.9157976505    -0.4685477964    -0.6436508458
   91      H     -14.5609638789    -0.3059065740    -1.4986603253
   92      C     -11.0934582629    -2.5075693433     6.7083156205
   93      C     -11.5883157978    -1.5467450058     7.5935142418
   94      C     -12.7268643389    -1.8191131375     8.3478950830
   95      H     -13.1113326326    -1.0830322121     9.0452327806
   96      C     -13.3814750824    -3.0282633452     8.2109522322
   97      C     -12.9100007052    -3.9764705496     7.3113600119
   98      H     -13.4385421060    -4.9170948599     7.1987170799
   99      C     -11.7689125421    -3.7298740142     6.5612391785
  100      N     -14.5581661048    -3.2643118574     8.9810056677
  101      C     -15.7963451468    -3.0058692270     8.3731621806
  102      C     -14.4759055197    -4.1182840687    10.0919577463
  103      C     -16.9509859369    -2.9101901581     9.1556451125
  104      C     -18.1936300725    -2.6975568921     8.5780351468
  105      H     -19.0713649121    -2.6480490691     9.2103970026
  106      C     -18.3077883294    -2.5237384005     7.2067739404
  107      H     -19.2757965282    -2.3386606104     6.7610171553
  108      C     -17.1666171030    -2.5875701260     6.4237342504
  109      H     -17.2337464804    -2.4524350403     5.3520194575
  110      C     -15.9266973585    -2.8399145264     6.9934289097
  111      H     -15.0591538753    -2.8970281478     6.3514958328
  112      C     -15.5081668828    -4.1295802019    11.0354245203
  113      C     -15.4804779159    -4.9981188347    12.1159727452
  114      H     -16.3052493928    -4.9970178082    12.8177006859
  115      C     -14.3973805229    -5.8427648834    12.3080342789
  116      H     -14.3711803918    -6.5067467272    13.1613939119
  117      C     -13.3545734917    -5.8171191123    11.3963117379
  118      H     -12.4982687619    -6.4652213736    11.5295493105
  119      C     -13.3959865382    -4.9772555063    10.2929740686
  120      H     -12.5722420614    -4.9932703681     9.5942461789
  121      C     -11.2699038632    -4.7656973876     5.5923707422
  122      H     -11.8582876959    -5.6810641755     5.6472718355
  123      H     -11.3195755463    -4.4053384895     4.5624952281
  124      H     -10.2285583610    -5.0322303666     5.7862682919
  125      C     -10.9506041016    -0.1866987818     7.6956886219
  126      H      -9.8926216184    -0.2360331086     7.4202424204
  127      H     -10.9728202230     0.1569490739     8.7325777194
  128      C     -11.6588774806     0.8348521974     6.8074696373
  129      H     -11.6293489655     0.5325896887     5.7601783079
  130      H     -11.1878909538     1.8150793141     6.8863961015
  131      H     -12.7062587585     0.9419088197     7.0927331698
  132      S     -16.7981185156    -2.9387008585    10.9073334515
 ----------------------------------------------------------------

   13   -3799.4616578872      5.06E-09 Convergence criterion met
 Total energy in the final basis set = -3799.46165789
 Final energy is   -3799.46165788722
 **  OPTIMIZATION CONVERGED  **

                    Orbital Energies (a.u.)
 --------------------------------------------------------------

 Alpha MOs
 -- Occupied --
-89.602 -89.602 -14.685 -14.685 -10.507 -10.506 -10.506 -10.506
-10.489 -10.489 -10.486 -10.486 -10.485 -10.485 -10.470 -10.469
-10.469 -10.468 -10.467 -10.467 -10.467 -10.467 -10.466 -10.466
-10.465 -10.465 -10.465 -10.464 -10.463 -10.463 -10.463 -10.463
-10.463 -10.462 -10.460 -10.460 -10.460 -10.460 -10.460 -10.459
-10.459 -10.459 -10.459 -10.459 -10.457 -10.457 -10.457 -10.457
-10.452 -10.452 -10.452 -10.452 -10.451 -10.451 -10.451 -10.451
-10.451 -10.450 -10.448 -10.447 -10.447 -10.447 -10.447 -10.447
-10.447 -10.446 -10.442 -10.441 -10.441 -10.440 -10.439 -10.439
-10.434 -10.434 -10.431 -10.431 -10.423 -10.423  -8.241  -8.241
 -6.958  -6.956  -6.133  -6.132  -6.129  -6.129  -6.124  -6.123
 -1.094  -1.094  -1.020  -1.020  -0.979  -0.978  -0.972  -0.972
 -0.967  -0.964  -0.955  -0.955  -0.935  -0.935  -0.914  -0.905
 -0.905  -0.905  -0.890  -0.890  -0.868  -0.863  -0.861  -0.860
 -0.859  -0.856  -0.849  -0.848  -0.848  -0.848  -0.827  -0.824
 -0.823  -0.819  -0.815  -0.811  -0.810  -0.809  -0.775  -0.775
 -0.769  -0.769  -0.739  -0.735  -0.729  -0.723  -0.723  -0.721
 -0.715  -0.714  -0.714  -0.713  -0.691  -0.684  -0.684  -0.683
 -0.682  -0.670  -0.661  -0.654  -0.652  -0.651  -0.646  -0.645
 -0.636  -0.636  -0.620  -0.620  -0.600  -0.598  -0.592  -0.591
 -0.591  -0.590  -0.586  -0.578  -0.576  -0.562  -0.562  -0.559
 -0.554  -0.548  -0.548  -0.546  -0.540  -0.539  -0.531  -0.530
 -0.529  -0.529  -0.528  -0.522  -0.516  -0.513  -0.506  -0.505
 -0.505  -0.502  -0.502  -0.500  -0.500  -0.497  -0.496  -0.494
 -0.493  -0.490  -0.489  -0.486  -0.486  -0.486  -0.482  -0.481
 -0.480  -0.478  -0.478  -0.477  -0.473  -0.470  -0.469  -0.467
 -0.461  -0.457  -0.452  -0.450  -0.449  -0.449  -0.446  -0.442
 -0.441  -0.437  -0.436  -0.435  -0.433  -0.431  -0.431  -0.430
 -0.426  -0.425  -0.423  -0.419  -0.419  -0.416  -0.406  -0.405
 -0.401  -0.400  -0.399  -0.398  -0.398  -0.396  -0.395  -0.395
 -0.393  -0.391  -0.387  -0.386  -0.385  -0.384  -0.383  -0.376
 -0.372  -0.370  -0.364  -0.357  -0.355  -0.353  -0.351  -0.347
 -0.325  -0.319  -0.309  -0.308  -0.304  -0.303  -0.299  -0.298
 -0.287  -0.286  -0.284  -0.284  -0.283  -0.273  -0.272  -0.266
 -0.263  -0.260  -0.232  -0.229

 Beta MOs
 -- Occupied --
-89.602 -89.602 -14.685 -14.685 -10.507 -10.506 -10.506 -10.506
-10.489 -10.489 -10.486 -10.486 -10.485 -10.485 -10.470 -10.469
-10.469 -10.468 -10.467 -10.467 -10.467 -10.467 -10.466 -10.466
-10.465 -10.465 -10.465 -10.464 -10.463 -10.463 -10.463 -10.463
-10.463 -10.462 -10.460 -10.460 -10.460 -10.460 -10.460 -10.459
-10.459 -10.459 -10.459 -10.459 -10.457 -10.457 -10.457 -10.457
-10.452 -10.452 -10.452 -10.452 -10.451 -10.451 -10.451 -10.451
-10.451 -10.450 -10.448 -10.447 -10.447 -10.447 -10.447 -10.447
-10.447 -10.446 -10.442 -10.441 -10.441 -10.440 -10.439 -10.439
-10.434 -10.434 -10.431 -10.431 -10.423 -10.423  -8.241  -8.241
 -6.958  -6.956  -6.133  -6.132  -6.129  -6.129  -6.124  -6.123
 -1.094  -1.094  -1.020  -1.020  -0.979  -0.978  -0.972  -0.972
 -0.967  -0.964  -0.955  -0.955  -0.935  -0.935  -0.914  -0.905
 -0.905  -0.905  -0.890  -0.890  -0.868  -0.863  -0.861  -0.860
 -0.859  -0.856  -0.849  -0.848  -0.848  -0.848  -0.827  -0.824
 -0.823  -0.819  -0.815  -0.811  -0.810  -0.809  -0.775  -0.775
 -0.769  -0.769  -0.739  -0.735  -0.729  -0.723  -0.723  -0.721
 -0.715  -0.714  -0.714  -0.713  -0.691  -0.684  -0.684  -0.683
 -0.682  -0.670  -0.661  -0.654  -0.652  -0.651  -0.646  -0.645
 -0.636  -0.636  -0.620  -0.620  -0.600  -0.598  -0.592  -0.591
 -0.591  -0.590  -0.586  -0.578  -0.576  -0.562  -0.562  -0.559
 -0.554  -0.548  -0.548  -0.546  -0.540  -0.539  -0.531  -0.530
 -0.529  -0.529  -0.528  -0.522  -0.516  -0.513  -0.506  -0.505
 -0.505  -0.502  -0.502  -0.500  -0.500  -0.497  -0.496  -0.494
 -0.493  -0.490  -0.489  -0.486  -0.486  -0.486  -0.482  -0.481
 -0.480  -0.478  -0.478  -0.477  -0.473  -0.470  -0.469  -0.467
 -0.461  -0.457  -0.452  -0.450  -0.449  -0.449  -0.446  -0.442
 -0.441  -0.437  -0.436  -0.435  -0.433  -0.431  -0.431  -0.430
 -0.426  -0.425  -0.423  -0.419  -0.419  -0.416  -0.406  -0.405
 -0.401  -0.400  -0.399  -0.398  -0.398  -0.396  -0.395  -0.395
 -0.393  -0.391  -0.387  -0.386  -0.385  -0.384  -0.383  -0.376
 -0.372  -0.370  -0.364  -0.357  -0.355  -0.353  -0.351  -0.347
 -0.325  -0.319  -0.309  -0.308  -0.304  -0.303  -0.299  -0.298
 -0.287  -0.286  -0.284  -0.284  -0.283  -0.273  -0.272  -0.266
 -0.263  -0.260  -0.232  -0.229

          Ground-State Mulliken Net Atomic Charges

     Atom                 Charge (a.u.)    Spin (a.u.)
  --------------------------------------------------------
      1 S                     0.121240       0.000000
      2 C                    -0.205878      -0.000000
      3 C                    -0.267010       0.000000
      4 H                     0.260363       0.000000
      5 C                    -0.261495      -0.000000
      6 H                     0.250285       0.000000
      7 C                    -0.248131       0.000000
      8 H                     0.252260       0.000000
      9 C                    -0.317668      -0.000000
     10 H                     0.275276       0.000000
     11 C                     0.417750       0.000000
     12 N                    -0.709437      -0.000000
     13 C                     0.414208      -0.000000
     14 C                    -0.312865       0.000000
     15 H                     0.274198       0.000000
     16 C                    -0.249324       0.000000
     17 H                     0.251906       0.000000
     18 C                    -0.260818       0.000000
     19 H                     0.250286      -0.000000
     20 C                    -0.268931      -0.000000
     21 H                     0.260131       0.000000
     22 C                    -0.199108       0.000000
     23 C                     0.219888       0.000000
     24 C                    -0.319178      -0.000000
     25 H                     0.245391      -0.000000
     26 C                    -0.339682      -0.000000
     27 H                     0.259025      -0.000000
     28 C                     0.030976      -0.000000
     29 C                     0.058464      -0.000000
     30 C                    -0.209432       0.000000
     31 C                    -0.777634       0.000000
     32 H                     0.258616      -0.000000
     33 H                     0.253720      -0.000000
     34 H                     0.252513       0.000000
     35 C                    -0.549936       0.000000
     36 H                     0.253599       0.000000
     37 H                     0.247964       0.000000
     38 C                    -0.655614       0.000000
     39 H                     0.233683       0.000000
     40 H                     0.231389      -0.000000
     41 H                     0.225287      -0.000000
     42 B                     0.693137       0.000000
     43 C                    -0.152483       0.000000
     44 C                    -0.397790      -0.000000
     45 H                     0.251844      -0.000000
     46 C                     0.086739      -0.000000
     47 C                     0.075426      -0.000000
     48 C                    -0.388164       0.000000
     49 H                     0.247442      -0.000000
     50 C                    -0.155489      -0.000000
     51 C                     0.174512      -0.000000
     52 C                    -0.391789       0.000000
     53 H                     0.253234       0.000000
     54 C                    -0.064173      -0.000000
     55 C                     0.219108       0.000000
     56 C                     0.172907       0.000000
     57 C                    -0.385620      -0.000000
     58 H                     0.251528      -0.000000
     59 C                    -0.232608      -0.000000
     60 H                     0.258623       0.000000
     61 C                    -0.347157       0.000000
     62 H                     0.255722       0.000000
     63 C                    -0.233715       0.000000
     64 H                     0.258313       0.000000
     65 C                    -0.345326      -0.000000
     66 H                     0.255599      -0.000000
     67 B                     0.683096       0.000000
     68 C                    -0.145017      -0.000000
     69 C                    -0.396926       0.000000
     70 H                     0.251485       0.000000
     71 C                     0.075589       0.000000
     72 C                     0.084797      -0.000000
     73 C                    -0.394241      -0.000000
     74 H                     0.244200       0.000000
     75 C                    -0.160224       0.000000
     76 C                     0.180682       0.000000
     77 C                    -0.393321      -0.000000
     78 H                     0.252074      -0.000000
     79 C                    -0.065461      -0.000000
     80 C                     0.218919       0.000000
     81 C                     0.180783      -0.000000
     82 C                    -0.391581       0.000000
     83 H                     0.250533      -0.000000
     84 C                    -0.232528       0.000000
     85 H                     0.258579      -0.000000
     86 C                    -0.346656      -0.000000
     87 H                     0.256084      -0.000000
     88 C                    -0.232761      -0.000000
     89 H                     0.258342      -0.000000
     90 C                    -0.345629       0.000000
     91 H                     0.256043      -0.000000
     92 C                    -0.209831       0.000000
     93 C                     0.052134       0.000000
     94 C                    -0.325914       0.000000
     95 H                     0.245037       0.000000
     96 C                     0.227035      -0.000000
     97 C                    -0.339404       0.000000
     98 H                     0.260843       0.000000
     99 C                     0.036894      -0.000000
    100 N                    -0.706854       0.000000
    101 C                     0.408441      -0.000000
    102 C                     0.410049       0.000000
    103 C                    -0.200215       0.000000
    104 C                    -0.268067       0.000000
    105 H                     0.260321       0.000000
    106 C                    -0.260200      -0.000000
    107 H                     0.250422       0.000000
    108 C                    -0.248649       0.000000
    109 H                     0.250965       0.000000
    110 C                    -0.308702       0.000000
    111 H                     0.272705      -0.000000
    112 C                    -0.204110      -0.000000
    113 C                    -0.267208       0.000000
    114 H                     0.260460       0.000000
    115 C                    -0.260660      -0.000000
    116 H                     0.250453      -0.000000
    117 C                    -0.248172       0.000000
    118 H                     0.251389       0.000000
    119 C                    -0.312749      -0.000000
    120 H                     0.275134       0.000000
    121 C                    -0.769917      -0.000000
    122 H                     0.256031      -0.000000
    123 H                     0.251293      -0.000000
    124 H                     0.251610      -0.000000
    125 C                    -0.558616      -0.000000
    126 H                     0.257326      -0.000000
    127 H                     0.249894      -0.000000
    128 C                    -0.657702      -0.000000
    129 H                     0.236381       0.000000
    130 H                     0.230571       0.000000
    131 H                     0.226364      -0.000000
    132 S                     0.122256      -0.000000
  --------------------------------------------------------
  Sum of atomic charges =    -0.000000

                    Cartesian Multipole Moments
 -----------------------------------------------------------------
    Charge (ESU x 10^10)
                -0.0000
    Dipole Moment (Debye)
         X      -0.6399      Y      -2.1252      Z      -1.4516
       Tot       2.6520
    Quadrupole Moments (Debye-Ang)
        XX    -458.1379     XY       2.0994     YY    -449.1478
        XZ      67.6010     YZ     -38.6835     ZZ    -450.8023

 Total job time:  104373.84s(wall), 404146.94s(cpu)
        *  Thank you very much for using Q-Chem.  Have a nice day.  *
