 Q-Chem 5.1, Q-Chem, Inc., Pleasanton, CA (2018)
 Q-Chem 5.1.1 for Intel X86 EM64T Linux

User input:
--------------------------------------------------------------
$rem
threads 8
jobtype	sp
method PBEh-3c
basis def2-mSVP
mem_static	1024
mem_total	8000
sym_ignore	true
unrestricted true
scf_convergence	9
solvent_method	pcm
$end

$molecule
read moms1preopt_vac.mol
$end

$solvent
dielectric	1.0001
$end

$pcm
theory iefpcm
$end
--------------------------------------------------------------

   17   -3799.4163921051      5.34e-10  Convergence criterion met
 Total energy in the final basis set =    -3799.4163921051
 Total job time:  4179.19s(wall), 31209.12s(cpu)
        *  Thank you very much for using Q-Chem.  Have a nice day.  *
 Q-Chem 5.1, Q-Chem, Inc., Pleasanton, CA (2018)
 Q-Chem 5.1.1 for Intel X86 EM64T Linux

User input:
--------------------------------------------------------------

$rem
threads 8
jobtype opt
method PBEh-3c
basis def2-mSVP
scf_guess	read
mem_static      1024
mem_total       8000
sym_ignore      true
unrestricted true
mom_start       1
scf_algorithm	diis
scf_max_cycles	2500
solvent_method	pcm
geom_opt_tol_energy 25
geom_opt_tol_gradient 75
$end

$solvent
dielectric      1.0001
$end

$pcm
theory iefpcm
$end

$occupied
1 2 3 4 5 6 7 8 9 10 11 12 13 14 15 16 17 18 19 20 21 22 23 24 25 26 27 28 29 30 31 32 33 34 35 36 37 38 39 40 41 42 43 44 45 46 47 48 49 50 51 52 53 54 55 56 57 58 59 60 61 62 63 64 65 66 67 68 69 70 71 72 73 74 75 76 77 78 79 80 81 82 83 84 85 86 87 88 89 90 91 92 93 94 95 96 97 98 99 100 101 102 103 104 105 106 107 108 109 110 111 112 113 114 115 116 117 118 119 120 121 122 123 124 125 126 127 128 129 130 131 132 133 134 135 136 137 138 139 140 141 142 143 144 145 146 147 148 149 150 151 152 153 154 155 156 157 158 159 160 161 162 163 164 165 166 167 168 169 170 171 172 173 174 175 176 177 178 179 180 181 182 183 184 185 186 187 188 189 190 191 192 193 194 195 196 197 198 199 200 201 202 203 204 205 206 207 208 209 210 211 212 213 214 215 216 217 218 219 220 221 222 223 224 225 226 227 228 229 230 231 232 233 234 235 236 237 238 239 240 241 242 243 244 245 246 247 248 249 250 251 252 253 254 255 256 257 258 259 260 261 262 263 264 265 266 267 268 269 270 271 272 273 274 275  277
1 2 3 4 5 6 7 8 9 10 11 12 13 14 15 16 17 18 19 20 21 22 23 24 25 26 27 28 29 30 31 32 33 34 35 36 37 38 39 40 41 42 43 44 45 46 47 48 49 50 51 52 53 54 55 56 57 58 59 60 61 62 63 64 65 66 67 68 69 70 71 72 73 74 75 76 77 78 79 80 81 82 83 84 85 86 87 88 89 90 91 92 93 94 95 96 97 98 99 100 101 102 103 104 105 106 107 108 109 110 111 112 113 114 115 116 117 118 119 120 121 122 123 124 125 126 127 128 129 130 131 132 133 134 135 136 137 138 139 140 141 142 143 144 145 146 147 148 149 150 151 152 153 154 155 156 157 158 159 160 161 162 163 164 165 166 167 168 169 170 171 172 173 174 175 176 177 178 179 180 181 182 183 184 185 186 187 188 189 190 191 192 193 194 195 196 197 198 199 200 201 202 203 204 205 206 207 208 209 210 211 212 213 214 215 216 217 218 219 220 221 222 223 224 225 226 227 228 229 230 231 232 233 234 235 236 237 238 239 240 241 242 243 244 245 246 247 248 249 250 251 252 253 254 255 256 257 258 259 260 261 262 263 264 265 266 267 268 269 270 271 272 273 274 275 276
$end

$molecule
read
$end

--------------------------------------------------------------

   21   -3799.3383412109      9.13E-09 Convergence criterion met
 Total energy in the final basis set = -3799.33834121
   41   -3799.3392849758      7.78E-09 Convergence criterion met
 Total energy in the final basis set = -3799.33928498
   39   -3799.3214106648      6.71E-09 Convergence criterion met
 Total energy in the final basis set = -3799.32141066
   27   -3799.3240741148      7.30E-09 Convergence criterion met
 Total energy in the final basis set = -3799.32407411
   38   -3799.3282250130      5.43E-09 Convergence criterion met
 Total energy in the final basis set = -3799.32822501
   25   -3799.3318633785      5.28E-09 Convergence criterion met
 Total energy in the final basis set = -3799.33186338

             Standard Nuclear Orientation (Angstroms)
    I     Atom           X                Y                Z
 ----------------------------------------------------------------
    1      C      -4.9766016956    -0.1698145079     4.3972423964
    2      C      -5.5496943396    -0.6693138362     3.2340650272
    3      C      -4.7620556017    -0.8760395794     2.0900590997
    4      C      -3.3947221512    -0.5697055382     2.1465223575
    5      C      -2.8361545954    -0.0757856972     3.3215781623
    6      C      -3.6237264372     0.1198423333     4.4415155731
    7      N      -3.0385740191     0.5810859917     5.6554361828
    8      C      -7.0100330466    -1.0293779226     3.2260695041
    9      C      -2.5084201722    -0.7592102877     0.9417256888
   10      C      -2.6312957940    -0.3852856760     6.5741167331
   11      C      -2.0175588268    -0.0633277914     7.7894745356
   12      C      -3.4863783463     2.8283860450     4.8905845259
   13      C      -2.9564355330     1.9590246951     5.8479575083
   14      C      -3.4174519656     4.2016926640     5.0458926511
   15      C      -2.8210681564     4.7536192971     6.1656751891
   16      C      -2.2998568125     3.9053464074     7.1276128522
   17      C      -2.3621167991     2.5275273446     6.9797704108
   18      C      -2.8283227534    -1.7406267746     6.2911635835
   19      C      -2.4470007749    -2.7284086578     7.1821882399
   20      C      -1.8509588262    -2.3975708088     8.3858008832
   21      C      -1.6397604547    -1.0606532263     8.6769343094
   22      C      -6.8902231555    -1.3274601431    -1.2927386307
   23      C      -6.2675930254    -0.6943421381    -0.1708327337
   24      B      -5.4228358033    -1.5312253660     0.8067388188
   25      C      -5.2562935675    -3.0420744600     0.5681613460
   26      C      -5.8788863035    -3.6642457182    -0.5582981847
   27      B      -6.7119000155    -2.8282356466    -1.5202240257
   28      C      -4.5008719457    -3.8354592495     1.4530491255
   29      C      -4.3478852252    -5.1831634447     1.2390973426
   30      C      -4.9713036198    -5.7998158013     0.1146142537
   31      C      -5.7160820869    -5.0491646545    -0.7569275677
   32      C      -7.6673336817    -0.5501142079    -2.1724041931
   33      C      -7.8338058335     0.7928887825    -1.9637209212
   34      C      -7.2144392962     1.4325531921    -0.8503189060
   35      C      -6.4485111278     0.6916025681     0.0182143113
   36      C      -2.8559375800    -6.2638958280     3.1068967623
   37      C      -2.3237171742    -7.5073656442     3.5235758844
   38      C      -2.5538222241    -8.6784908193     2.8428097430
   39      C      -3.3490411037    -8.6682664329     1.6711720130
   40      C      -3.8575349419    -7.4308651743     1.2849131136
   41      C      -3.6346527472    -6.2240304297     1.9796790736
   42      C      -3.6848832586    -9.7695936715     0.8462108708
   43      C      -4.4705358508    -9.5822710866    -0.2661553390
   44      C      -4.9712929978    -8.3123364210    -0.6365853587
   45      C      -4.6619220050    -7.2281181512     0.1445445129
   46      C      -7.8856019552     5.1942490695    -0.5067458046
   47      C      -7.3197525185     3.9536872737    -0.1267421382
   48      C      -7.5805143658     2.8491071539    -0.8950834505
   49      C      -8.4061965154     3.0123614792    -2.0285090861
   50      C      -8.9799002142     4.2160979976    -2.4249704583
   51      C      -8.6889046115     5.3390882350    -1.6130061472
   52      C      -8.5911234034     1.7910666984    -2.7075456246
   53      C      -9.3837794456     1.7734681840    -3.8265739190
   54      C      -9.9774644692     2.9830315909    -4.2530636751
   55      C      -9.7900653128     4.1713284471    -3.5865334790
   56      C      -9.3058054969    -4.4382486657    -3.9356860167
   57      C      -8.7227904339    -3.9057847386    -2.7869314432
   58      C      -7.3833993526    -3.4987369927    -2.7947102928
   59      C      -6.6303913440    -3.6534481138    -3.9755192975
   60      C      -7.2157445467    -4.1829391183    -5.1179875503
   61      C      -8.5466154442    -4.5630184009    -5.0776351303
   62      N      -9.1724736304    -5.0869528658    -6.2688858700
   63      C      -9.5663484915    -3.8157333444    -1.5446596542
   64      C      -5.1911191879    -3.2335711257    -4.0128820855
   65      C      -9.7555898093    -4.1812851970    -7.1253784665
   66      C      -9.5864361154    -2.7989265486    -6.9100901619
   67      C      -9.7745869277    -7.0734002102    -7.5477031596
   68      C      -9.0694359536    -6.4384237054    -6.5028788761
   69      C      -9.6372474260    -8.4446912665    -7.7673146234
   70      C      -8.8220198962    -9.1966512682    -6.9563117073
   71      C      -8.1372332580    -8.5840542320    -5.9028378675
   72      C      -8.2548895980    -7.2370069616    -5.6745919017
   73      C     -10.5334092192    -4.5929598117    -8.2292250663
   74      C     -11.0978800943    -3.6513288681    -9.0903497988
   75      C     -10.9083863417    -2.3092508315    -8.8648660412
   76      C     -10.1527612113    -1.8893285387    -7.7660650599
   77      H      -5.5801868303    -0.0264179189     5.2863507427
   78      H      -1.7753459060     0.1434971946     3.3713611751
   79      H      -7.1532203215    -2.0810952317     2.9698703110
   80      H      -7.5659155987    -0.4509467680     2.4870928273
   81      H      -7.4688418655    -0.8573604993     4.1997796419
   82      H      -2.7350379774    -1.7132568206     0.4601494928
   83      H      -1.4663366234    -0.8213517585     1.2658594341
   84      C      -2.6513988693     0.3636443798    -0.0825424928
   85      H      -3.9609690356     2.4254716448     4.0076429006
   86      H      -3.8382098564     4.8363399667     4.2774151773
   87      H      -2.7610504734     5.8250775311     6.2953619930
   88      H      -1.8323815527     4.3157327545     8.0147307074
   89      H      -3.2875644083    -2.0331933143     5.3583175372
   90      H      -2.6241346036    -3.7636827459     6.9229225439
   91      H      -1.5501641852    -3.1626269505     9.0878995156
   92      H      -1.1677351801    -0.7793008879     9.6106746736
   93      H      -4.0378286488    -3.3703615972     2.3171229206
   94      H      -6.1920104294    -5.5291475325    -1.6084264177
   95      H      -8.1467991851    -1.0227181486    -3.0253756514
   96      H      -5.9739054342     1.1725627424     0.8676047115
   97      H      -2.6375313570    -5.3702542496     3.6776056845
   98      H      -1.7108290851    -7.5329145134     4.4157371471
   99      H      -2.1276108600    -9.6078290219     3.2009317869
  100      H      -3.3236372159   -10.7611198662     1.0917105237
  101      H      -4.7171783374   -10.4376833158    -0.8834049421
  102      H      -5.5872207969    -8.2195281706    -1.5234511548
  103      H      -7.6759413679     6.0628882580     0.1044405562
  104      H      -6.6985357497     3.8972546701     0.7582420211
  105      H      -9.1005319729     6.3098229125    -1.8606547343
  106      H      -9.5669610551     0.8590833605    -4.3796447084
  107      H     -10.6056580289     2.9716469176    -5.1356210834
  108      H     -10.2669532578     5.0738744056    -3.9490323038
  109      H     -10.3464289725    -4.7451201058    -3.9342026530
  110      H      -6.6449178903    -4.2894563395    -6.0344074838
  111      H     -10.5738238245    -3.4829929612    -1.8110056636
  112      H      -9.1581585981    -3.0564576467    -0.8769215291
  113      C      -9.6457417317    -5.1511370222    -0.8097378558
  114      H      -4.7583215795    -3.3653860179    -5.0047548405
  115      H      -4.5973295441    -3.8092538094    -3.3019347735
  116      H      -5.0846490110    -2.1860264979    -3.7278101639
  117      H      -9.0017470922    -2.4554951552    -6.0700541120
  118      H     -10.1756852262    -8.9106957573    -8.5824690004
  119      H      -8.7143121140   -10.2575189733    -7.1344440300
  120      H      -7.5020258257    -9.1744840859    -5.2575803694
  121      H      -7.7174799055    -6.7828690068    -4.8564375511
  122      H     -11.6789520034    -3.9864124500    -9.9398540503
  123      H     -11.3401146583    -1.5833088756    -9.5395081573
  124      H     -10.0033369900    -0.8339896927    -7.5859027127
  125      H     -10.0661539147    -5.9341246386    -1.4441919255
  126      H     -10.2770296230    -5.0664919230     0.0747212097
  127      H      -8.6584735979    -5.4765978495    -0.4826994866
  128      H      -1.9706709325     0.2088710508    -0.9208363116
  129      H      -2.4231006858     1.3338339805     0.3604008892
  130      H      -3.6639370332     0.4079160994    -0.4825020214
  131      S     -10.9192786575    -6.2435039554    -8.5268528013
  132      S      -1.6519192563     1.5807493543     8.2752189857
 ----------------------------------------------------------------

   23   -3799.3341134653      9.22E-09 Convergence criterion met
 Total energy in the final basis set = -3799.33411347

                    Orbital Energies (a.u.)
 --------------------------------------------------------------

 Alpha MOs
 -- Occupied --
-89.713 -89.574 -14.804 -14.657 -10.598 -10.598 -10.581 -10.581
-10.537 -10.536 -10.530 -10.529 -10.528 -10.528 -10.527 -10.527
-10.527 -10.480 -10.480 -10.476 -10.476 -10.474 -10.470 -10.460
-10.460 -10.454 -10.439 -10.439 -10.439 -10.438 -10.438 -10.438
-10.437 -10.437 -10.437 -10.435 -10.434 -10.434 -10.434 -10.433
-10.433 -10.433 -10.432 -10.432 -10.432 -10.431 -10.430 -10.430
-10.430 -10.425 -10.424 -10.424 -10.423 -10.422 -10.422 -10.421
-10.421 -10.421 -10.421 -10.421 -10.421 -10.420 -10.420 -10.419
-10.418 -10.418 -10.414 -10.413 -10.413 -10.413 -10.405 -10.398
-10.395 -10.392 -10.391 -10.390 -10.388 -10.388  -8.352  -8.214
 -6.885  -6.882  -6.243  -6.240  -6.234  -6.106  -6.102  -6.097
 -1.188  -1.067  -1.058  -1.054  -0.995  -0.986  -0.985  -0.984
 -0.948  -0.947  -0.946  -0.931  -0.927  -0.925  -0.922  -0.910
 -0.907  -0.906  -0.900  -0.888  -0.878  -0.872  -0.864  -0.855
 -0.847  -0.837  -0.831  -0.826  -0.823  -0.821  -0.821  -0.821
 -0.820  -0.808  -0.795  -0.792  -0.788  -0.786  -0.781  -0.777
 -0.776  -0.768  -0.762  -0.744  -0.738  -0.724  -0.715  -0.712
 -0.709  -0.703  -0.700  -0.699  -0.693  -0.693  -0.690  -0.680
 -0.660  -0.657  -0.657  -0.650  -0.650  -0.641  -0.632  -0.630
 -0.625  -0.616  -0.615  -0.614  -0.612  -0.612  -0.609  -0.601
 -0.599  -0.589  -0.579  -0.578  -0.572  -0.568  -0.567  -0.567
 -0.562  -0.560  -0.555  -0.553  -0.548  -0.546  -0.539  -0.527
 -0.523  -0.523  -0.522  -0.514  -0.513  -0.511  -0.510  -0.507
 -0.506  -0.501  -0.498  -0.497  -0.494  -0.491  -0.487  -0.485
 -0.483  -0.479  -0.476  -0.476  -0.472  -0.472  -0.469  -0.468
 -0.465  -0.464  -0.461  -0.461  -0.459  -0.459  -0.457  -0.455
 -0.454  -0.453  -0.452  -0.451  -0.448  -0.443  -0.440  -0.438
 -0.436  -0.435  -0.433  -0.430  -0.426  -0.420  -0.416  -0.415
 -0.414  -0.411  -0.409  -0.407  -0.403  -0.401  -0.396  -0.395
 -0.394  -0.392  -0.390  -0.386  -0.385  -0.383  -0.376  -0.372
 -0.371  -0.371  -0.370  -0.369  -0.367  -0.363  -0.362  -0.357
 -0.356  -0.353  -0.346  -0.340  -0.338  -0.338  -0.337  -0.332
 -0.317  -0.316  -0.304  -0.303  -0.291  -0.289  -0.284  -0.283
 -0.282  -0.272  -0.270  -0.254  -0.250  -0.247  -0.240  -0.237
 -0.227  -0.221  -0.184  -0.132

 Beta MOs
 -- Occupied --
-89.714 -89.574 -14.813 -14.657 -10.598 -10.597 -10.584 -10.584
-10.535 -10.535 -10.532 -10.531 -10.529 -10.529 -10.527 -10.526
-10.526 -10.480 -10.480 -10.477 -10.477 -10.474 -10.469 -10.460
-10.460 -10.454 -10.440 -10.440 -10.439 -10.439 -10.438 -10.438
-10.437 -10.436 -10.436 -10.435 -10.435 -10.435 -10.434 -10.433
-10.433 -10.432 -10.432 -10.432 -10.431 -10.431 -10.430 -10.430
-10.430 -10.425 -10.424 -10.424 -10.423 -10.422 -10.421 -10.421
-10.421 -10.421 -10.421 -10.420 -10.420 -10.420 -10.419 -10.418
-10.418 -10.418 -10.415 -10.414 -10.414 -10.413 -10.405 -10.398
-10.395 -10.392 -10.391 -10.390 -10.388 -10.387  -8.354  -8.214
 -6.882  -6.880  -6.244  -6.241  -6.240  -6.106  -6.102  -6.097
 -1.203  -1.067  -1.065  -1.058  -0.999  -0.988  -0.984  -0.983
 -0.949  -0.948  -0.946  -0.934  -0.926  -0.923  -0.922  -0.912
 -0.906  -0.905  -0.901  -0.890  -0.878  -0.871  -0.864  -0.855
 -0.853  -0.837  -0.830  -0.827  -0.823  -0.820  -0.820  -0.820
 -0.819  -0.811  -0.795  -0.794  -0.786  -0.785  -0.780  -0.777
 -0.776  -0.767  -0.764  -0.744  -0.737  -0.725  -0.718  -0.715
 -0.710  -0.702  -0.699  -0.697  -0.693  -0.692  -0.689  -0.680
 -0.661  -0.660  -0.657  -0.649  -0.648  -0.640  -0.633  -0.630
 -0.624  -0.618  -0.615  -0.615  -0.612  -0.612  -0.608  -0.608
 -0.599  -0.599  -0.580  -0.578  -0.572  -0.569  -0.567  -0.566
 -0.562  -0.560  -0.558  -0.554  -0.547  -0.545  -0.538  -0.526
 -0.526  -0.523  -0.523  -0.522  -0.514  -0.513  -0.513  -0.507
 -0.506  -0.501  -0.500  -0.498  -0.498  -0.493  -0.491  -0.486
 -0.484  -0.479  -0.479  -0.476  -0.475  -0.472  -0.471  -0.469
 -0.466  -0.464  -0.462  -0.461  -0.459  -0.459  -0.457  -0.454
 -0.453  -0.453  -0.452  -0.451  -0.451  -0.448  -0.443  -0.440
 -0.436  -0.436  -0.432  -0.430  -0.425  -0.420  -0.415  -0.415
 -0.413  -0.411  -0.408  -0.407  -0.403  -0.399  -0.396  -0.393
 -0.393  -0.393  -0.390  -0.389  -0.388  -0.384  -0.382  -0.376
 -0.371  -0.370  -0.368  -0.367  -0.367  -0.362  -0.362  -0.357
 -0.356  -0.354  -0.353  -0.345  -0.338  -0.338  -0.331  -0.330
 -0.315  -0.315  -0.312  -0.305  -0.302  -0.289  -0.284  -0.283
 -0.282  -0.280  -0.269  -0.268  -0.250  -0.247  -0.241  -0.240
 -0.230  -0.224  -0.214  -0.184

          Ground-State Mulliken Net Atomic Charges

     Atom                 Charge (a.u.)    Spin (a.u.)
  --------------------------------------------------------
      1 C                    -0.294174      -0.001958
      2 C                     0.026666       0.004752
      3 C                    -0.177005      -0.026234
      4 C                     0.057140       0.005168
      5 C                    -0.293944      -0.002022
      6 C                     0.157044       0.002517
      7 N                    -0.726069      -0.000133
      8 C                    -0.753647       0.000411
      9 C                    -0.535781       0.001821
     10 C                     0.447603       0.000043
     11 C                    -0.196827       0.000004
     12 C                    -0.311664       0.000022
     13 C                     0.449950       0.000038
     14 C                    -0.221591      -0.000005
     15 C                    -0.236124       0.000000
     16 C                    -0.245167      -0.000003
     17 C                    -0.197913       0.000000
     18 C                    -0.311425       0.000019
     19 C                    -0.222135      -0.000010
     20 C                    -0.235858       0.000002
     21 C                    -0.245710      -0.000006
     22 C                    -0.133719       0.007981
     23 C                    -0.142355       0.063339
     24 B                     0.576092       0.279874
     25 C                    -0.140771       0.064567
     26 C                    -0.120089       0.004289
     27 B                     0.528973       0.346869
     28 C                    -0.393619      -0.058387
     29 C                     0.095151       0.094383
     30 C                     0.081732       0.036294
     31 C                    -0.406116      -0.014297
     32 C                    -0.387966      -0.017887
     33 C                     0.080561       0.039254
     34 C                     0.098791       0.091751
     35 C                    -0.407973      -0.058195
     36 C                    -0.395197       0.084848
     37 C                    -0.199722      -0.052239
     38 C                    -0.346580       0.077034
     39 C                     0.252461      -0.037451
     40 C                    -0.079468       0.022806
     41 C                     0.200274      -0.056133
     42 C                    -0.343985       0.063520
     43 C                    -0.199042      -0.044888
     44 C                    -0.390618       0.067639
     45 C                     0.203093      -0.041968
     46 C                    -0.198700      -0.052272
     47 C                    -0.395914       0.084563
     48 C                     0.199786      -0.055523
     49 C                    -0.079398       0.022889
     50 C                     0.254322      -0.037805
     51 C                    -0.348659       0.077130
     52 C                     0.200189      -0.042662
     53 C                    -0.386396       0.069354
     54 C                    -0.199434      -0.045838
     55 C                    -0.344013       0.065698
     56 C                    -0.280047      -0.014175
     57 C                     0.041508       0.004771
     58 C                    -0.149360      -0.025691
     59 C                     0.024796       0.005367
     60 C                    -0.313284      -0.014345
     61 C                     0.116483       0.026222
     62 N                    -0.631927      -0.346779
     63 C                    -0.544520       0.003099
     64 C                    -0.748359       0.000216
     65 C                     0.440823       0.022871
     66 C                    -0.267726      -0.073031
     67 C                    -0.205443      -0.150074
     68 C                     0.442086       0.024432
     69 C                    -0.231844       0.099847
     70 C                    -0.208447      -0.148994
     71 C                    -0.213002       0.041388
     72 C                    -0.269723      -0.074155
     73 C                    -0.205154      -0.150096
     74 C                    -0.232110       0.099788
     75 C                    -0.207804      -0.149034
     76 C                    -0.215031       0.040881
     77 H                     0.219362       0.000416
     78 H                     0.216018       0.000393
     79 H                     0.247589      -0.000915
     80 H                     0.250277      -0.000417
     81 H                     0.225407       0.001562
     82 H                     0.255988      -0.001299
     83 H                     0.219305       0.000273
     84 C                    -0.651084       0.000787
     85 H                     0.265567      -0.000013
     86 H                     0.213675       0.000000
     87 H                     0.211779       0.000000
     88 H                     0.222331       0.000001
     89 H                     0.267818      -0.000012
     90 H                     0.214360       0.000005
     91 H                     0.211752      -0.000000
     92 H                     0.222151       0.000001
     93 H                     0.213984       0.002340
     94 H                     0.175746      -0.000252
     95 H                     0.170860       0.000004
     96 H                     0.214598       0.002229
     97 H                     0.211262      -0.005050
     98 H                     0.215753       0.002568
     99 H                     0.207200      -0.004646
    100 H                     0.206720      -0.003788
    101 H                     0.202217       0.002277
    102 H                     0.179680      -0.004141
    103 H                     0.215499       0.002570
    104 H                     0.210700      -0.005031
    105 H                     0.207166      -0.004651
    106 H                     0.175107      -0.004252
    107 H                     0.199610       0.002325
    108 H                     0.206347      -0.003926
    109 H                     0.221088       0.001081
    110 H                     0.227122       0.001000
    111 H                     0.219378       0.000579
    112 H                     0.292390      -0.002508
    113 C                    -0.645436      -0.000210
    114 H                     0.217096       0.002145
    115 H                     0.270293      -0.000661
    116 H                     0.272176      -0.001167
    117 H                     0.323666       0.004411
    118 H                     0.261523      -0.004362
    119 H                     0.263404       0.008269
    120 H                     0.268542      -0.001612
    121 H                     0.321082       0.004458
    122 H                     0.261514      -0.004346
    123 H                     0.263734       0.008262
    124 H                     0.270857      -0.001590
    125 H                     0.192215      -0.000038
    126 H                     0.228794      -0.000020
    127 H                     0.258357      -0.000200
    128 H                     0.208171      -0.000029
    129 H                     0.211014      -0.000064
    130 H                     0.256015      -0.000745
    131 S                     0.347616      -0.247481
    132 S                     0.157673      -0.000000
  --------------------------------------------------------
  Sum of atomic charges =    -0.000000

                    Cartesian Multipole Moments
 -----------------------------------------------------------------
    Charge (ESU x 10^10)
                -0.0000
    Dipole Moment (Debye)
         X     -13.8739      Y     -13.0071      Z     -27.0474
       Tot      33.0640
    Quadrupole Moments (Debye-Ang)
        XX    -278.6844     XY     139.7145     YY    -363.1686
        XZ     247.9775     YZ     127.5052     ZZ    -321.2123
