 Q-Chem 5.0, Q-Chem, Inc., Pleasanton, CA (2017)
 Q-Chem 5.0.1 for Intel X86 EM64T Linux

User input:
--------------------------------------------------------------
$rem
threads 8
jobtype	sp
method PBEh-3c
basis def2-mSVP
mem_static	1024
mem_total	8000
sym_ignore	true
unrestricted true
scf_convergence	9
solvent_method	pcm
$end

$molecule
read incoords.mol
$end

$solvent
dielectric	8.93
$end

$pcm
theory iefpcm
$end
--------------------------------------------------------------

   17   -3799.4483168295      8.85E-10 Convergence criterion met
 Total energy in the final basis set = -3799.44831683
 Total job time:  4972.90s(wall), 14808.28s(cpu)
        *  Thank you very much for using Q-Chem.  Have a nice day.  *
 Q-Chem 5.0, Q-Chem, Inc., Pleasanton, CA (2017)
 Q-Chem 5.0.1 for Intel X86 EM64T Linux

User input:
--------------------------------------------------------------

$rem
threads 8
jobtype opt
method PBEh-3c
basis def2-mSVP
scf_guess	read
mem_static      1024
mem_total       8000
sym_ignore      true
unrestricted true
mom_start       1
scf_algorithm	diis
scf_max_cycles	250
solvent_method	pcm
geom_opt_tol_energy 25
geom_opt_tol_gradient 75
$end

$solvent
dielectric      8.93
$end
$pcm
theory iefpcm
$end

$occupied
1 2 3 4 5 6 7 8 9 10 11 12 13 14 15 16 17 18 19 20 21 22 23 24 25 26 27 28 29 30 31 32 33 34 35 36 37 38 39 40 41 42 43 44 45 46 47 48 49 50 51 52 53 54 55 56 57 58 59 60 61 62 63 64 65 66 67 68 69 70 71 72 73 74 75 76 77 78 79 80 81 82 83 84 85 86 87 88 89 90 91 92 93 94 95 96 97 98 99 100 101 102 103 104 105 106 107 108 109 110 111 112 113 114 115 116 117 118 119 120 121 122 123 124 125 126 127 128 129 130 131 132 133 134 135 136 137 138 139 140 141 142 143 144 145 146 147 148 149 150 151 152 153 154 155 156 157 158 159 160 161 162 163 164 165 166 167 168 169 170 171 172 173 174 175 176 177 178 179 180 181 182 183 184 185 186 187 188 189 190 191 192 193 194 195 196 197 198 199 200 201 202 203 204 205 206 207 208 209 210 211 212 213 214 215 216 217 218 219 220 221 222 223 224 225 226 227 228 229 230 231 232 233 234 235 236 237 238 239 240 241 242 243 244 245 246 247 248 249 250 251 252 253 254 255 256 257 258 259 260 261 262 263 264 265 266 267 268 269 270 271 272 273 274 275  277
1 2 3 4 5 6 7 8 9 10 11 12 13 14 15 16 17 18 19 20 21 22 23 24 25 26 27 28 29 30 31 32 33 34 35 36 37 38 39 40 41 42 43 44 45 46 47 48 49 50 51 52 53 54 55 56 57 58 59 60 61 62 63 64 65 66 67 68 69 70 71 72 73 74 75 76 77 78 79 80 81 82 83 84 85 86 87 88 89 90 91 92 93 94 95 96 97 98 99 100 101 102 103 104 105 106 107 108 109 110 111 112 113 114 115 116 117 118 119 120 121 122 123 124 125 126 127 128 129 130 131 132 133 134 135 136 137 138 139 140 141 142 143 144 145 146 147 148 149 150 151 152 153 154 155 156 157 158 159 160 161 162 163 164 165 166 167 168 169 170 171 172 173 174 175 176 177 178 179 180 181 182 183 184 185 186 187 188 189 190 191 192 193 194 195 196 197 198 199 200 201 202 203 204 205 206 207 208 209 210 211 212 213 214 215 216 217 218 219 220 221 222 223 224 225 226 227 228 229 230 231 232 233 234 235 236 237 238 239 240 241 242 243 244 245 246 247 248 249 250 251 252 253 254 255 256 257 258 259 260 261 262 263 264 265 266 267 268 269 270 271 272 273 274 275 276
$end

$molecule
read
$end

--------------------------------------------------------------

   25   -3799.3967060314      5.04E-09 Convergence criterion met
 Total energy in the final basis set = -3799.39670603
   44   -3799.3973114010      8.66E-09 Convergence criterion met
 Total energy in the final basis set = -3799.39731140
   24   -3799.3974728422      5.29E-09 Convergence criterion met
 Total energy in the final basis set = -3799.39747284
   19   -3799.4502208640      5.53E-09 Convergence criterion met
 Total energy in the final basis set = -3799.45022086
   13   -3799.4541330302      6.04E-09 Convergence criterion met
 Total energy in the final basis set = -3799.45413303
   13   -3799.4576439082      5.18E-09 Convergence criterion met
 Total energy in the final basis set = -3799.45764391
   12   -3799.4581716937      9.35E-09 Convergence criterion met
   13   -3799.4630735448      5.19E-09 Convergence criterion met
 Total energy in the final basis set = -3799.46307354
   13   -3799.4630556683      5.15E-09 Convergence criterion met
 Total energy in the final basis set = -3799.46305567
   13   -3799.4630683966      5.22E-09 Convergence criterion met
 Total energy in the final basis set = -3799.46306840
   13   -3799.4630717927      5.25E-09 Convergence criterion met
 Total energy in the final basis set = -3799.46307179
   13   -3799.4630776663      5.25E-09 Convergence criterion met
 Total energy in the final basis set = -3799.46307767
   13   -3799.4630827530      5.25E-09 Convergence criterion met
 Total energy in the final basis set = -3799.46308275

             Standard Nuclear Orientation (Angstroms)
    I     Atom           X                Y                Z
 ----------------------------------------------------------------
    1      C      -4.7535184224    -0.0642656829     4.2979243156
    2      C      -5.4343811027    -0.4680714250     3.1579558926
    3      C      -4.7334007124    -0.6343211920     1.9544580958
    4      C      -3.3657615830    -0.3488510383     1.9021301395
    5      C      -2.7024888072     0.0655554757     3.0545996949
    6      C      -3.3881580459     0.1837879144     4.2493766061
    7      N      -2.6538134493     0.4521981062     5.4404042564
    8      C      -6.9022801051    -0.7878112982     3.2257085325
    9      C      -2.6028294905    -0.4929121359     0.6111669579
   10      C      -2.2514073329    -0.6706829644     6.1818677276
   11      C      -1.3370685530    -0.5352755180     7.2296251422
   12      C      -3.7220535994     2.6454961203     5.6231794733
   13      C      -2.7708685178     1.7140867113     6.0391267539
   14      C      -3.8210328721     3.8819351966     6.2443879409
   15      C      -2.9966679561     4.2088598559     7.3085845931
   16      C      -2.0447235488     3.2916536871     7.7289649503
   17      C      -1.9133515397     2.0716123625     7.0838434700
   18      C      -2.7320051044    -1.9511674106     5.8969417700
   19      C      -2.3128880899    -3.0484648942     6.6345818543
   20      C      -1.4306856075    -2.8967985624     7.6917001296
   21      C      -0.9527170018    -1.6294372758     7.9908401276
   22      C      -6.9452606813    -1.1956487296    -1.3539876858
   23      C      -6.3237759189    -0.5131409810    -0.2787443481
   24      B      -5.4654965499    -1.3129530292     0.7394102029
   25      C      -5.3381604970    -2.8616626376     0.6049986418
   26      C      -5.9505805269    -3.5326467493    -0.4808128216
   27      B      -6.7749872120    -2.7328055677    -1.5207366719
   28      C      -4.6232164886    -3.5955058255     1.5569693370
   29      C      -4.5155057878    -4.9692916441     1.4350771428
   30      C      -5.1223862258    -5.6335801073     0.3456630333
   31      C      -5.8281268043    -4.9185286404    -0.6038600185
   32      C      -7.7245135210    -0.4858016796    -2.2678263755
   33      C      -7.8930521464     0.8778043798    -2.1169716672
   34      C      -7.2774437557     1.5659933013    -1.0477848414
   35      C      -6.4967119250     0.8684002033    -0.1397513668
   36      C      -3.1131406053    -5.9591151078     3.4210729902
   37      C      -2.6292504475    -7.1877988850     3.9327657276
   38      C      -2.8728826121    -8.3942666527     3.3162463224
   39      C      -3.6319977773    -8.4389696207     2.1218720755
   40      C      -4.0926194337    -7.2160298932     1.6437421752
   41      C      -3.8527795063    -5.9767047117     2.2666864037
   42      C      -3.9755155025    -9.5810424673     1.3563024487
   43      C      -4.7237749764    -9.4435357017     0.2091484582
   44      C      -5.1775667927    -8.1851109209    -0.2544660718
   45      C      -4.8573251484    -7.0663052916     0.4718770240
   46      C      -7.9452468917     5.3407655261    -0.8797575630
   47      C      -7.3777147833     4.1190233313    -0.4412624227
   48      C      -7.6447193250     2.9809397583    -1.1564995125
   49      C      -8.4721198144     3.0848124154    -2.2918963963
   50      C      -9.0466323780     4.2662857382    -2.7464766873
   51      C      -8.7534453618     5.4277460519    -1.9910518847
   52      C      -8.6551738170     1.8350292048    -2.9108283538
   53      C      -9.4431998198     1.7542947135    -4.0300334640
   54      C     -10.0401049745     2.9417488894    -4.5158377465
   55      C      -9.8562167376     4.1622611215    -3.9053330614
   56      C      -9.3289612596    -4.5376003505    -3.7934958428
   57      C      -8.7392819547    -3.9624755198    -2.6690827442
   58      C      -7.4396008380    -3.4580929151    -2.7486685287
   59      C      -6.7289733933    -3.5647541304    -3.9557070356
   60      C      -7.3311163363    -4.1455821443    -5.0617942367
   61      C      -8.6347643054    -4.6203378842    -4.9835061068
   62      N      -9.2817968440    -5.1871899421    -6.1214194554
   63      C      -9.5254641780    -3.9320527637    -1.3833944390
   64      C      -5.3233738810    -3.0431417414    -4.0544383234
   65      C      -9.8225051960    -4.3096030462    -7.0737594654
   66      C      -9.5213319314    -2.9475372979    -7.0834314856
   67      C      -9.7969521547    -7.2083342018    -7.3659748500
   68      C      -8.9997714127    -6.5229068683    -6.4427631095
   69      C      -9.5109644024    -8.5154405809    -7.7294992034
   70      C      -8.4572002686    -9.1948331726    -7.1368882114
   71      C      -7.6854841251    -8.5398409977    -6.1916787333
   72      C      -7.9401644868    -7.2170865839    -5.8578544546
   73      C     -10.6971017530    -4.7918218979    -8.0545493086
   74      C     -11.2054449571    -3.9549423144    -9.0358762112
   75      C     -10.8997137883    -2.6024309561    -9.0321932919
   76      C     -10.0661819086    -2.1064587456    -8.0434344067
   77      H      -5.2809259879     0.0147570070     5.2421589751
   78      H      -1.6350826984     0.2526626079     3.0320091927
   79      H      -7.0997821848    -1.8186768548     2.9208303256
   80      H      -7.4843934267    -0.1439059947     2.5635374554
   81      H      -7.2939881101    -0.6648234910     4.2345351774
   82      H      -2.9893429328    -1.3438284054     0.0412542865
   83      H      -1.5581181706    -0.7283775312     0.8265307258
   84      C      -2.6685029454     0.7648743305    -0.2523848506
   85      H      -4.3888775172     2.4178669342     4.8035703594
   86      H      -4.5635187717     4.5861493229     5.8924883732
   87      H      -3.0840668360     5.1665284108     7.8032781985
   88      H      -1.3812553747     3.5293970283     8.5510579927
   89      H      -3.4304929922    -2.1085979437     5.0877261739
   90      H      -2.6963528577    -4.0281747869     6.3783091145
   91      H      -1.1118999297    -3.7501555886     8.2747719963
   92      H      -0.2565705427    -1.4875036563     8.8080018113
   93      H      -4.1546930729    -3.0906680111     2.3931788307
   94      H      -6.2903525623    -5.4335840107    -1.4392152495
   95      H      -8.2009556032    -1.0037146885    -3.0932565183
   96      H      -6.0198734297     1.3907750164     0.6824084721
   97      H      -2.8894530751    -5.0379798111     3.9453452664
   98      H      -2.0453627160    -7.1729434442     4.8437444303
   99      H      -2.4825786829    -9.3097613004     3.7440617121
  100      H      -3.6497127989   -10.5644707885     1.6729758060
  101      H      -4.9771418325   -10.3266266426    -0.3632395436
  102      H      -5.7627161257    -8.1320565894    -1.1646435159
  103      H      -7.7327482461     6.2384498239    -0.3142745851
  104      H      -6.7510785209     4.1062871463     0.4417640715
  105      H      -9.1654606769     6.3848944168    -2.2862402765
  106      H      -9.6188981937     0.8160662456    -4.5428039666
  107      H     -10.6636604508     2.8834733246    -5.3985603534
  108      H     -10.3340324983     5.0448923904    -4.3125224541
  109      H     -10.3441980504    -4.9165719332    -3.7461072503
  110      H      -6.7895381486    -4.2210506376    -5.9986957785
  111      H     -10.5287801644    -3.5441373716    -1.5785650101
  112      H      -9.0730635092    -3.2383842813    -0.6691408629
  113      C      -9.6357008029    -5.3140229326    -0.7433938452
  114      H      -4.9103911811    -3.1937979041    -5.0510426758
  115      H      -4.6620036743    -3.5435457695    -3.3439126637
  116      H      -5.2770800183    -1.9735480213    -3.8373159964
  117      H      -8.8640957172    -2.5287279923    -6.3352080572
  118      H     -10.1361040189    -9.0093442550    -8.4632243187
  119      H      -8.2515223894   -10.2217236865    -7.4071878916
  120      H      -6.8637868951    -9.0527326519    -5.7091516388
  121      H      -7.3101815489    -6.7347986417    -5.1245237537
  122      H     -11.8619719008    -4.3654795261    -9.7931928937
  123      H     -11.3135091546    -1.9497757773    -9.7888430373
  124      H      -9.8192803428    -1.0532373413    -8.0169359476
  125      H     -10.1312686890    -6.0191675434    -1.4119878640
  126      H     -10.2124561195    -5.2696434613     0.1806965347
  127      H      -8.6511671890    -5.7177754547    -0.5052663005
  128      H      -2.0887416346     0.6383171226    -1.1672763846
  129      H      -2.2694976622     1.6278035621     0.2817913585
  130      H      -3.6945002166     0.9957332103    -0.5394420441
  131      S     -11.2685249658    -6.4538191869    -7.9645637568
  132      S      -0.5604216796     1.0207052390     7.4886986427
 ----------------------------------------------------------------

   13   -3799.4630869709      5.27E-09 Convergence criterion met
 Total energy in the final basis set = -3799.46308697
 Final energy is   -3799.46308697092
 **  OPTIMIZATION CONVERGED  **

                    Orbital Energies (a.u.)
 --------------------------------------------------------------

 Alpha MOs
 -- Occupied --
-89.602 -89.602 -14.687 -14.686 -10.507 -10.507 -10.507 -10.507
-10.489 -10.489 -10.486 -10.486 -10.485 -10.485 -10.470 -10.470
-10.469 -10.468 -10.467 -10.467 -10.467 -10.467 -10.467 -10.467
-10.465 -10.465 -10.464 -10.464 -10.463 -10.463 -10.463 -10.463
-10.463 -10.462 -10.461 -10.460 -10.460 -10.460 -10.460 -10.460
-10.459 -10.459 -10.459 -10.459 -10.457 -10.457 -10.457 -10.457
-10.453 -10.452 -10.452 -10.452 -10.452 -10.451 -10.451 -10.451
-10.451 -10.451 -10.448 -10.448 -10.447 -10.447 -10.447 -10.447
-10.447 -10.446 -10.442 -10.442 -10.441 -10.440 -10.440 -10.439
-10.435 -10.434 -10.431 -10.431 -10.424 -10.423  -8.241  -8.241
 -6.958  -6.956  -6.132  -6.132  -6.129  -6.129  -6.124  -6.124
 -1.095  -1.094  -1.021  -1.020  -0.979  -0.979  -0.972  -0.972
 -0.967  -0.964  -0.956  -0.955  -0.935  -0.935  -0.914  -0.906
 -0.905  -0.905  -0.890  -0.889  -0.868  -0.863  -0.861  -0.861
 -0.859  -0.856  -0.849  -0.849  -0.848  -0.848  -0.827  -0.824
 -0.824  -0.819  -0.816  -0.811  -0.810  -0.809  -0.776  -0.775
 -0.769  -0.769  -0.739  -0.735  -0.729  -0.724  -0.723  -0.721
 -0.715  -0.714  -0.714  -0.713  -0.691  -0.685  -0.684  -0.683
 -0.682  -0.670  -0.661  -0.654  -0.652  -0.651  -0.647  -0.645
 -0.637  -0.636  -0.621  -0.621  -0.600  -0.598  -0.592  -0.592
 -0.591  -0.590  -0.586  -0.578  -0.576  -0.563  -0.562  -0.559
 -0.554  -0.548  -0.548  -0.546  -0.541  -0.540  -0.531  -0.531
 -0.529  -0.529  -0.528  -0.522  -0.516  -0.513  -0.506  -0.505
 -0.505  -0.502  -0.502  -0.500  -0.499  -0.497  -0.496  -0.495
 -0.493  -0.490  -0.489  -0.487  -0.486  -0.486  -0.483  -0.482
 -0.480  -0.479  -0.478  -0.477  -0.473  -0.470  -0.469  -0.467
 -0.462  -0.457  -0.453  -0.450  -0.450  -0.449  -0.445  -0.442
 -0.441  -0.437  -0.436  -0.436  -0.433  -0.431  -0.431  -0.430
 -0.426  -0.425  -0.423  -0.419  -0.419  -0.416  -0.406  -0.405
 -0.401  -0.400  -0.399  -0.398  -0.398  -0.396  -0.396  -0.394
 -0.393  -0.391  -0.387  -0.386  -0.385  -0.385  -0.383  -0.376
 -0.373  -0.371  -0.364  -0.357  -0.355  -0.352  -0.352  -0.348
 -0.325  -0.319  -0.309  -0.309  -0.304  -0.303  -0.299  -0.298
 -0.287  -0.286  -0.285  -0.284  -0.283  -0.273  -0.273  -0.266
 -0.263  -0.260  -0.230  -0.230

 Beta MOs
 -- Occupied --
-89.602 -89.602 -14.687 -14.686 -10.507 -10.507 -10.507 -10.507
-10.489 -10.489 -10.486 -10.486 -10.485 -10.485 -10.470 -10.470
-10.469 -10.468 -10.467 -10.467 -10.467 -10.467 -10.467 -10.467
-10.465 -10.465 -10.464 -10.464 -10.463 -10.463 -10.463 -10.463
-10.463 -10.462 -10.461 -10.460 -10.460 -10.460 -10.460 -10.460
-10.459 -10.459 -10.459 -10.459 -10.457 -10.457 -10.457 -10.457
-10.453 -10.452 -10.452 -10.452 -10.452 -10.451 -10.451 -10.451
-10.451 -10.451 -10.448 -10.448 -10.447 -10.447 -10.447 -10.447
-10.447 -10.446 -10.442 -10.442 -10.441 -10.440 -10.440 -10.439
-10.435 -10.434 -10.431 -10.431 -10.424 -10.423  -8.241  -8.241
 -6.958  -6.956  -6.132  -6.132  -6.129  -6.129  -6.124  -6.124
 -1.095  -1.094  -1.021  -1.020  -0.979  -0.979  -0.972  -0.972
 -0.967  -0.964  -0.956  -0.955  -0.935  -0.935  -0.914  -0.906
 -0.905  -0.905  -0.890  -0.889  -0.868  -0.863  -0.861  -0.861
 -0.859  -0.856  -0.849  -0.849  -0.848  -0.848  -0.827  -0.824
 -0.824  -0.819  -0.816  -0.811  -0.810  -0.809  -0.776  -0.775
 -0.769  -0.769  -0.739  -0.735  -0.729  -0.724  -0.723  -0.721
 -0.715  -0.714  -0.714  -0.713  -0.691  -0.685  -0.684  -0.683
 -0.682  -0.670  -0.661  -0.654  -0.652  -0.651  -0.647  -0.645
 -0.637  -0.636  -0.621  -0.621  -0.600  -0.598  -0.592  -0.592
 -0.591  -0.590  -0.586  -0.578  -0.576  -0.563  -0.562  -0.559
 -0.554  -0.548  -0.548  -0.546  -0.541  -0.540  -0.531  -0.531
 -0.529  -0.529  -0.528  -0.522  -0.516  -0.513  -0.506  -0.505
 -0.505  -0.502  -0.502  -0.500  -0.499  -0.497  -0.496  -0.495
 -0.493  -0.490  -0.489  -0.487  -0.486  -0.486  -0.483  -0.482
 -0.480  -0.479  -0.478  -0.477  -0.473  -0.470  -0.469  -0.467
 -0.462  -0.457  -0.453  -0.450  -0.450  -0.449  -0.445  -0.442
 -0.441  -0.437  -0.436  -0.436  -0.433  -0.431  -0.431  -0.430
 -0.426  -0.425  -0.423  -0.419  -0.419  -0.416  -0.406  -0.405
 -0.401  -0.400  -0.399  -0.398  -0.398  -0.396  -0.396  -0.394
 -0.393  -0.391  -0.387  -0.386  -0.385  -0.385  -0.383  -0.376
 -0.373  -0.371  -0.364  -0.357  -0.355  -0.352  -0.352  -0.348
 -0.325  -0.319  -0.309  -0.309  -0.304  -0.303  -0.299  -0.298
 -0.287  -0.286  -0.285  -0.284  -0.283  -0.273  -0.273  -0.266
 -0.263  -0.260  -0.230  -0.230

          Ground-State Mulliken Net Atomic Charges

     Atom                 Charge (a.u.)    Spin (a.u.)
  --------------------------------------------------------
      1 C                    -0.329407      -0.000000
      2 C                     0.032897       0.000000
      3 C                    -0.203663      -0.000000
      4 C                     0.057875       0.000000
      5 C                    -0.326026      -0.000000
      6 C                     0.203615       0.000000
      7 N                    -0.697308       0.000000
      8 C                    -0.774164      -0.000000
      9 C                    -0.552497      -0.000000
     10 C                     0.410424      -0.000000
     11 C                    -0.199374       0.000000
     12 C                    -0.319573      -0.000000
     13 C                     0.419075       0.000000
     14 C                    -0.247577       0.000000
     15 C                    -0.261961      -0.000000
     16 C                    -0.266027       0.000000
     17 C                    -0.209388      -0.000000
     18 C                    -0.312723       0.000000
     19 C                    -0.253423      -0.000000
     20 C                    -0.258527       0.000000
     21 C                    -0.268114       0.000000
     22 C                    -0.160690      -0.000000
     23 C                    -0.148397       0.000000
     24 B                     0.679139       0.000000
     25 C                    -0.153385       0.000000
     26 C                    -0.155541      -0.000000
     27 B                     0.691546       0.000000
     28 C                    -0.388350      -0.000000
     29 C                     0.087545       0.000000
     30 C                     0.075476      -0.000000
     31 C                    -0.394800       0.000000
     32 C                    -0.387426      -0.000000
     33 C                     0.073517      -0.000000
     34 C                     0.090515      -0.000000
     35 C                    -0.405007      -0.000000
     36 C                    -0.400183      -0.000000
     37 C                    -0.234952      -0.000000
     38 C                    -0.348139      -0.000000
     39 C                     0.220811      -0.000000
     40 C                    -0.066114      -0.000000
     41 C                     0.182979       0.000000
     42 C                    -0.346075       0.000000
     43 C                    -0.233088       0.000000
     44 C                    -0.391272       0.000000
     45 C                     0.182028       0.000000
     46 C                    -0.231977      -0.000000
     47 C                    -0.395695       0.000000
     48 C                     0.179792       0.000000
     49 C                    -0.065820       0.000000
     50 C                     0.222262       0.000000
     51 C                    -0.349438       0.000000
     52 C                     0.178575       0.000000
     53 C                    -0.387057       0.000000
     54 C                    -0.234347       0.000000
     55 C                    -0.345439      -0.000000
     56 C                    -0.320135      -0.000000
     57 C                     0.055881       0.000000
     58 C                    -0.217089       0.000000
     59 C                     0.036951      -0.000000
     60 C                    -0.335437       0.000000
     61 C                     0.218680       0.000000
     62 N                    -0.706739      -0.000000
     63 C                    -0.551264       0.000000
     64 C                    -0.773679      -0.000000
     65 C                     0.414210       0.000000
     66 C                    -0.314394      -0.000000
     67 C                    -0.203270       0.000000
     68 C                     0.415576      -0.000000
     69 C                    -0.266839      -0.000000
     70 C                    -0.261064      -0.000000
     71 C                    -0.248179       0.000000
     72 C                    -0.315750      -0.000000
     73 C                    -0.203379      -0.000000
     74 C                    -0.266372       0.000000
     75 C                    -0.260848      -0.000000
     76 C                    -0.248737       0.000000
     77 H                     0.260081      -0.000000
     78 H                     0.245492      -0.000000
     79 H                     0.253340      -0.000000
     80 H                     0.251898      -0.000000
     81 H                     0.257380      -0.000000
     82 H                     0.254951      -0.000000
     83 H                     0.248410      -0.000000
     84 C                    -0.657962      -0.000000
     85 H                     0.275908       0.000000
     86 H                     0.252176       0.000000
     87 H                     0.250238      -0.000000
     88 H                     0.260427       0.000000
     89 H                     0.278901      -0.000000
     90 H                     0.252593      -0.000000
     91 H                     0.250200      -0.000000
     92 H                     0.260400      -0.000000
     93 H                     0.250794      -0.000000
     94 H                     0.245794       0.000000
     95 H                     0.246236      -0.000000
     96 H                     0.249400      -0.000000
     97 H                     0.256850       0.000000
     98 H                     0.257526      -0.000000
     99 H                     0.255967      -0.000000
    100 H                     0.255864       0.000000
    101 H                     0.258759       0.000000
    102 H                     0.252030      -0.000000
    103 H                     0.258442       0.000000
    104 H                     0.252273       0.000000
    105 H                     0.255948      -0.000000
    106 H                     0.251705       0.000000
    107 H                     0.258685       0.000000
    108 H                     0.255657      -0.000000
    109 H                     0.245369      -0.000000
    110 H                     0.258546      -0.000000
    111 H                     0.248481      -0.000000
    112 H                     0.255960       0.000000
    113 C                    -0.654456       0.000000
    114 H                     0.257381       0.000000
    115 H                     0.250964       0.000000
    116 H                     0.252173      -0.000000
    117 H                     0.274562      -0.000000
    118 H                     0.260135       0.000000
    119 H                     0.250266       0.000000
    120 H                     0.251547       0.000000
    121 H                     0.273899       0.000000
    122 H                     0.260394       0.000000
    123 H                     0.250314       0.000000
    124 H                     0.251299       0.000000
    125 H                     0.226470      -0.000000
    126 H                     0.231538      -0.000000
    127 H                     0.230309       0.000000
    128 H                     0.230659      -0.000000
    129 H                     0.225423       0.000000
    130 H                     0.236587      -0.000000
    131 S                     0.121679       0.000000
    132 S                     0.120885       0.000000
  --------------------------------------------------------
  Sum of atomic charges =    -0.000000

                    Cartesian Multipole Moments
 -----------------------------------------------------------------
    Charge (ESU x 10^10)
                -0.0000
    Dipole Moment (Debye)
         X      -0.5811      Y       0.4843      Z      -0.1121
       Tot       0.7647
    Quadrupole Moments (Debye-Ang)
        XX    -479.3582     XY     -45.5806     YY    -398.6051
        XZ      -5.9469     YZ     -31.1778     ZZ    -479.5046

 Total job time:  163782.91s(wall), 477774.09s(cpu)
        *  Thank you very much for using Q-Chem.  Have a nice day.  *
