 Q-Chem 5.1, Q-Chem, Inc., Pleasanton, CA (2018)
 Q-Chem 5.1.1 for Intel X86 EM64T Linux

User input:
--------------------------------------------------------------
$rem
threads 8
jobtype	sp
method PBEh-3c
basis def2-mSVP
mem_static	1024
mem_total	8000
sym_ignore	true
unrestricted true
scf_convergence	9
solvent_method	pcm
$end

$molecule
read moms1_preopt_vac.mol
$end

$solvent
dielectric	1.0001
$end

$pcm
theory iefpcm
$end
--------------------------------------------------------------

   16   -3799.4140642416      9.76e-10  Convergence criterion met
 Total energy in the final basis set =    -3799.4140642416
 Total job time:  3991.57s(wall), 29904.46s(cpu)
        *  Thank you very much for using Q-Chem.  Have a nice day.  *
 Q-Chem 5.1, Q-Chem, Inc., Pleasanton, CA (2018)
 Q-Chem 5.1.1 for Intel X86 EM64T Linux

User input:
--------------------------------------------------------------

$rem
threads 8
jobtype opt
method PBEh-3c
basis def2-mSVP
scf_guess	read
mem_static      1024
mem_total       8000
sym_ignore      true
unrestricted true
mom_start       1
scf_algorithm	diis
scf_max_cycles	2500
solvent_method	pcm
geom_opt_tol_energy 25
geom_opt_tol_gradient 75
$end

$solvent
dielectric      1.0001
$end

$pcm
theory iefpcm
$end

$occupied
1 2 3 4 5 6 7 8 9 10 11 12 13 14 15 16 17 18 19 20 21 22 23 24 25 26 27 28 29 30 31 32 33 34 35 36 37 38 39 40 41 42 43 44 45 46 47 48 49 50 51 52 53 54 55 56 57 58 59 60 61 62 63 64 65 66 67 68 69 70 71 72 73 74 75 76 77 78 79 80 81 82 83 84 85 86 87 88 89 90 91 92 93 94 95 96 97 98 99 100 101 102 103 104 105 106 107 108 109 110 111 112 113 114 115 116 117 118 119 120 121 122 123 124 125 126 127 128 129 130 131 132 133 134 135 136 137 138 139 140 141 142 143 144 145 146 147 148 149 150 151 152 153 154 155 156 157 158 159 160 161 162 163 164 165 166 167 168 169 170 171 172 173 174 175 176 177 178 179 180 181 182 183 184 185 186 187 188 189 190 191 192 193 194 195 196 197 198 199 200 201 202 203 204 205 206 207 208 209 210 211 212 213 214 215 216 217 218 219 220 221 222 223 224 225 226 227 228 229 230 231 232 233 234 235 236 237 238 239 240 241 242 243 244 245 246 247 248 249 250 251 252 253 254 255 256 257 258 259 260 261 262 263 264 265 266 267 268 269 270 271 272 273 274 275  277
1 2 3 4 5 6 7 8 9 10 11 12 13 14 15 16 17 18 19 20 21 22 23 24 25 26 27 28 29 30 31 32 33 34 35 36 37 38 39 40 41 42 43 44 45 46 47 48 49 50 51 52 53 54 55 56 57 58 59 60 61 62 63 64 65 66 67 68 69 70 71 72 73 74 75 76 77 78 79 80 81 82 83 84 85 86 87 88 89 90 91 92 93 94 95 96 97 98 99 100 101 102 103 104 105 106 107 108 109 110 111 112 113 114 115 116 117 118 119 120 121 122 123 124 125 126 127 128 129 130 131 132 133 134 135 136 137 138 139 140 141 142 143 144 145 146 147 148 149 150 151 152 153 154 155 156 157 158 159 160 161 162 163 164 165 166 167 168 169 170 171 172 173 174 175 176 177 178 179 180 181 182 183 184 185 186 187 188 189 190 191 192 193 194 195 196 197 198 199 200 201 202 203 204 205 206 207 208 209 210 211 212 213 214 215 216 217 218 219 220 221 222 223 224 225 226 227 228 229 230 231 232 233 234 235 236 237 238 239 240 241 242 243 244 245 246 247 248 249 250 251 252 253 254 255 256 257 258 259 260 261 262 263 264 265 266 267 268 269 270 271 272 273 274 275 276
$end

$molecule
read
$end

--------------------------------------------------------------

   20   -3799.3369926785      8.91E-09 Convergence criterion met
 Total energy in the final basis set = -3799.33699268
   38   -3799.3367558022      4.11E-09 Convergence criterion met
 Total energy in the final basis set = -3799.33675580
   25   -3799.3398639611      6.08E-09 Convergence criterion met
 Total energy in the final basis set = -3799.33986396
   17   -3799.3400100771      8.11E-09 Convergence criterion met
 Total energy in the final basis set = -3799.34001008
   17   -3799.3406287470      5.17E-09 Convergence criterion met
 Total energy in the final basis set = -3799.34062875
   18   -3799.3406400445      5.52E-09 Convergence criterion met
 Total energy in the final basis set = -3799.34064004
   18   -3799.3378870346      9.56E-09 Convergence criterion met
 Total energy in the final basis set = -3799.33788703
   28   -3799.3373935038      4.70E-09 Convergence criterion met
 Total energy in the final basis set = -3799.33739350
   24   -3799.3383411408      4.61E-09 Convergence criterion met
 Total energy in the final basis set = -3799.33834114

                    Orbital Energies (a.u.)
 --------------------------------------------------------------

 Alpha MOs
 -- Occupied --
-89.713 -89.572 -14.803 -14.658 -10.597 -10.596 -10.581 -10.580
-10.536 -10.534 -10.529 -10.527 -10.527 -10.527 -10.524 -10.524
-10.523 -10.479 -10.479 -10.475 -10.475 -10.473 -10.470 -10.458
-10.458 -10.455 -10.443 -10.442 -10.441 -10.439 -10.439 -10.438
-10.437 -10.437 -10.436 -10.436 -10.435 -10.435 -10.434 -10.434
-10.434 -10.433 -10.432 -10.432 -10.431 -10.431 -10.431 -10.429
-10.429 -10.426 -10.426 -10.426 -10.424 -10.423 -10.423 -10.423
-10.422 -10.422 -10.422 -10.422 -10.421 -10.420 -10.419 -10.418
-10.418 -10.418 -10.415 -10.415 -10.414 -10.412 -10.406 -10.399
-10.396 -10.396 -10.393 -10.392 -10.388 -10.388  -8.353  -8.212
 -6.887  -6.882  -6.243  -6.240  -6.234  -6.104  -6.100  -6.095
 -1.187  -1.067  -1.057  -1.053  -0.993  -0.987  -0.985  -0.983
 -0.948  -0.946  -0.945  -0.930  -0.928  -0.925  -0.923  -0.909
 -0.908  -0.905  -0.898  -0.887  -0.879  -0.872  -0.865  -0.857
 -0.846  -0.836  -0.832  -0.825  -0.823  -0.822  -0.822  -0.820
 -0.819  -0.807  -0.795  -0.792  -0.789  -0.786  -0.781  -0.778
 -0.775  -0.769  -0.761  -0.745  -0.738  -0.723  -0.713  -0.712
 -0.707  -0.704  -0.701  -0.699  -0.692  -0.692  -0.690  -0.683
 -0.661  -0.658  -0.657  -0.650  -0.650  -0.639  -0.633  -0.629
 -0.625  -0.616  -0.615  -0.614  -0.613  -0.613  -0.609  -0.598
 -0.597  -0.590  -0.578  -0.577  -0.572  -0.570  -0.566  -0.565
 -0.563  -0.561  -0.556  -0.551  -0.548  -0.546  -0.539  -0.528
 -0.524  -0.524  -0.520  -0.515  -0.514  -0.510  -0.509  -0.505
 -0.505  -0.503  -0.499  -0.496  -0.495  -0.490  -0.487  -0.486
 -0.483  -0.479  -0.477  -0.476  -0.475  -0.472  -0.470  -0.467
 -0.466  -0.463  -0.463  -0.461  -0.460  -0.459  -0.458  -0.457
 -0.453  -0.453  -0.452  -0.449  -0.447  -0.443  -0.440  -0.438
 -0.436  -0.435  -0.431  -0.428  -0.427  -0.423  -0.419  -0.416
 -0.413  -0.409  -0.409  -0.408  -0.405  -0.401  -0.397  -0.396
 -0.394  -0.393  -0.390  -0.385  -0.384  -0.383  -0.377  -0.373
 -0.373  -0.371  -0.370  -0.368  -0.367  -0.364  -0.363  -0.359
 -0.356  -0.356  -0.345  -0.341  -0.338  -0.336  -0.333  -0.329
 -0.317  -0.316  -0.305  -0.303  -0.292  -0.288  -0.284  -0.282
 -0.278  -0.275  -0.270  -0.254  -0.251  -0.248  -0.243  -0.238
 -0.227  -0.221  -0.192  -0.133

 Beta MOs
 -- Occupied --
-89.715 -89.572 -14.812 -14.658 -10.596 -10.596 -10.584 -10.583
-10.535 -10.533 -10.531 -10.529 -10.528 -10.526 -10.525 -10.524
-10.523 -10.479 -10.479 -10.476 -10.476 -10.472 -10.470 -10.458
-10.458 -10.455 -10.443 -10.442 -10.442 -10.439 -10.438 -10.438
-10.438 -10.437 -10.436 -10.436 -10.436 -10.435 -10.434 -10.434
-10.433 -10.433 -10.433 -10.431 -10.431 -10.431 -10.430 -10.430
-10.429 -10.426 -10.426 -10.426 -10.423 -10.423 -10.423 -10.422
-10.422 -10.422 -10.422 -10.422 -10.421 -10.419 -10.419 -10.418
-10.418 -10.417 -10.416 -10.415 -10.414 -10.413 -10.406 -10.399
-10.396 -10.396 -10.393 -10.392 -10.387 -10.387  -8.355  -8.212
 -6.884  -6.880  -6.244  -6.241  -6.241  -6.104  -6.100  -6.095
 -1.202  -1.067  -1.064  -1.057  -0.997  -0.986  -0.986  -0.983
 -0.948  -0.948  -0.945  -0.933  -0.927  -0.924  -0.923  -0.911
 -0.908  -0.904  -0.898  -0.889  -0.879  -0.872  -0.864  -0.857
 -0.853  -0.836  -0.831  -0.825  -0.822  -0.822  -0.822  -0.819
 -0.818  -0.809  -0.795  -0.793  -0.787  -0.785  -0.780  -0.778
 -0.775  -0.767  -0.763  -0.745  -0.738  -0.724  -0.717  -0.714
 -0.708  -0.703  -0.701  -0.698  -0.692  -0.692  -0.690  -0.683
 -0.661  -0.660  -0.658  -0.649  -0.647  -0.640  -0.631  -0.631
 -0.625  -0.616  -0.616  -0.614  -0.613  -0.612  -0.609  -0.607
 -0.600  -0.597  -0.578  -0.577  -0.572  -0.569  -0.566  -0.565
 -0.563  -0.560  -0.559  -0.555  -0.548  -0.545  -0.538  -0.528
 -0.524  -0.524  -0.522  -0.522  -0.514  -0.513  -0.512  -0.505
 -0.505  -0.502  -0.502  -0.498  -0.497  -0.494  -0.489  -0.486
 -0.484  -0.480  -0.479  -0.477  -0.475  -0.475  -0.472  -0.470
 -0.468  -0.464  -0.463  -0.461  -0.459  -0.459  -0.458  -0.455
 -0.454  -0.453  -0.452  -0.452  -0.449  -0.447  -0.442  -0.440
 -0.437  -0.436  -0.431  -0.429  -0.426  -0.423  -0.418  -0.416
 -0.413  -0.409  -0.409  -0.407  -0.405  -0.399  -0.396  -0.394
 -0.393  -0.393  -0.391  -0.388  -0.388  -0.383  -0.382  -0.377
 -0.373  -0.370  -0.370  -0.367  -0.366  -0.363  -0.363  -0.358
 -0.356  -0.355  -0.351  -0.344  -0.340  -0.331  -0.331  -0.329
 -0.316  -0.314  -0.309  -0.305  -0.303  -0.288  -0.285  -0.282
 -0.280  -0.278  -0.271  -0.267  -0.251  -0.248  -0.243  -0.242
 -0.230  -0.224  -0.214  -0.192

          Ground-State Mulliken Net Atomic Charges

     Atom                 Charge (a.u.)    Spin (a.u.)
  --------------------------------------------------------
      1 C                    -0.299682      -0.015671
      2 C                     0.016614       0.006403
      3 C                    -0.137905      -0.029278
      4 C                     0.050909       0.008868
      5 C                    -0.292562      -0.016836
      6 C                     0.099650       0.028928
      7 N                    -0.633745      -0.349007
      8 C                    -0.750230       0.000047
      9 C                    -0.536887       0.001778
     10 C                     0.445595       0.017344
     11 C                    -0.208193      -0.147367
     12 C                    -0.276350      -0.070057
     13 C                     0.454120       0.023197
     14 C                    -0.214177       0.036997
     15 C                    -0.209600      -0.141614
     16 C                    -0.232722       0.095510
     17 C                    -0.209801      -0.144293
     18 C                    -0.274166      -0.065090
     19 C                    -0.220728       0.033576
     20 C                    -0.207013      -0.143367
     21 C                    -0.232936       0.096645
     22 C                    -0.147877       0.058420
     23 C                    -0.121232      -0.003765
     24 B                     0.520656       0.350986
     25 C                    -0.128000       0.012861
     26 C                    -0.138903       0.071465
     27 B                     0.578095       0.272978
     28 C                    -0.395623      -0.020478
     29 C                     0.097317       0.039213
     30 C                     0.081068       0.103622
     31 C                    -0.402026      -0.067406
     32 C                    -0.387190      -0.055971
     33 C                     0.079849       0.091293
     34 C                     0.101016       0.027204
     35 C                    -0.419622      -0.005514
     36 C                    -0.406918       0.074693
     37 C                    -0.198864      -0.049975
     38 C                    -0.347821       0.071625
     39 C                     0.254686      -0.042120
     40 C                    -0.080786       0.025639
     41 C                     0.205257      -0.044468
     42 C                    -0.347065       0.087998
     43 C                    -0.199270      -0.058419
     44 C                    -0.391034       0.095322
     45 C                     0.199926      -0.061925
     46 C                    -0.198981      -0.040792
     47 C                    -0.395759       0.060215
     48 C                     0.197193      -0.037976
     49 C                    -0.076726       0.021470
     50 C                     0.254601      -0.034722
     51 C                    -0.347097       0.056619
     52 C                     0.197027      -0.054790
     53 C                    -0.387563       0.080849
     54 C                    -0.201917      -0.049871
     55 C                    -0.344242       0.074020
     56 C                    -0.290338      -0.001254
     57 C                     0.049633       0.003543
     58 C                    -0.187985      -0.024169
     59 C                     0.033752       0.003546
     60 C                    -0.313253      -0.001169
     61 C                     0.188106       0.001316
     62 N                    -0.714774      -0.000073
     63 C                    -0.540431       0.003368
     64 C                    -0.751657       0.000563
     65 C                     0.434189       0.000025
     66 C                    -0.303465       0.000001
     67 C                    -0.194802      -0.000003
     68 C                     0.435871       0.000022
     69 C                    -0.244841       0.000002
     70 C                    -0.235406      -0.000004
     71 C                    -0.221468       0.000001
     72 C                    -0.304872       0.000002
     73 C                    -0.194657      -0.000001
     74 C                    -0.244886       0.000001
     75 C                    -0.234775      -0.000004
     76 C                    -0.223478      -0.000000
     77 H                     0.224623       0.001092
     78 H                     0.222545       0.001182
     79 H                     0.273321      -0.001446
     80 H                     0.270463      -0.000226
     81 H                     0.217952       0.001995
     82 H                     0.286033      -0.001818
     83 H                     0.213567       0.000649
     84 C                    -0.649558       0.000446
     85 H                     0.320965       0.004255
     86 H                     0.266849      -0.001389
     87 H                     0.262583       0.007910
     88 H                     0.260290      -0.004062
     89 H                     0.332237       0.004132
     90 H                     0.281161      -0.001040
     91 H                     0.264341       0.007975
     92 H                     0.259606      -0.004095
     93 H                     0.175221       0.000135
     94 H                     0.213524       0.002733
     95 H                     0.212350       0.002253
     96 H                     0.183808      -0.000717
     97 H                     0.175843      -0.004669
     98 H                     0.197143       0.002546
     99 H                     0.207022      -0.004272
    100 H                     0.207037      -0.005321
    101 H                     0.216214       0.002861
    102 H                     0.210988      -0.005670
    103 H                     0.206292       0.002071
    104 H                     0.190159      -0.003645
    105 H                     0.207544      -0.003361
    106 H                     0.211976      -0.004797
    107 H                     0.216004       0.002451
    108 H                     0.207254      -0.004463
    109 H                     0.215445       0.000338
    110 H                     0.224138       0.000372
    111 H                     0.222587       0.000293
    112 H                     0.261030      -0.002049
    113 C                    -0.643575      -0.000264
    114 H                     0.225057       0.001572
    115 H                     0.247585      -0.000550
    116 H                     0.248762      -0.000919
    117 H                     0.264578      -0.000004
    118 H                     0.224775       0.000000
    119 H                     0.211774       0.000000
    120 H                     0.213684      -0.000000
    121 H                     0.262468      -0.000004
    122 H                     0.224931       0.000000
    123 H                     0.212070       0.000000
    124 H                     0.215418       0.000001
    125 H                     0.212375      -0.000017
    126 H                     0.209302       0.000013
    127 H                     0.241999      -0.000128
    128 H                     0.225724      -0.000114
    129 H                     0.196086      -0.000115
    130 H                     0.269395      -0.000673
    131 S                     0.140422      -0.000000
    132 S                     0.355776      -0.252179
  --------------------------------------------------------
  Sum of atomic charges =    -0.000000

                    Cartesian Multipole Moments
 -----------------------------------------------------------------
    Charge (ESU x 10^10)
                -0.0000
    Dipole Moment (Debye)
         X      14.1653      Y      11.0871      Z      26.4979
       Tot      32.0268
    Quadrupole Moments (Debye-Ang)
        XX    -624.0276     XY     -71.4611     YY    -478.1147
        XZ     -88.2622     YZ      -9.7613     ZZ    -348.2641

             Standard Nuclear Orientation (Angstroms)
    I     Atom           X                Y                Z
 ----------------------------------------------------------------
    1      C      -4.9876276216    -0.0758105745     4.3529510887
    2      C      -5.5793202762    -0.4480284942     3.1515931154
    3      C      -4.7941889467    -0.6159488168     1.9986330708
    4      C      -3.4195604346    -0.3388403343     2.0605105759
    5      C      -2.8342405505     0.0286037035     3.2686298519
    6      C      -3.6217888928     0.1313883693     4.3990966845
    7      N      -2.9927867316     0.3456385555     5.6734018575
    8      C      -7.0522465790    -0.7391101334     3.1110993201
    9      C      -2.5581337670    -0.4573555216     0.8315277801
   10      C      -2.6669790584    -0.7871640993     6.3911260053
   11      C      -2.0253478425    -0.7290634545     7.6413531511
   12      C      -3.1747805554     2.7076710883     5.2527377701
   13      C      -2.7605238305     1.6429004000     6.0739095157
   14      C      -2.9445249245     4.0089142191     5.6241532024
   15      C      -2.2985383526     4.3049209688     6.8256697901
   16      C      -1.8919921166     3.2804408399     7.6477855736
   17      C      -2.1166121820     1.9518196980     7.2857070802
   18      C      -2.9715516496    -2.0591956451     5.8665351026
   19      C      -2.6624537033    -3.2004318303     6.5645624739
   20      C      -2.0315881453    -3.1285445517     7.8075079695
   21      C      -1.7149296925    -1.8992240070     8.3358753044
   22      C      -6.9392477874    -1.1892772125    -1.3567266309
   23      C      -6.3125864559    -0.4985524254    -0.2743438394
   24      B      -5.4535118264    -1.2846661576     0.7175986340
   25      C      -5.2678400336    -2.7990182683     0.5559784046
   26      C      -5.9033281921    -3.4820162936    -0.5274876058
   27      B      -6.7602497082    -2.7052365311    -1.5292662525
   28      C      -4.4926575841    -3.5481846421     1.4678801941
   29      C      -4.3439895014    -4.9036501708     1.3250816210
   30      C      -4.9899240084    -5.5815747713     0.2496297894
   31      C      -5.7444674211    -4.8754569615    -0.6532063395
   32      C      -7.7360794486    -0.4654261453    -2.2609702604
   33      C      -7.9182943103     0.8859378179    -2.1102262833
   34      C      -7.2963872220     1.5831459707    -1.0348239246
   35      C      -6.5108420668     0.8936286549    -0.1427066140
   36      C      -2.8071054370    -5.8757460665     3.2182243464
   37      C      -2.2741614363    -7.0932284891     3.6989039667
   38      C      -2.5342793699    -8.3041097624     3.0992444655
   39      C      -3.3568277758    -8.3604594848     1.9489646710
   40      C      -3.8650004484    -7.1450021537     1.4975754671
   41      C      -3.6176086433    -5.8993852529     2.1100452295
   42      C      -3.7182691275    -9.5085076037     1.2018447579
   43      C      -4.5256509108    -9.3814179151     0.0952150051
   44      C      -5.0235594353    -8.1342443583    -0.3446952835
   45      C      -4.6907352189    -7.0047261809     0.3627679842
   46      C      -8.0069605695     5.3495125934    -0.8570977001
   47      C      -7.4230561679     4.1351626549    -0.4274007285
   48      C      -7.6806114408     2.9922447568    -1.1403363167
   49      C      -8.5205947213     3.0922444675    -2.2693619212
   50      C      -9.1129688566     4.2693629542    -2.7148149858
   51      C      -8.8257792945     5.4315300498    -1.9597677011
   52      C      -8.6958598710     1.8389333797    -2.8892460712
   53      C      -9.4981113452     1.7589877243    -3.9996850355
   54      C     -10.1110603431     2.9403875881    -4.4739628540
   55      C      -9.9339202656     4.1611871096    -3.8647149821
   56      C      -9.3420319375    -4.5136062538    -3.8061350923
   57      C      -8.7573316412    -3.9115382486    -2.6938910137
   58      C      -7.4408151984    -3.4430529477    -2.7564036727
   59      C      -6.7223451504    -3.6037124758    -3.9545867344
   60      C      -7.3208779834    -4.1989408379    -5.0561533552
   61      C      -8.6318591621    -4.6469248165    -4.9807202332
   62      N      -9.2708348893    -5.2252964197    -6.1208898714
   63      C      -9.5698824617    -3.8170090763    -1.4298790474
   64      C      -5.3048388469    -3.1171321617    -4.0556212490
   65      C      -9.8452848499    -4.3554062704    -7.0480511296
   66      C      -9.6211221713    -2.9781097131    -6.9800431732
   67      C      -9.7835000449    -7.2585946046    -7.3608751610
   68      C      -9.0399966312    -6.5738395318    -6.3901452985
   69      C      -9.5169241377    -8.5863912155    -7.6594986968
   70      C      -8.5416271179    -9.2838898481    -6.9689636126
   71      C      -7.8265807652    -8.6287445280    -5.9794092422
   72      C      -8.0615302421    -7.2940176838    -5.6990233847
   73      C     -10.6649815530    -4.8327243386    -8.0799656407
   74      C     -11.1896580601    -3.9692464617    -9.0298258136
   75      C     -10.9547569252    -2.6077904925    -8.9515287449
   76      C     -10.1768079382    -2.1206172539    -7.9132794836
   77      H      -5.5814115513     0.0020191682     5.2568014219
   78      H      -1.7640061907     0.1904889563     3.3328846870
   79      H      -7.2356885618    -1.7641873882     2.7838984713
   80      H      -7.5663772843    -0.0928014457     2.3992220098
   81      H      -7.5182169171    -0.6058537496     4.0875593475
   82      H      -2.8234764773    -1.3663900413     0.2876708402
   83      H      -1.5109492760    -0.5686367981     1.1254923107
   84      C      -2.7026889277     0.7434161640    -0.1007062632
   85      H      -3.6779205474     2.4953480552     4.3210641835
   86      H      -3.2718124468     4.8075272331     4.9732266163
   87      H      -2.1189966234     5.3312868402     7.1125849998
   88      H      -1.3929845276     3.4971536558     8.5837670518
   89      H      -3.4570139142    -2.1457672490     4.9062009080
   90      H      -2.9162093805    -4.1614852643     6.1372482613
   91      H      -1.7906127671    -4.0305592060     8.3522484633
   92      H      -1.2215193043    -1.8308369586     9.2971714277
   93      H      -4.0066423274    -3.0464880998     2.2984168872
   94      H      -6.2326882766    -5.3932298089    -1.4738111374
   95      H      -8.2149362398    -0.9887338754    -3.0827973748
   96      H      -6.0322075831     1.4210076378     0.6776588971
   97      H      -2.5553934393    -4.9466438325     3.7162370422
   98      H      -1.6313737999    -7.0707734357     4.5703512967
   99      H      -2.1042747334    -9.2128228499     3.5028234827
  100      H      -3.3594182807   -10.4862163624     1.4998505951
  101      H      -4.7920350348   -10.2698081778    -0.4638726770
  102      H      -5.6551123899    -8.0918516085    -1.2236442386
  103      H      -7.8003802171     6.2494040653    -0.2917346702
  104      H      -6.7891080375     4.1268920932     0.4505661212
  105      H      -9.2512462793     6.3849485349    -2.2482615826
  106      H      -9.6721550506     0.8200254326    -4.5114105550
  107      H     -10.7453191302     2.8784775885    -5.3494187091
  108      H     -10.4255668369     5.0396812551    -4.2643474601
  109      H     -10.3664865304    -4.8678259579    -3.7643951961
  110      H      -6.7730334099    -4.3075599993    -5.9862732853
  111      H     -10.6053355750    -3.5700846878    -1.6812476504
  112      H      -9.2037330927    -2.9981758509    -0.8075905169
  113      C      -9.5392662602    -5.1186590647    -0.6323605102
  114      H      -4.9009819277    -3.2672322193    -5.0569112509
  115      H      -4.6560337956    -3.6387584354    -3.3499259745
  116      H      -5.2347477259    -2.0537866608    -3.8202749882
  117      H      -9.0094579856    -2.5715129472    -6.1883604637
  118      H     -10.0964150701    -9.0775159366    -8.4313344016
  119      H      -8.3501643722   -10.3229943231    -7.1985115841
  120      H      -7.0652248538    -9.1542192972    -5.4185952291
  121      H      -7.4803205227    -6.8108226866    -4.9278484440
  122      H     -11.7993732565    -4.3738547924    -9.8281286900
  123      H     -11.3776967200    -1.9403758451    -9.6895437318
  124      H      -9.9847167191    -1.0595649586    -7.8274197816
  125      H      -9.9139826351    -5.9543993166    -1.2255596117
  126      H     -10.1555183670    -5.0432901712     0.2644120339
  127      H      -8.5237986314    -5.3612347916    -0.3192745822
  128      H      -2.0501437576     0.6374033119    -0.9676714744
  129      H      -2.4397383005     1.6740927730     0.4042899069
  130      H      -3.7242524034     0.8352427257    -0.4679217850
  131      S     -11.1729319257    -6.5088791797    -8.1181798294
  132      S      -1.5626480013     0.7518617081     8.3965695468
 ----------------------------------------------------------------
