 Q-Chem 5.0, Q-Chem, Inc., Pleasanton, CA (2017)
 Q-Chem 5.0.1 for Intel X86 EM64T Linux

User input:
--------------------------------------------------------------
$rem
threads 8
jobtype	sp
method PBEh-3c
basis def2-mSVP
mem_static	1024
mem_total	8000
sym_ignore	true
unrestricted true
scf_convergence	9
solvent_method	pcm
$end

$molecule
read incoords.mol
$end

$solvent
dielectric	4.33
$end

$pcm
theory iefpcm
$end
--------------------------------------------------------------

   18   -3799.4405967266      6.08E-10 Convergence criterion met
 Total energy in the final basis set = -3799.44059673
 Total job time:  5096.86s(wall), 15028.82s(cpu)
        *  Thank you very much for using Q-Chem.  Have a nice day.  *
 Q-Chem 5.0, Q-Chem, Inc., Pleasanton, CA (2017)
 Q-Chem 5.0.1 for Intel X86 EM64T Linux

User input:
--------------------------------------------------------------

$rem
threads 8
jobtype opt
method PBEh-3c
basis def2-mSVP
scf_guess	read
mem_static      1024
mem_total       8000
sym_ignore      true
unrestricted true
mom_start       1
scf_algorithm	diis
scf_max_cycles	250
solvent_method	pcm
geom_opt_tol_energy 25
geom_opt_tol_gradient 75
$end

$solvent
dielectric      4.33
$end

$pcm
theory iefpcm
$end

$occupied
1 2 3 4 5 6 7 8 9 10 11 12 13 14 15 16 17 18 19 20 21 22 23 24 25 26 27 28 29 30 31 32 33 34 35 36 37 38 39 40 41 42 43 44 45 46 47 48 49 50 51 52 53 54 55 56 57 58 59 60 61 62 63 64 65 66 67 68 69 70 71 72 73 74 75 76 77 78 79 80 81 82 83 84 85 86 87 88 89 90 91 92 93 94 95 96 97 98 99 100 101 102 103 104 105 106 107 108 109 110 111 112 113 114 115 116 117 118 119 120 121 122 123 124 125 126 127 128 129 130 131 132 133 134 135 136 137 138 139 140 141 142 143 144 145 146 147 148 149 150 151 152 153 154 155 156 157 158 159 160 161 162 163 164 165 166 167 168 169 170 171 172 173 174 175 176 177 178 179 180 181 182 183 184 185 186 187 188 189 190 191 192 193 194 195 196 197 198 199 200 201 202 203 204 205 206 207 208 209 210 211 212 213 214 215 216 217 218 219 220 221 222 223 224 225 226 227 228 229 230 231 232 233 234 235 236 237 238 239 240 241 242 243 244 245 246 247 248 249 250 251 252 253 254 255 256 257 258 259 260 261 262 263 264 265 266 267 268 269 270 271 272 273 274 275  277
1 2 3 4 5 6 7 8 9 10 11 12 13 14 15 16 17 18 19 20 21 22 23 24 25 26 27 28 29 30 31 32 33 34 35 36 37 38 39 40 41 42 43 44 45 46 47 48 49 50 51 52 53 54 55 56 57 58 59 60 61 62 63 64 65 66 67 68 69 70 71 72 73 74 75 76 77 78 79 80 81 82 83 84 85 86 87 88 89 90 91 92 93 94 95 96 97 98 99 100 101 102 103 104 105 106 107 108 109 110 111 112 113 114 115 116 117 118 119 120 121 122 123 124 125 126 127 128 129 130 131 132 133 134 135 136 137 138 139 140 141 142 143 144 145 146 147 148 149 150 151 152 153 154 155 156 157 158 159 160 161 162 163 164 165 166 167 168 169 170 171 172 173 174 175 176 177 178 179 180 181 182 183 184 185 186 187 188 189 190 191 192 193 194 195 196 197 198 199 200 201 202 203 204 205 206 207 208 209 210 211 212 213 214 215 216 217 218 219 220 221 222 223 224 225 226 227 228 229 230 231 232 233 234 235 236 237 238 239 240 241 242 243 244 245 246 247 248 249 250 251 252 253 254 255 256 257 258 259 260 261 262 263 264 265 266 267 268 269 270 271 272 273 274 275 276
$end

$molecule
read
$end

--------------------------------------------------------------

   19   -3799.3841845190      8.18E-09 Convergence criterion met
 Total energy in the final basis set = -3799.38418452
   16   -3799.3846541507      8.94E-09 Convergence criterion met
 Total energy in the final basis set = -3799.38465415
   16   -3799.3847538659      9.61E-09 Convergence criterion met
 Total energy in the final basis set = -3799.38475387
   16   -3799.3850483218      8.97E-09 Convergence criterion met
 Total energy in the final basis set = -3799.38504832
   17   -3799.3856453185      8.56E-09 Convergence criterion met
 Total energy in the final basis set = -3799.38564532
   17   -3799.3863900812      7.80E-09 Convergence criterion met
 Total energy in the final basis set = -3799.38639008
   17   -3799.3870613023      8.43E-09 Convergence criterion met
   16   -3799.3878947485      9.49E-09 Convergence criterion met
 Total energy in the final basis set = -3799.38789475
   16   -3799.3879031869      9.42E-09 Convergence criterion met
 Total energy in the final basis set = -3799.38790319
   16   -3799.3879076241      9.22E-09 Convergence criterion met
 Total energy in the final basis set = -3799.38790762
   16   -3799.3879141529      9.18E-09 Convergence criterion met
 Total energy in the final basis set = -3799.38791415
   16   -3799.3879223621      9.18E-09 Convergence criterion met
 Total energy in the final basis set = -3799.38792236
   17   -3799.3879234718      6.13E-09 Convergence criterion met
 Total energy in the final basis set = -3799.38792347

             Standard Nuclear Orientation (Angstroms)
    I     Atom           X                Y                Z
 ----------------------------------------------------------------
    1      C      -4.8995117562    -0.1103422830     4.4347364802
    2      C      -5.5425101003    -0.5721976367     3.2915662370
    3      C      -4.8176264747    -0.7795872762     2.1064165980
    4      C      -3.4441177903    -0.4912102386     2.0854941362
    5      C      -2.8068446072    -0.0314237835     3.2344414708
    6      C      -3.5414983090     0.1408428077     4.3908622795
    7      N      -2.8648292551     0.5282100279     5.5997360879
    8      C      -7.0097916514    -0.8905620539     3.3440168693
    9      C      -2.6358779497    -0.6775255903     0.8283264888
   10      C      -2.4412427266    -0.4894969314     6.4256533370
   11      C      -1.7602699473    -0.2441257685     7.6335305341
   12      C      -3.2021153417     2.8098306383     4.9130164093
   13      C      -2.6934772701     1.8733279409     5.8333176394
   14      C      -3.0292184931     4.1540382439     5.1200960798
   15      C      -2.3470422919     4.6243997137     6.2474035179
   16      C      -1.8491776887     3.7310557405     7.1637647982
   17      C      -2.0175569055     2.3567835365     6.9700037675
   18      C      -2.6857418634    -1.8308298199     6.0665122880
   19      C      -2.2803621537    -2.8574325489     6.8797554517
   20      C      -1.6128770671    -2.6009064724     8.0820685795
   21      C      -1.3545857979    -1.3039007199     8.4508809328
   22      C      -6.9899078224    -1.2752301460    -1.2471268282
   23      C      -6.3739086284    -0.6239114597    -0.1322190374
   24      B      -5.5354193799    -1.4443260386     0.8550202888
   25      C      -5.3974535867    -2.9621055619     0.6655953422
   26      C      -6.0034848207    -3.6015518248    -0.4612511570
   27      B      -6.8180188291    -2.7855099836    -1.4693712405
   28      C      -4.6786132599    -3.7498487210     1.5917695437
   29      C      -4.5523720218    -5.1059566817     1.4174633538
   30      C      -5.1497739859    -5.7369821491     0.2852499064
   31      C      -5.8542617171    -4.9924080990    -0.6276943691
   32      C      -7.7682500893    -0.5167402261    -2.1412129771
   33      C      -7.9445873488     0.8309231534    -1.9498320694
   34      C      -7.3340540373     1.4887659688    -0.8409950337
   35      C      -6.5641220865     0.7658245632     0.0393556375
   36      C      -3.1506494395    -6.1722138783     3.3663333848
   37      C      -2.6540573400    -7.4149718111     3.8245802860
   38      C      -2.8763328324    -8.5967778415     3.1539735871
   39      C      -3.6278426736    -8.5969418364     1.9539077049
   40      C      -4.1029195963    -7.3588497159     1.5261235950
   41      C      -3.8843781992    -6.1418923990     2.2053601915
   42      C      -3.9499310899    -9.7104119936     1.1380728286
   43      C      -4.6937125164    -9.5315280493    -0.0066811303
   44      C      -5.1629165388    -8.2628008201    -0.4194486778
   45      C      -4.8646943107    -7.1668581880     0.3546498979
   46      C      -8.0379572888     5.2497615221    -0.5382782169
   47      C      -7.4632126638     4.0184947427    -0.1426766325
   48      C      -7.7113685606     2.9023537592    -0.9024410826
   49      C      -8.5329628211     3.0449687424    -2.0413093224
   50      C      -9.1150868174     4.2402205888    -2.4536536586
   51      C      -8.8383564881     5.3744763759    -1.6519831213
   52      C      -8.7044438868     1.8147282686    -2.7084365939
   53      C      -9.4896428961     1.7770219361    -3.8347952058
   54      C     -10.0903257578     2.9783506388    -4.2761599856
   55      C      -9.9186183947     4.1769228423    -3.6200826512
   56      C      -9.3399478901    -4.5349694587    -3.8588200013
   57      C      -8.7757528905    -3.9787025031    -2.7112205724
   58      C      -7.4697419891    -3.4774876086    -2.7385841889
   59      C      -6.7385764874    -3.5671705907    -3.9368097983
   60      C      -7.3147409977    -4.1238007665    -5.0700968971
   61      C      -8.6185559481    -4.6011840584    -5.0329554236
   62      N      -9.2365589504    -5.1477806075    -6.1984704694
   63      C      -9.6016119210    -3.9701844233    -1.4508355058
   64      C      -5.3284763632    -3.0518263204    -4.0024492981
   65      C      -9.7745034161    -4.2521708801    -7.1339595660
   66      C      -9.5036068821    -2.8842609048    -7.0886672288
   67      C      -9.6832095597    -7.1368443172    -7.5205412475
   68      C      -8.9257791140    -6.4673656148    -6.5527691928
   69      C      -9.3621424992    -8.4253568075    -7.9186394741
   70      C      -8.3141077484    -9.1062918248    -7.3181865503
   71      C      -7.5848065032    -8.4703642561    -6.3277113093
   72      C      -7.8734922532    -7.1647030028    -5.9578234671
   73      C     -10.6128041482    -4.7176313876    -8.1538064803
   74      C     -11.1116797929    -3.8579190895    -9.1198418251
   75      C     -10.8352348519    -2.5005594770    -9.0622215744
   76      C     -10.0398898023    -2.0222248767    -8.0342051678
   77      H      -5.4481515853     0.0236425035     5.3598982325
   78      H      -1.7407818491     0.1656388071     3.2307362818
   79      H      -7.1941607669    -1.9292260687     3.0636870291
   80      H      -7.5757560523    -0.2752886484     2.6432200296
   81      H      -7.4214172748    -0.7315729440     4.3403496331
   82      H      -2.9576973985    -1.5878127418     0.3182619910
   83      H      -1.5845129693    -0.8244848220     1.0882064847
   84      C      -2.7597290971     0.5059385509    -0.1288535873
   85      H      -3.7321727742     2.4705683166     4.0356958842
   86      H      -3.4283246916     4.8529265544     4.3982881996
   87      H      -2.2131325991     5.6857603350     6.4010852932
   88      H      -1.3236342697     4.0836164710     8.0421425521
   89      H      -3.1990514963    -2.0634644051     5.1462658939
   90      H      -2.4841435482    -3.8765116072     6.5803968871
   91      H      -1.2986297301    -3.4167723514     8.7177034132
   92      H      -0.8332579264    -1.0926199976     9.3758895742
   93      H      -4.2212531308    -3.2769160707     2.4547977441
   94      H      -6.3081155824    -5.4778418996    -1.4866033750
   95      H      -8.2386723486    -1.0099338425    -2.9864216397
   96      H      -6.0952452637     1.2646637315     0.8823179247
   97      H      -2.9439045886    -5.2728358791     3.9338279279
   98      H      -2.0758736138    -7.4350645554     4.7398866388
   99      H      -2.4764170005    -9.5255056911     3.5430394580
  100      H      -3.6122785037   -10.7021262717     1.4143292468
  101      H      -4.9313558367   -10.3931807949    -0.6182072510
  102      H      -5.7442809343    -8.1797143809    -1.3298656274
  103      H      -7.8395183340     6.1274340262     0.0637935801
  104      H      -6.8454239129     3.9773069289     0.7459809364
  105      H      -9.2574689580     6.3387135948    -1.9127621625
  106      H      -9.6594716646     0.8580366043    -4.3832499275
  107      H     -10.7102456681     2.9501019212    -5.1636043419
  108      H     -10.4009402144     5.0714401429    -3.9951004256
  109      H     -10.3572622253    -4.9117889819    -3.8426501995
  110      H      -6.7524184523    -4.1800107397    -5.9965145480
  111      H     -10.6187496700    -3.6419989713    -1.6831406708
  112      H      -9.2008944374    -3.2428078034    -0.7420070009
  113      C      -9.6564895554    -5.3460988759    -0.7906850678
  114      H      -4.9034403429    -3.1773883743    -4.9982801815
  115      H      -4.6829465136    -3.5740941208    -3.2937406578
  116      H      -5.2798806953    -1.9909705380    -3.7489290626
  117      H      -8.8772671849    -2.4804283765    -6.3065169028
  118      H      -9.9567703587    -8.9040609336    -8.6870154107
  119      H      -8.0811926061   -10.1195151640    -7.6165643620
  120      H      -6.7693986953    -8.9847975069    -5.8361532496
  121      H      -7.2771459839    -6.6967742665    -5.1881526505
  122      H     -11.7382993676    -4.2560510714    -9.9084915391
  123      H     -11.2421935912    -1.8307747019    -9.8075879682
  124      H      -9.8166712735    -0.9656854336    -7.9645675048
  125      H     -10.0887923064    -6.0895581439    -1.4623618045
  126      H     -10.2642893472    -5.3213936550     0.1146184089
  127      H      -8.6587819413    -5.6876074835    -0.5138836654
  128      H      -2.1436221979     0.3508713865    -1.0151226397
  129      H      -2.4373578053     1.4341887467     0.3454620080
  130      H      -3.7890746513     0.6370889964    -0.4612908436
  131      S     -11.1532278417    -6.3917938742    -8.1338448298
  132      S      -1.3622511959     1.3332109426     8.1859745430
 ----------------------------------------------------------------

   16   -3799.3879199660      9.39E-09 Convergence criterion met
 Total energy in the final basis set = -3799.38791997
 Final energy is   -3799.38791996604
 **  OPTIMIZATION CONVERGED  **

                    Orbital Energies (a.u.)
 --------------------------------------------------------------

 Alpha MOs
 -- Occupied --
-89.679 -89.594 -14.769 -14.676 -10.563 -10.563 -10.545 -10.545
-10.508 -10.498 -10.498 -10.498 -10.498 -10.492 -10.492 -10.491
-10.491 -10.490 -10.490 -10.477 -10.477 -10.473 -10.464 -10.461
-10.460 -10.460 -10.453 -10.452 -10.451 -10.450 -10.450 -10.449
-10.449 -10.449 -10.448 -10.448 -10.447 -10.447 -10.447 -10.446
-10.446 -10.446 -10.446 -10.446 -10.445 -10.445 -10.445 -10.444
-10.443 -10.442 -10.442 -10.440 -10.440 -10.439 -10.438 -10.438
-10.436 -10.435 -10.435 -10.434 -10.433 -10.433 -10.433 -10.432
-10.431 -10.430 -10.430 -10.428 -10.425 -10.421 -10.417 -10.415
-10.412 -10.411 -10.406 -10.406 -10.403 -10.403  -8.319  -8.233
 -6.899  -6.896  -6.209  -6.206  -6.200  -6.124  -6.121  -6.115
 -1.156  -1.084  -1.024  -1.019  -0.999  -0.998  -0.972  -0.967
 -0.964  -0.957  -0.942  -0.939  -0.939  -0.919  -0.919  -0.912
 -0.897  -0.895  -0.892  -0.888  -0.881  -0.878  -0.873  -0.861
 -0.853  -0.848  -0.840  -0.836  -0.835  -0.833  -0.833  -0.821
 -0.813  -0.809  -0.803  -0.797  -0.794  -0.793  -0.783  -0.776
 -0.772  -0.764  -0.757  -0.754  -0.725  -0.717  -0.716  -0.713
 -0.711  -0.708  -0.706  -0.702  -0.698  -0.685  -0.677  -0.676
 -0.676  -0.673  -0.662  -0.660  -0.647  -0.646  -0.643  -0.632
 -0.628  -0.626  -0.625  -0.617  -0.613  -0.593  -0.584  -0.581
 -0.579  -0.578  -0.578  -0.577  -0.574  -0.572  -0.568  -0.566
 -0.558  -0.557  -0.545  -0.542  -0.541  -0.541  -0.540  -0.534
 -0.530  -0.530  -0.527  -0.525  -0.521  -0.514  -0.511  -0.509
 -0.501  -0.497  -0.496  -0.493  -0.490  -0.486  -0.484  -0.483
 -0.482  -0.480  -0.478  -0.477  -0.476  -0.475  -0.474  -0.473
 -0.472  -0.471  -0.470  -0.468  -0.468  -0.466  -0.464  -0.463
 -0.458  -0.457  -0.454  -0.449  -0.448  -0.446  -0.443  -0.442
 -0.441  -0.438  -0.433  -0.429  -0.428  -0.426  -0.426  -0.423
 -0.422  -0.421  -0.420  -0.414  -0.412  -0.409  -0.408  -0.407
 -0.403  -0.402  -0.396  -0.395  -0.388  -0.385  -0.385  -0.384
 -0.383  -0.380  -0.380  -0.379  -0.377  -0.374  -0.371  -0.370
 -0.360  -0.354  -0.353  -0.351  -0.344  -0.342  -0.336  -0.332
 -0.325  -0.318  -0.306  -0.302  -0.300  -0.300  -0.295  -0.292
 -0.287  -0.286  -0.285  -0.269  -0.268  -0.265  -0.264  -0.252
 -0.242  -0.238  -0.220  -0.146

 Beta MOs
 -- Occupied --
-89.681 -89.594 -14.778 -14.676 -10.563 -10.563 -10.548 -10.548
-10.508 -10.498 -10.498 -10.497 -10.497 -10.493 -10.493 -10.492
-10.492 -10.491 -10.490 -10.477 -10.477 -10.473 -10.463 -10.461
-10.460 -10.460 -10.454 -10.453 -10.450 -10.450 -10.450 -10.450
-10.449 -10.449 -10.448 -10.448 -10.448 -10.447 -10.447 -10.446
-10.446 -10.446 -10.445 -10.445 -10.445 -10.445 -10.444 -10.444
-10.443 -10.442 -10.442 -10.440 -10.440 -10.439 -10.438 -10.437
-10.435 -10.435 -10.434 -10.434 -10.433 -10.433 -10.433 -10.432
-10.432 -10.430 -10.430 -10.429 -10.425 -10.421 -10.417 -10.414
-10.412 -10.411 -10.406 -10.406 -10.403 -10.402  -8.321  -8.233
 -6.897  -6.894  -6.210  -6.207  -6.207  -6.124  -6.121  -6.115
 -1.170  -1.084  -1.031  -1.023  -0.999  -0.998  -0.973  -0.966
 -0.964  -0.962  -0.941  -0.938  -0.938  -0.919  -0.918  -0.914
 -0.898  -0.897  -0.892  -0.887  -0.882  -0.878  -0.872  -0.863
 -0.853  -0.848  -0.840  -0.835  -0.834  -0.832  -0.832  -0.825
 -0.813  -0.813  -0.801  -0.796  -0.793  -0.792  -0.781  -0.777
 -0.775  -0.764  -0.759  -0.754  -0.727  -0.716  -0.715  -0.713
 -0.710  -0.708  -0.706  -0.702  -0.698  -0.688  -0.680  -0.679
 -0.676  -0.672  -0.662  -0.657  -0.649  -0.644  -0.642  -0.632
 -0.628  -0.626  -0.624  -0.619  -0.613  -0.595  -0.584  -0.584
 -0.580  -0.579  -0.579  -0.577  -0.577  -0.572  -0.569  -0.566
 -0.557  -0.556  -0.544  -0.543  -0.541  -0.541  -0.540  -0.539
 -0.535  -0.531  -0.529  -0.525  -0.521  -0.514  -0.510  -0.508
 -0.500  -0.497  -0.495  -0.493  -0.489  -0.487  -0.486  -0.486
 -0.484  -0.483  -0.481  -0.478  -0.477  -0.476  -0.474  -0.474
 -0.472  -0.469  -0.469  -0.468  -0.468  -0.466  -0.464  -0.464
 -0.463  -0.459  -0.457  -0.453  -0.449  -0.448  -0.446  -0.442
 -0.441  -0.438  -0.434  -0.433  -0.428  -0.428  -0.426  -0.423
 -0.423  -0.421  -0.421  -0.418  -0.412  -0.410  -0.408  -0.406
 -0.405  -0.402  -0.396  -0.395  -0.387  -0.385  -0.383  -0.382
 -0.381  -0.380  -0.380  -0.379  -0.377  -0.373  -0.371  -0.369
 -0.359  -0.358  -0.354  -0.352  -0.346  -0.344  -0.340  -0.331
 -0.323  -0.317  -0.317  -0.300  -0.300  -0.296  -0.295  -0.292
 -0.286  -0.283  -0.282  -0.274  -0.268  -0.265  -0.264  -0.258
 -0.244  -0.239  -0.230  -0.220

          Ground-State Mulliken Net Atomic Charges

     Atom                 Charge (a.u.)    Spin (a.u.)
  --------------------------------------------------------
      1 C                    -0.295887      -0.013955
      2 C                     0.013422       0.006185
      3 C                    -0.154886      -0.029427
      4 C                     0.039514       0.006614
      5 C                    -0.293414      -0.014093
      6 C                     0.109836       0.025191
      7 N                    -0.643188      -0.323413
      8 C                    -0.758723      -0.000148
      9 C                    -0.541519       0.002106
     10 C                     0.460172       0.003621
     11 C                    -0.215814      -0.135361
     12 C                    -0.286844      -0.048171
     13 C                     0.465605       0.003879
     14 C                    -0.224605       0.015128
     15 C                    -0.224931      -0.125013
     16 C                    -0.239199       0.083715
     17 C                    -0.217124      -0.135794
     18 C                    -0.284177      -0.046933
     19 C                    -0.225672       0.013802
     20 C                    -0.223768      -0.123638
     21 C                    -0.239296       0.082792
     22 C                    -0.149289       0.051371
     23 C                    -0.129990       0.020747
     24 B                     0.527263       0.325668
     25 C                    -0.136763       0.029146
     26 C                    -0.140123       0.051397
     27 B                     0.548773       0.288501
     28 C                    -0.406635      -0.031136
     29 C                     0.078500       0.054913
     30 C                     0.064370       0.083814
     31 C                    -0.410000      -0.052350
     32 C                    -0.402254      -0.051528
     33 C                     0.062620       0.082933
     34 C                     0.081141       0.048801
     35 C                    -0.419310      -0.025031
     36 C                    -0.412079       0.077507
     37 C                    -0.224678      -0.050396
     38 C                    -0.361382       0.072426
     39 C                     0.227853      -0.040609
     40 C                    -0.081279       0.024927
     41 C                     0.181688      -0.048664
     42 C                    -0.360112       0.080471
     43 C                    -0.225037      -0.054486
     44 C                    -0.405728       0.087195
     45 C                     0.183069      -0.056679
     46 C                    -0.224486      -0.047340
     47 C                    -0.410600       0.072304
     48 C                     0.180725      -0.045882
     49 C                    -0.079895       0.023649
     50 C                     0.228819      -0.038451
     51 C                    -0.362268       0.067396
     52 C                     0.179338      -0.055190
     53 C                    -0.401705       0.084048
     54 C                    -0.226561      -0.052463
     55 C                    -0.359229       0.077557
     56 C                    -0.316412      -0.001001
     57 C                     0.040138       0.003051
     58 C                    -0.181606      -0.024660
     59 C                     0.023840       0.003005
     60 C                    -0.335624      -0.000826
     61 C                     0.211946       0.000740
     62 N                    -0.705658      -0.000041
     63 C                    -0.541548       0.004149
     64 C                    -0.760112       0.000621
     65 C                     0.416475       0.000014
     66 C                    -0.311280      -0.000005
     67 C                    -0.201509      -0.000003
     68 C                     0.418511       0.000014
     69 C                    -0.263499       0.000003
     70 C                    -0.257066      -0.000004
     71 C                    -0.243110       0.000002
     72 C                    -0.314034      -0.000005
     73 C                    -0.200365      -0.000001
     74 C                    -0.263383       0.000001
     75 C                    -0.256476      -0.000003
     76 C                    -0.244257       0.000000
     77 H                     0.251300       0.001073
     78 H                     0.248432       0.001037
     79 H                     0.261414      -0.001165
     80 H                     0.258608      -0.000382
     81 H                     0.238394       0.001803
     82 H                     0.269954      -0.002034
     83 H                     0.231063       0.000579
     84 C                    -0.660495       0.000219
     85 H                     0.317758       0.003220
     86 H                     0.282814      -0.000259
     87 H                     0.281414       0.006959
     88 H                     0.285681      -0.003348
     89 H                     0.320643       0.003186
     90 H                     0.282866      -0.000185
     91 H                     0.281556       0.006883
     92 H                     0.285494      -0.003303
     93 H                     0.207787       0.000766
     94 H                     0.221994       0.001895
     95 H                     0.221605       0.001934
     96 H                     0.209370       0.000361
     97 H                     0.221560      -0.004646
     98 H                     0.233826       0.002478
     99 H                     0.235764      -0.004243
    100 H                     0.235377      -0.004748
    101 H                     0.241177       0.002635
    102 H                     0.235265      -0.005110
    103 H                     0.236809       0.002323
    104 H                     0.225033      -0.004273
    105 H                     0.235851      -0.003941
    106 H                     0.234957      -0.004921
    107 H                     0.240867       0.002537
    108 H                     0.235183      -0.004577
    109 H                     0.231792       0.000349
    110 H                     0.244172       0.000355
    111 H                     0.231940       0.000327
    112 H                     0.259699      -0.002418
    113 C                    -0.653666      -0.000447
    114 H                     0.238057       0.001628
    115 H                     0.246887      -0.000709
    116 H                     0.249596      -0.000893
    117 H                     0.275144       0.000000
    118 H                     0.251307      -0.000000
    119 H                     0.240781       0.000000
    120 H                     0.243482      -0.000000
    121 H                     0.274600      -0.000000
    122 H                     0.251462       0.000000
    123 H                     0.240870       0.000000
    124 H                     0.243724       0.000001
    125 H                     0.216871       0.000086
    126 H                     0.221221       0.000028
    127 H                     0.235672      -0.000054
    128 H                     0.228814      -0.000045
    129 H                     0.208933      -0.000105
    130 H                     0.255237      -0.000580
    131 S                     0.119464      -0.000000
    132 S                     0.385393      -0.276981
  --------------------------------------------------------
  Sum of atomic charges =    -0.000000

                    Cartesian Multipole Moments
 -----------------------------------------------------------------
    Charge (ESU x 10^10)
                -0.0000
    Dipole Moment (Debye)
         X      17.7400      Y      13.7839      Z      29.7606
       Tot      37.2880
    Quadrupole Moments (Debye-Ang)
        XX    -652.0645     XY     -90.1449     YY    -467.2576
        XZ     -89.1702     YZ      -2.6566     ZZ    -318.1590

 Total job time:  94228.85s(wall), 277737.49s(cpu)
        *  Thank you very much for using Q-Chem.  Have a nice day.  *
