 Q-Chem 5.0, Q-Chem, Inc., Pleasanton, CA (2017)
 Q-Chem 5.0.1 for Intel X86 EM64T Linux

User input:
--------------------------------------------------------------
$rem
threads 8
jobtype opt
method PBEh-3c
basis def2-mSVP
mem_static      1024
mem_total       8000
sym_ignore      true
unrestricted true
scf_algorithm   diis
scf_max_cycles  250
solvent_method  pcm
geom_opt_tol_energy 25
geom_opt_tol_gradient 75
$end

$pcm
theory  iefpcm
$end

$solvent
dielectric      2.03
$end

$molecule
read uincoords.mol
$end

--------------------------------------------------------------

   21   -3799.3631705791      8.41E-09 Convergence criterion met
 Total energy in the final basis set = -3799.36317058
   19   -3799.3634862049      7.73E-09 Convergence criterion met
 Total energy in the final basis set = -3799.36348620
   19   -3799.3635102878      7.03E-09 Convergence criterion met
 Total energy in the final basis set = -3799.36351029
   19   -3799.3639571680      7.87E-09 Convergence criterion met
 Total energy in the final basis set = -3799.36395717
   19   -3799.3646434344      7.88E-09 Convergence criterion met
 Total energy in the final basis set = -3799.36464343
   19   -3799.3655236940      7.75E-09 Convergence criterion met
 Total energy in the final basis set = -3799.36552369
   19   -3799.3660663402      7.55E-09 Convergence criterion met
 Total energy in the final basis set = -3799.36606634
   19   -3799.3663852467      7.54E-09 Convergence criterion met
   19   -3799.3667703588      8.77E-09 Convergence criterion met
 Total energy in the final basis set = -3799.36677036
   18   -3799.3667840101      6.01E-09 Convergence criterion met
 Total energy in the final basis set = -3799.36678401
   18   -3799.3667830723      8.05E-09 Convergence criterion met
 Total energy in the final basis set = -3799.36678307
   18   -3799.3667833616      9.33E-09 Convergence criterion met
 Total energy in the final basis set = -3799.36678336
   18   -3799.3667895184      9.27E-09 Convergence criterion met
 Total energy in the final basis set = -3799.36678952
   19   -3799.3667950927      7.03E-09 Convergence criterion met
 Total energy in the final basis set = -3799.36679509

             Standard Nuclear Orientation (Angstroms)
    I     Atom           X                Y                Z
 ----------------------------------------------------------------
    1      C      -4.9183964456    -0.1094399009     4.4217600149
    2      C      -5.5508105182    -0.5590359247     3.2679451118
    3      C      -4.8132655099    -0.7615195736     2.0895141925
    4      C      -3.4388426806    -0.4753926299     2.0843072349
    5      C      -2.8118896199    -0.0286344938     3.2438809526
    6      C      -3.5586565614     0.1348932163     4.3940424532
    7      N      -2.8919309135     0.5013163882     5.6156771045
    8      C      -7.0192152899    -0.8727145892     3.3011489249
    9      C      -2.6206101967    -0.6535604373     0.8328764462
   10      C      -2.4946019006    -0.5297347144     6.4378545719
   11      C      -1.8248478688    -0.3057259892     7.6561437827
   12      C      -3.1892642918     2.7917471544     4.9449060174
   13      C      -2.7025765686     1.8412766573     5.8631704254
   14      C      -2.9978146331     4.1313552906     5.1631605665
   15      C      -2.3188771207     4.5824908507     6.2999010406
   16      C      -1.8436988472     3.6752132903     7.2149129151
   17      C      -2.0311786087     2.3055276617     7.0102754451
   18      C      -2.7559432899    -1.8638006649     6.0626144458
   19      C      -2.3793500863    -2.9038622527     6.8721238299
   20      C      -1.7239179543    -2.6683346671     8.0850697840
   21      C      -1.4480827379    -1.3790677382     8.4686704503
   22      C      -6.9866749378    -1.2647969380    -1.2576128401
   23      C      -6.3648775443    -0.6082699394    -0.1503211939
   24      B      -5.5205736083    -1.4260454171     0.8316507994
   25      C      -5.3707621429    -2.9413422618     0.6453268358
   26      C      -5.9873397193    -3.5868707617    -0.4716324101
   27      B      -6.8134622431    -2.7760235285    -1.4743747474
   28      C      -4.6349411670    -3.7236690426     1.5627573454
   29      C      -4.5039217850    -5.0786759707     1.3902985105
   30      C      -5.1171516812    -5.7164536450     0.2710834175
   31      C      -5.8365522948    -4.9773748047    -0.6344291819
   32      C      -7.7723656229    -0.5123267541    -2.1489868096
   33      C      -7.9502266780     0.8355490550    -1.9620488409
   34      C      -7.3328610359     1.4993221566    -0.8617682885
   35      C      -6.5559902489     0.7819298172     0.0161421336
   36      C      -3.0623165552    -6.1311938627     3.3170526164
   37      C      -2.5547645280    -7.3694940086     3.7734517716
   38      C      -2.7884465623    -8.5553179560     3.1148886723
   39      C      -3.5618146803    -8.5639688738     1.9293549845
   40      C      -4.0464875599    -7.3295316054     1.5030437209
   41      C      -3.8187966366    -6.1083777969     2.1710111699
   42      C      -3.8968418130    -9.6824044881     1.1262867323
   43      C      -4.6607781330    -9.5110930223    -0.0056397779
   44      C      -5.1384730879    -8.2458543142    -0.4176099500
   45      C      -4.8283754566    -7.1448360829     0.3438447783
   46      C      -8.0396235429     5.2606988751    -0.5735548556
   47      C      -7.4605586340     4.0324582971    -0.1764097938
   48      C      -7.7126696935     2.9121924437    -0.9276755079
   49      C      -8.5430534051     3.0480448023    -2.0605676258
   50      C      -9.1300075218     4.2398338408    -2.4745273087
   51      C      -8.8484167470     5.3782168242    -1.6812762376
   52      C      -8.7176653562     1.8140437415    -2.7192425499
   53      C      -9.5121259281     1.7692317028    -3.8381037487
   54      C     -10.1181016908     2.9668457234    -4.2811477662
   55      C      -9.9426602542     4.1688948153    -3.6337618328
   56      C      -9.3505474341    -4.5184780015    -3.8515971277
   57      C      -8.7837784572    -3.9556555420    -2.7090196164
   58      C      -7.4710875146    -3.4729351072    -2.7371713428
   59      C      -6.7375057774    -3.5836429241    -3.9317230056
   60      C      -7.3174265737    -4.1447703467    -5.0606897751
   61      C      -8.6266488346    -4.6064714261    -5.0226238202
   62      N      -9.2476235755    -5.1569919543    -6.1843232993
   63      C      -9.6122596963    -3.9182559581    -1.4512143989
   64      C      -5.3219125639    -3.0838508156    -3.9977958477
   65      C      -9.7741664631    -4.2640769323    -7.1284014263
   66      C      -9.4905226478    -2.8987828073    -7.0919630427
   67      C      -9.7105189362    -7.1515833217    -7.4919859860
   68      C      -8.9514878095    -6.4830776220    -6.5250331274
   69      C      -9.4000025863    -8.4458114312    -7.8782203120
   70      C      -8.3636285823    -9.1335714179    -7.2662555912
   71      C      -7.6346895932    -8.4985163714    -6.2756415225
   72      C      -7.9115348524    -7.1874744187    -5.9174792650
   73      C     -10.6120326377    -4.7294633297    -8.1483426817
   74      C     -11.0969354423    -3.8720987350    -9.1229506386
   75      C     -10.8080272946    -2.5173629197    -9.0744379684
   76      C     -10.0135630152    -2.0390509825    -8.0463680926
   77      H      -5.4769230048     0.0177521499     5.3421172756
   78      H      -1.7447895321     0.1631581242     3.2525584167
   79      H      -7.2023630954    -1.9083184177     3.0094832515
   80      H      -7.5740461608    -0.2517499926     2.5968369175
   81      H      -7.4429104712    -0.7196291448     4.2935383711
   82      H      -2.9302234681    -1.5675430748     0.3222605548
   83      H      -1.5691054426    -0.7894621729     1.0991559360
   84      C      -2.7532120866     0.5276118114    -0.1259940268
   85      H      -3.7164256561     2.4629971032     4.0617614160
   86      H      -3.3796419822     4.8415205042     4.4431291763
   87      H      -2.1699830060     5.6405047343     6.4625821871
   88      H      -1.3217834552     4.0138250645     8.1008907904
   89      H      -3.2601706729    -2.0773186510     5.1327097704
   90      H      -2.5967472502    -3.9166594779     6.5613860833
   91      H      -1.4319499963    -3.4947282942     8.7177211174
   92      H      -0.9352342702    -1.1852238064     9.4021713057
   93      H      -4.1673112182    -3.2469242482     2.4183736002
   94      H      -6.3015054005    -5.4661733152    -1.4854633265
   95      H      -8.2469792313    -1.0113106905    -2.9882339716
   96      H      -6.0811034828     1.2855311517     0.8531257565
   97      H      -2.8438571929    -5.2267741774     3.8722693877
   98      H      -1.9575494401    -7.3837557260     4.6767178482
   99      H      -2.3795949291    -9.4809563932     3.5019648657
  100      H      -3.5530552162   -10.6720838327     1.4020993052
  101      H      -4.9083140797   -10.3767173130    -0.6075198015
  102      H      -5.7362968077    -8.1687117286    -1.3176769856
  103      H      -7.8380002709     6.1420989288     0.0220711008
  104      H      -6.8358507771     3.9962202755     0.7076136225
  105      H      -9.2708100192     6.3405524919    -1.9437574471
  106      H      -9.6856568911     0.8466998457    -4.3791825602
  107      H     -10.7456705405     2.9325837509    -5.1629583267
  108      H     -10.4294156390     5.0604417993    -4.0100204707
  109      H     -10.3724414761    -4.8823040089    -3.8361741741
  110      H      -6.7542241322    -4.2166742163    -5.9854819309
  111      H     -10.6351991779    -3.6199100552    -1.6977790023
  112      H      -9.2284349602    -3.1565814929    -0.7694175312
  113      C      -9.6391815428    -5.2696281423    -0.7409511270
  114      H      -4.8976561990    -3.2167555019    -4.9930796817
  115      H      -4.6825548057    -3.6108297078    -3.2870913210
  116      H      -5.2629780076    -2.0228833948    -3.7471711902
  117      H      -8.8644917110    -2.4965595428    -6.3088288208
  118      H      -9.9945552700    -8.9225818707    -8.6477249572
  119      H      -8.1393307608   -10.1512144730    -7.5559458007
  120      H      -6.8284162936    -9.0181406853    -5.7746316079
  121      H      -7.3169599257    -6.7195054118    -5.1465689209
  122      H     -11.7221846945    -4.2711773381    -9.9120863779
  123      H     -11.2044153172    -1.8494819463    -9.8271238920
  124      H      -9.7803123563    -0.9842680844    -7.9837182523
  125      H     -10.0422354427    -6.0490855332    -1.3894991970
  126      H     -10.2586396118    -5.2282395270     0.1559060654
  127      H      -8.6364805002    -5.5724119135    -0.4392974891
  128      H      -2.1295142591     0.3785279019    -1.0077595044
  129      H      -2.4453864513     1.4608771545     0.3483546131
  130      H      -3.7813642019     0.6449398755    -0.4664923474
  131      S     -11.1692900071    -6.3973046691    -8.1188210247
  132      S      -1.4064927811     1.2611407155     8.2259102895
 ----------------------------------------------------------------

   19   -3799.3667980498      7.13E-09 Convergence criterion met
 Total energy in the final basis set = -3799.36679805
 Final energy is   -3799.36679804978
 **  OPTIMIZATION CONVERGED  **

                    Orbital Energies (a.u.)
 --------------------------------------------------------------

 Alpha MOs
 -- Occupied --
-89.694 -89.585 -14.791 -14.668 -10.576 -10.576 -10.561 -10.561
-10.514 -10.512 -10.511 -10.507 -10.506 -10.506 -10.505 -10.504
-10.503 -10.489 -10.489 -10.469 -10.469 -10.466 -10.466 -10.465
-10.464 -10.463 -10.447 -10.446 -10.445 -10.445 -10.444 -10.443
-10.443 -10.442 -10.442 -10.442 -10.442 -10.441 -10.441 -10.440
-10.440 -10.440 -10.439 -10.439 -10.439 -10.437 -10.437 -10.437
-10.435 -10.434 -10.434 -10.433 -10.433 -10.433 -10.433 -10.431
-10.431 -10.431 -10.428 -10.428 -10.427 -10.427 -10.426 -10.426
-10.425 -10.424 -10.422 -10.422 -10.420 -10.416 -10.414 -10.407
-10.404 -10.403 -10.399 -10.399 -10.395 -10.395  -8.334  -8.224
 -6.893  -6.889  -6.223  -6.220  -6.220  -6.115  -6.112  -6.106
 -1.182  -1.076  -1.044  -1.036  -0.992  -0.991  -0.979  -0.974
 -0.958  -0.956  -0.935  -0.932  -0.931  -0.927  -0.914  -0.912
 -0.912  -0.896  -0.890  -0.889  -0.880  -0.873  -0.872  -0.865
 -0.845  -0.840  -0.835  -0.833  -0.829  -0.828  -0.828  -0.826
 -0.817  -0.806  -0.796  -0.791  -0.789  -0.788  -0.786  -0.781
 -0.776  -0.767  -0.756  -0.747  -0.741  -0.717  -0.711  -0.709
 -0.706  -0.701  -0.699  -0.697  -0.696  -0.693  -0.691  -0.691
 -0.669  -0.667  -0.656  -0.655  -0.653  -0.639  -0.636  -0.627
 -0.624  -0.621  -0.619  -0.617  -0.609  -0.605  -0.595  -0.593
 -0.592  -0.586  -0.576  -0.573  -0.572  -0.571  -0.568  -0.561
 -0.556  -0.554  -0.552  -0.552  -0.547  -0.545  -0.538  -0.538
 -0.534  -0.533  -0.523  -0.520  -0.514  -0.508  -0.505  -0.503
 -0.500  -0.500  -0.500  -0.494  -0.489  -0.488  -0.488  -0.485
 -0.484  -0.481  -0.481  -0.478  -0.478  -0.473  -0.471  -0.471
 -0.469  -0.468  -0.467  -0.465  -0.464  -0.463  -0.462  -0.460
 -0.459  -0.458  -0.456  -0.450  -0.450  -0.448  -0.443  -0.442
 -0.438  -0.435  -0.434  -0.432  -0.429  -0.426  -0.424  -0.421
 -0.420  -0.417  -0.416  -0.414  -0.408  -0.405  -0.405  -0.403
 -0.401  -0.400  -0.392  -0.388  -0.386  -0.381  -0.379  -0.378
 -0.377  -0.376  -0.374  -0.372  -0.371  -0.370  -0.367  -0.367
 -0.365  -0.362  -0.353  -0.347  -0.346  -0.337  -0.335  -0.330
 -0.325  -0.319  -0.311  -0.299  -0.296  -0.292  -0.292  -0.288
 -0.287  -0.285  -0.280  -0.278  -0.261  -0.260  -0.256  -0.256
 -0.245  -0.235  -0.229  -0.211  -0.139

 Beta MOs
 -- Occupied --
-89.692 -89.585 -14.782 -14.668 -10.576 -10.576 -10.559 -10.559
-10.514 -10.513 -10.512 -10.505 -10.505 -10.504 -10.504 -10.504
-10.503 -10.489 -10.489 -10.469 -10.469 -10.466 -10.465 -10.465
-10.464 -10.463 -10.447 -10.446 -10.446 -10.445 -10.444 -10.443
-10.443 -10.442 -10.442 -10.442 -10.442 -10.441 -10.440 -10.440
-10.440 -10.439 -10.439 -10.439 -10.438 -10.438 -10.437 -10.437
-10.435 -10.434 -10.434 -10.433 -10.433 -10.433 -10.433 -10.431
-10.430 -10.430 -10.428 -10.427 -10.427 -10.426 -10.426 -10.425
-10.425 -10.424 -10.423 -10.422 -10.421 -10.416 -10.414 -10.407
-10.404 -10.403 -10.399 -10.399 -10.394 -10.394  -8.332  -8.224
 -6.890  -6.886  -6.222  -6.219  -6.213  -6.115  -6.112  -6.106
 -1.168  -1.076  -1.037  -1.032  -0.992  -0.991  -0.978  -0.970
 -0.958  -0.956  -0.934  -0.931  -0.931  -0.925  -0.913  -0.912
 -0.908  -0.895  -0.889  -0.889  -0.879  -0.871  -0.870  -0.865
 -0.845  -0.840  -0.833  -0.828  -0.828  -0.827  -0.827  -0.825
 -0.815  -0.806  -0.794  -0.790  -0.787  -0.786  -0.785  -0.780
 -0.774  -0.764  -0.756  -0.747  -0.739  -0.716  -0.709  -0.707
 -0.704  -0.701  -0.699  -0.696  -0.694  -0.690  -0.690  -0.688
 -0.669  -0.666  -0.656  -0.651  -0.649  -0.637  -0.635  -0.626
 -0.624  -0.621  -0.619  -0.617  -0.606  -0.605  -0.593  -0.591
 -0.585  -0.577  -0.574  -0.572  -0.572  -0.569  -0.566  -0.561
 -0.556  -0.553  -0.551  -0.550  -0.543  -0.537  -0.537  -0.535
 -0.534  -0.533  -0.523  -0.519  -0.514  -0.508  -0.505  -0.502
 -0.499  -0.497  -0.492  -0.488  -0.488  -0.486  -0.485  -0.484
 -0.482  -0.480  -0.478  -0.478  -0.477  -0.471  -0.470  -0.469
 -0.468  -0.467  -0.464  -0.463  -0.462  -0.461  -0.459  -0.459
 -0.458  -0.456  -0.451  -0.450  -0.448  -0.446  -0.442  -0.442
 -0.436  -0.434  -0.432  -0.428  -0.426  -0.423  -0.421  -0.420
 -0.416  -0.415  -0.415  -0.414  -0.407  -0.405  -0.403  -0.401
 -0.400  -0.397  -0.390  -0.388  -0.385  -0.380  -0.378  -0.377
 -0.376  -0.374  -0.373  -0.372  -0.370  -0.367  -0.365  -0.364
 -0.362  -0.352  -0.349  -0.346  -0.339  -0.336  -0.334  -0.323
 -0.318  -0.315  -0.310  -0.296  -0.292  -0.292  -0.288  -0.287
 -0.286  -0.277  -0.275  -0.259  -0.256  -0.256  -0.250  -0.237
 -0.232  -0.222  -0.211

          Ground-State Mulliken Net Atomic Charges

     Atom                 Charge (a.u.)    Spin (a.u.)
  --------------------------------------------------------
      1 C                    -0.297468       0.010740
      2 C                     0.014978       0.002052
      3 C                    -0.149460      -0.022003
      4 C                     0.044361       0.002414
      5 C                    -0.294044       0.011053
      6 C                     0.106636      -0.020621
      7 N                    -0.639509       0.332527
      8 C                    -0.755092       0.001907
      9 C                    -0.540765       0.003948
     10 C                     0.453069      -0.009362
     11 C                    -0.212790       0.140608
     12 C                    -0.281190       0.056181
     13 C                     0.458916      -0.010683
     14 C                    -0.219565      -0.023708
     15 C                    -0.218028       0.132252
     16 C                    -0.236128      -0.088910
     17 C                    -0.214215       0.140099
     18 C                    -0.278036       0.054277
     19 C                    -0.220752      -0.022036
     20 C                    -0.216633       0.131655
     21 C                    -0.236179      -0.088550
     22 C                    -0.148686       0.055513
     23 C                    -0.126295       0.011427
     24 B                     0.529184       0.335541
     25 C                    -0.133069       0.022214
     26 C                    -0.138680       0.059194
     27 B                     0.563936       0.281657
     28 C                    -0.401153      -0.026384
     29 C                     0.088343       0.047943
     30 C                     0.071976       0.092102
     31 C                    -0.407155      -0.058747
     32 C                    -0.395421      -0.054970
     33 C                     0.070590       0.088051
     34 C                     0.090902       0.039759
     35 C                    -0.418105      -0.017627
     36 C                    -0.406113       0.075901
     37 C                    -0.212719      -0.049950
     38 C                    -0.355957       0.071704
     39 C                     0.240755      -0.041097
     40 C                    -0.080626       0.025131
     41 C                     0.191015      -0.046670
     42 C                    -0.354842       0.083460
     43 C                    -0.213810      -0.055959
     44 C                    -0.400034       0.090365
     45 C                     0.191070      -0.058694
     46 C                    -0.213199      -0.045032
     47 C                    -0.404880       0.067840
     48 C                     0.189054      -0.042657
     49 C                    -0.078339       0.023001
     50 C                     0.241338      -0.037374
     51 C                    -0.356461       0.063648
     52 C                     0.187590      -0.055541
     53 C                    -0.395930       0.083902
     54 C                    -0.215683      -0.052014
     55 C                    -0.353423       0.077288
     56 C                    -0.309452      -0.000993
     57 C                     0.046129       0.003062
     58 C                    -0.183699      -0.024176
     59 C                     0.028787       0.003016
     60 C                    -0.333378      -0.000856
     61 C                     0.210832       0.000792
     62 N                    -0.707107      -0.000040
     63 C                    -0.541552       0.003887
     64 C                    -0.757350       0.000639
     65 C                     0.420400       0.000051
     66 C                    -0.305024      -0.000047
     67 C                    -0.196979      -0.000040
     68 C                     0.422551       0.000050
     69 C                    -0.256748       0.000044
     70 C                    -0.247233      -0.000047
     71 C                    -0.234171       0.000045
     72 C                    -0.307873      -0.000046
     73 C                    -0.195693      -0.000038
     74 C                    -0.256685       0.000042
     75 C                    -0.246591      -0.000045
     76 C                    -0.235729       0.000042
     77 H                     0.239487      -0.000212
     78 H                     0.236952      -0.000276
     79 H                     0.267589      -0.001243
     80 H                     0.264315      -0.000616
     81 H                     0.228463       0.001826
     82 H                     0.278268      -0.001877
     83 H                     0.222673       0.000543
     84 C                    -0.656262       0.000077
     85 H                     0.319856      -0.003628
     86 H                     0.276662       0.000699
     87 H                     0.273776      -0.007372
     88 H                     0.274907       0.003654
     89 H                     0.323696      -0.003564
     90 H                     0.278371       0.000634
     91 H                     0.274310      -0.007335
     92 H                     0.274551       0.003634
     93 H                     0.191124       0.000486
     94 H                     0.219310       0.002240
     95 H                     0.217370       0.002150
     96 H                     0.196379      -0.000049
     97 H                     0.198937      -0.004625
     98 H                     0.217083       0.002496
     99 H                     0.222267      -0.004239
    100 H                     0.221960      -0.004982
    101 H                     0.229513       0.002722
    102 H                     0.224751      -0.005329
    103 H                     0.222093       0.002245
    104 H                     0.207552      -0.004061
    105 H                     0.222513      -0.003753
    106 H                     0.224916      -0.004942
    107 H                     0.229280       0.002533
    108 H                     0.221928      -0.004611
    109 H                     0.224382       0.000342
    110 H                     0.236360       0.000353
    111 H                     0.227305       0.000355
    112 H                     0.261072      -0.002288
    113 C                    -0.649546      -0.000442
    114 H                     0.231113       0.001609
    115 H                     0.247608      -0.000676
    116 H                     0.250382      -0.000896
    117 H                     0.270519       0.000004
    118 H                     0.239784      -0.000003
    119 H                     0.227965       0.000004
    120 H                     0.230922      -0.000004
    121 H                     0.269742       0.000003
    122 H                     0.239928      -0.000003
    123 H                     0.228115       0.000004
    124 H                     0.231611      -0.000003
    125 H                     0.214011       0.000035
    126 H                     0.215767       0.000024
    127 H                     0.240257      -0.000070
    128 H                     0.227674       0.000018
    129 H                     0.201329      -0.000086
    130 H                     0.264187      -0.000618
    131 S                     0.124860      -0.000001
    132 S                     0.373353       0.267009
  --------------------------------------------------------
  Sum of atomic charges =    -0.000000

                    Cartesian Multipole Moments
 -----------------------------------------------------------------
    Charge (ESU x 10^10)
                -0.0000
    Dipole Moment (Debye)
         X      16.4605      Y      13.0030      Z      28.2491
       Tot      35.1857
    Quadrupole Moments (Debye-Ang)
        XX    -642.6870     XY     -82.9189     YY    -474.4803
        XZ     -88.0360     YZ      -3.6761     ZZ    -331.4375

 Total job time:  101026.92s(wall), 297684.47s(cpu)
        *  Thank you very much for using Q-Chem.  Have a nice day.  *
