 Q-Chem 5.0, Q-Chem, Inc., Pleasanton, CA (2017)
 Q-Chem 5.0.1 for Intel X86 EM64T Linux

User input:
--------------------------------------------------------------
$rem
threads 8
jobtype opt
method PBEh-3c
basis def2-mSVP
mem_static      1024
mem_total       8000
sym_ignore      true
unrestricted true
scf_algorithm	diis
scf_max_cycles	250
solvent_method  pcm
geom_opt_tol_energy 25
geom_opt_tol_gradient 75
$end

$pcm
theory  iefpcm
$end
$solvent
dielectric      4.33
$end

$molecule
read uincoords.mol
$end
--------------------------------------------------------------

   21   -3799.3841853418      7.21E-09 Convergence criterion met
 Total energy in the final basis set = -3799.38418534
   18   -3799.3846557592      7.99E-09 Convergence criterion met
 Total energy in the final basis set = -3799.38465576
   18   -3799.3847592036      8.12E-09 Convergence criterion met
 Total energy in the final basis set = -3799.38475920
   19   -3799.3850496303      5.91E-09 Convergence criterion met
 Total energy in the final basis set = -3799.38504963
   19   -3799.3856394072      5.86E-09 Convergence criterion met
 Total energy in the final basis set = -3799.38563941
   19   -3799.3863831787      5.82E-09 Convergence criterion met
 Total energy in the final basis set = -3799.38638318
   19   -3799.3870476001      5.49E-09 Convergence criterion met
 Total energy in the final basis set = -3799.38704760
   19   -3799.3870754746      5.40E-09 Convergence criterion met
   16   -3799.3878769659      8.71E-09 Convergence criterion met
 Total energy in the final basis set = -3799.38787697
   18   -3799.3878951559      8.71E-09 Convergence criterion met
 Total energy in the final basis set = -3799.38789516
   19   -3799.3879035005      5.34E-09 Convergence criterion met
 Total energy in the final basis set = -3799.38790350
   19   -3799.3879085950      5.45E-09 Convergence criterion met
 Total energy in the final basis set = -3799.38790860
   19   -3799.3879149602      5.48E-09 Convergence criterion met
 Total energy in the final basis set = -3799.38791496
   19   -3799.3879238441      5.46E-09 Convergence criterion met
 Total energy in the final basis set = -3799.38792384

             Standard Nuclear Orientation (Angstroms)
    I     Atom           X                Y                Z
 ----------------------------------------------------------------
    1      C      -4.8992815678    -0.1106499361     4.4348593939
    2      C      -5.5423093838    -0.5728349910     3.2918249195
    3      C      -4.8175264368    -0.7802269103     2.1066413775
    4      C      -3.4440515140    -0.4916347929     2.0855122435
    5      C      -2.8067580731    -0.0315449174     3.2343305891
    6      C      -3.5413420733     0.1408205722     4.3907744787
    7      N      -2.8646910431     0.5287546251     5.5994773085
    8      C      -7.0095284876    -0.8914745758     3.3444374036
    9      C      -2.6358515157    -0.6779737091     0.8283137023
   10      C      -2.4404306773    -0.4885597809     6.4255345653
   11      C      -1.7593440809    -0.2425993636     7.6332321768
   12      C      -3.2031279927     2.8100431294     4.9122523900
   13      C      -2.6941223216     1.8740078775     5.8328317048
   14      C      -3.0312341689     4.1543927482     5.1192064146
   15      C      -2.3497382118     4.6253710085     6.2466698402
   16      C      -1.8514111720     3.7324815017     7.1632182125
   17      C      -2.0187001680     2.3580659587     6.9695586997
   18      C      -2.6842581105    -1.8300940284     6.0666811270
   19      C      -2.2779588420    -2.8563326737     6.8799200722
   20      C      -1.6101785766    -2.5992372614     8.0819473580
   21      C      -1.3526530422    -1.3020188514     8.4505446876
   22      C      -6.9898046086    -1.2755690180    -1.2468899724
   23      C      -6.3738461330    -0.6244065739    -0.1318956835
   24      B      -5.5353741713    -1.4449111920     0.8552727756
   25      C      -5.3975848020    -2.9626916952     0.6657159698
   26      C      -6.0034967509    -3.6019974774    -0.4612535556
   27      B      -6.8179426306    -2.7858292223    -1.4693566879
   28      C      -4.6789040742    -3.7505644247     1.5919338515
   29      C      -4.5526642066    -5.1066501068     1.4175243062
   30      C      -5.1499274000    -5.7375247119     0.2851382881
   31      C      -5.8542645477    -4.9928428374    -0.6278178232
   32      C      -7.7680899462    -0.5169384951    -2.1409253407
   33      C      -7.9444558677     0.8306865931    -1.9493648333
   34      C      -7.3339894387     1.4883788227    -0.8403870153
   35      C      -6.5640961835     0.7653140252     0.0398804546
   36      C      -3.1511393579    -6.1731934867     3.3663729712
   37      C      -2.6545425370    -7.4160059603     3.8244647277
   38      C      -2.8767143332    -8.5977073444     3.1536485382
   39      C      -3.6281164317    -8.5977074566     1.9535142459
   40      C      -4.1031937127    -7.3595625758     1.5258865113
   41      C      -3.8847602165    -6.1427031197     2.2053396035
   42      C      -3.9500811697    -9.7110499394     1.1374608601
   43      C      -4.6937490247    -9.5320056097    -0.0073395238
   44      C      -5.1629460524    -8.2632274995    -0.4199520107
   45      C      -4.8648313389    -7.1674034050     0.3543564198
   46      C      -8.0381376941     5.2492779109    -0.5370546899
   47      C      -7.4633286383     4.0179801626    -0.1416472970
   48      C      -7.7113697055     2.9019575666    -0.9016188693
   49      C      -8.5329214231     3.0447221887    -2.0405005193
   50      C      -9.1151143692     4.2400056382    -2.4526557597
   51      C      -8.8384951140     5.3741358820    -1.6507700179
   52      C      -8.7043158448     1.8145847560    -2.7078395937
   53      C      -9.4894846515     1.7770201636    -3.8342218297
   54      C     -10.0902279765     2.9783872590    -4.2754007097
   55      C      -9.9186103256     4.1768553593    -3.6191165562
   56      C      -9.3401609028    -4.5341498361    -3.8592731547
   57      C      -8.7759619493    -3.9780548586    -2.7116062517
   58      C      -7.4696221702    -3.4776214771    -2.7386907767
   59      C      -6.7382210914    -3.5678380768    -3.9367157210
   60      C      -7.3144203805    -4.1242520036    -5.0700962202
   61      C      -8.6184957747    -4.6009241761    -5.0332211651
   62      N      -9.2365135385    -5.1473848926    -6.1987901325
   63      C      -9.6021328525    -3.9688898221    -1.4514346151
   64      C      -5.3277609104    -3.0534291561    -4.0019647600
   65      C      -9.7737821862    -4.2516676695    -7.1345536335
   66      C      -9.5020194227    -2.8839180413    -7.0895857866
   67      C      -9.6840661499    -7.1364647942    -7.5205290322
   68      C      -8.9264165045    -6.4672204313    -6.5527699116
   69      C      -9.3635931147    -8.4252100879    -7.9183718120
   70      C      -8.3160288212    -9.1065898773    -7.3176206856
   71      C      -7.5865822167    -8.4708996208    -6.3270946524
   72      C      -7.8746138348    -7.1650213254    -5.9574964913
   73      C     -10.6122714732    -4.7168509255    -8.1543689400
   74      C     -11.1105399155    -3.8570622647    -9.1206543076
   75      C     -10.8332649193    -2.4998628909    -9.0633296423
   76      C     -10.0376948646    -2.0217823568    -8.0353686402
   77      H      -5.4478817688     0.0234347731     5.3600309468
   78      H      -1.7407344382     0.1657385978     3.2304799527
   79      H      -7.1936744958    -1.9302524313     3.0643849411
   80      H      -7.5756483923    -0.2765096645     2.6434942856
   81      H      -7.4211390223    -0.7323183293     4.3407489713
   82      H      -2.9575972339    -1.5883216353     0.3183208463
   83      H      -1.5844681968    -0.8248383140     1.0881779353
   84      C      -2.7597923112     0.5054106976    -0.1289620157
   85      H      -3.7326672885     2.4702702216     4.0348161070
   86      H      -3.4305834463     4.8529039784     4.3971701486
   87      H      -2.2166895224     5.6868419712     6.4003267715
   88      H      -1.3263092211     4.0855446881     8.0416564140
   89      H      -3.1977787000    -2.0631511975     5.1466596165
   90      H      -2.4812385589    -3.8755771405     6.5807894949
   91      H      -1.2951281098    -3.4148247032     8.7175392451
   92      H      -0.8311901144    -1.0902984836     9.3753769966
   93      H      -4.2216827103    -3.2776805260     2.4550616234
   94      H      -6.3080191147    -5.4781659600    -1.4868440146
   95      H      -8.2384346521    -1.0100349165    -2.9862302004
   96      H      -6.0952473679     1.2640176780     0.8829390402
   97      H      -2.9445010980    -5.2738974308     3.9340351900
   98      H      -2.0764392794    -7.4362294591     4.7398186678
   99      H      -2.4767955574    -9.5264851855     3.5425930965
  100      H      -3.6124210936   -10.7027969323     1.4135902052
  101      H      -4.9312970703   -10.3935692539    -0.6190281220
  102      H      -5.7442233607    -8.1800065599    -1.3304111398
  103      H      -7.8397868872     6.1268564506     0.0651830076
  104      H      -6.8455824395     3.9766756942     0.7470344319
  105      H      -9.2576665707     6.3383889489    -1.9113962203
  106      H      -9.6592522516     0.8581159427    -4.3828304565
  107      H     -10.7101264235     2.9502454209    -5.1628632473
  108      H     -10.4009788572     5.0714087353    -3.9939886622
  109      H     -10.3576912203    -4.9103943870    -3.8433485840
  110      H      -6.7519183498    -4.1808492247    -5.9963819551
  111      H     -10.6192963042    -3.6411514082    -1.6842237617
  112      H      -9.2017613895    -3.2409697493    -0.7429724340
  113      C      -9.6568136669    -5.3444192132    -0.7904403553
  114      H      -4.9030910070    -3.1777282488    -4.9981101040
  115      H      -4.6824487786    -3.5773569620    -3.2942712437
  116      H      -5.2782688446    -1.9930296809    -3.7467342809
  117      H      -8.8754806928    -2.4803121341    -6.3074751674
  118      H      -9.9583201216    -8.9036970871    -8.6868055167
  119      H      -8.0835718599   -10.1199790771    -7.6157952487
  120      H      -6.7715791680    -8.9857301185    -5.8352818460
  121      H      -7.2781708404    -6.6972476261    -5.1878089320
  122      H     -11.7373251665    -4.2550158577    -9.9092608301
  123      H     -11.2397284752    -1.8299939289    -9.8088901759
  124      H      -9.8138158771    -0.9653660146    -7.9659756907
  125      H     -10.0888465129    -6.0883690752    -1.4617423689
  126      H     -10.2647444618    -5.3192991282     0.1147648118
  127      H      -8.6590705889    -5.6855127374    -0.5132802818
  128      H      -2.1436223316     0.3503444690    -1.0151884568
  129      H      -2.4375413787     1.4337324002     0.3452932871
  130      H      -3.7891337881     0.6364229771    -0.4614516571
  131      S     -11.1536051035    -6.3907176400    -8.1341346950
  132      S      -1.3625683856     1.3350895567     8.1855860626
 ----------------------------------------------------------------

   19   -3799.3879239815      5.47E-09 Convergence criterion met
 Total energy in the final basis set = -3799.38792398
 Final energy is   -3799.38792398150
 **  OPTIMIZATION CONVERGED  **

                    Orbital Energies (a.u.)
 --------------------------------------------------------------

 Alpha MOs
 -- Occupied --
-89.681 -89.594 -14.778 -14.676 -10.563 -10.563 -10.548 -10.548
-10.508 -10.498 -10.498 -10.497 -10.497 -10.493 -10.493 -10.492
-10.492 -10.491 -10.490 -10.477 -10.477 -10.473 -10.464 -10.461
-10.460 -10.460 -10.453 -10.452 -10.451 -10.450 -10.450 -10.449
-10.449 -10.449 -10.448 -10.448 -10.447 -10.447 -10.447 -10.446
-10.446 -10.446 -10.446 -10.446 -10.445 -10.445 -10.445 -10.444
-10.443 -10.442 -10.442 -10.440 -10.440 -10.439 -10.438 -10.438
-10.436 -10.435 -10.435 -10.434 -10.433 -10.433 -10.433 -10.432
-10.431 -10.430 -10.430 -10.428 -10.425 -10.421 -10.417 -10.415
-10.412 -10.410 -10.406 -10.406 -10.403 -10.403  -8.321  -8.233
 -6.899  -6.896  -6.210  -6.207  -6.207  -6.124  -6.121  -6.115
 -1.170  -1.084  -1.031  -1.023  -0.999  -0.998  -0.973  -0.967
 -0.964  -0.962  -0.942  -0.939  -0.939  -0.919  -0.919  -0.914
 -0.898  -0.897  -0.892  -0.888  -0.882  -0.878  -0.873  -0.863
 -0.853  -0.848  -0.840  -0.836  -0.835  -0.833  -0.833  -0.825
 -0.813  -0.813  -0.803  -0.798  -0.794  -0.793  -0.783  -0.777
 -0.775  -0.764  -0.759  -0.754  -0.727  -0.718  -0.716  -0.714
 -0.711  -0.708  -0.706  -0.702  -0.698  -0.688  -0.680  -0.679
 -0.676  -0.673  -0.662  -0.660  -0.650  -0.646  -0.643  -0.632
 -0.628  -0.626  -0.625  -0.619  -0.613  -0.595  -0.585  -0.585
 -0.581  -0.580  -0.579  -0.578  -0.578  -0.574  -0.569  -0.566
 -0.558  -0.558  -0.545  -0.543  -0.541  -0.541  -0.540  -0.539
 -0.535  -0.531  -0.530  -0.525  -0.521  -0.514  -0.511  -0.509
 -0.501  -0.498  -0.496  -0.493  -0.490  -0.487  -0.486  -0.486
 -0.485  -0.484  -0.481  -0.478  -0.478  -0.476  -0.475  -0.474
 -0.473  -0.471  -0.470  -0.469  -0.468  -0.466  -0.464  -0.464
 -0.463  -0.459  -0.457  -0.454  -0.449  -0.448  -0.446  -0.443
 -0.441  -0.439  -0.434  -0.433  -0.429  -0.428  -0.426  -0.423
 -0.423  -0.422  -0.421  -0.418  -0.414  -0.412  -0.409  -0.408
 -0.408  -0.403  -0.397  -0.395  -0.388  -0.385  -0.385  -0.384
 -0.383  -0.380  -0.380  -0.379  -0.377  -0.374  -0.371  -0.370
 -0.360  -0.358  -0.354  -0.354  -0.353  -0.344  -0.342  -0.332
 -0.325  -0.318  -0.317  -0.306  -0.300  -0.300  -0.295  -0.292
 -0.287  -0.286  -0.285  -0.274  -0.269  -0.268  -0.265  -0.264
 -0.252  -0.242  -0.238  -0.220  -0.146

 Beta MOs
 -- Occupied --
-89.679 -89.594 -14.769 -14.676 -10.563 -10.563 -10.545 -10.545
-10.508 -10.498 -10.498 -10.498 -10.498 -10.492 -10.492 -10.491
-10.491 -10.490 -10.490 -10.477 -10.477 -10.473 -10.463 -10.461
-10.460 -10.460 -10.454 -10.453 -10.450 -10.450 -10.450 -10.450
-10.449 -10.449 -10.448 -10.448 -10.448 -10.447 -10.447 -10.446
-10.446 -10.446 -10.445 -10.445 -10.445 -10.445 -10.444 -10.444
-10.443 -10.442 -10.442 -10.440 -10.440 -10.439 -10.438 -10.437
-10.435 -10.435 -10.434 -10.434 -10.433 -10.433 -10.432 -10.432
-10.432 -10.430 -10.430 -10.429 -10.425 -10.421 -10.417 -10.414
-10.412 -10.411 -10.406 -10.406 -10.403 -10.402  -8.319  -8.233
 -6.897  -6.894  -6.209  -6.206  -6.200  -6.124  -6.121  -6.115
 -1.156  -1.084  -1.024  -1.019  -0.999  -0.998  -0.972  -0.966
 -0.964  -0.957  -0.941  -0.938  -0.938  -0.919  -0.918  -0.912
 -0.897  -0.895  -0.891  -0.887  -0.880  -0.878  -0.872  -0.860
 -0.853  -0.848  -0.840  -0.835  -0.834  -0.832  -0.832  -0.821
 -0.813  -0.808  -0.801  -0.796  -0.793  -0.792  -0.781  -0.776
 -0.772  -0.764  -0.757  -0.754  -0.725  -0.716  -0.715  -0.712
 -0.710  -0.708  -0.706  -0.702  -0.698  -0.685  -0.677  -0.676
 -0.676  -0.672  -0.662  -0.657  -0.647  -0.644  -0.642  -0.632
 -0.627  -0.626  -0.624  -0.617  -0.613  -0.593  -0.583  -0.580
 -0.579  -0.578  -0.577  -0.577  -0.572  -0.571  -0.567  -0.566
 -0.557  -0.556  -0.544  -0.542  -0.541  -0.541  -0.540  -0.534
 -0.530  -0.529  -0.527  -0.524  -0.521  -0.514  -0.510  -0.508
 -0.500  -0.497  -0.495  -0.493  -0.489  -0.486  -0.484  -0.483
 -0.482  -0.480  -0.478  -0.477  -0.475  -0.475  -0.474  -0.473
 -0.472  -0.469  -0.469  -0.468  -0.467  -0.466  -0.464  -0.463
 -0.458  -0.457  -0.453  -0.449  -0.448  -0.446  -0.442  -0.442
 -0.441  -0.437  -0.433  -0.429  -0.428  -0.426  -0.425  -0.423
 -0.422  -0.421  -0.420  -0.412  -0.410  -0.408  -0.406  -0.405
 -0.402  -0.402  -0.396  -0.395  -0.387  -0.385  -0.383  -0.382
 -0.381  -0.380  -0.379  -0.379  -0.377  -0.373  -0.371  -0.369
 -0.359  -0.352  -0.351  -0.346  -0.344  -0.340  -0.336  -0.331
 -0.323  -0.317  -0.302  -0.300  -0.300  -0.296  -0.295  -0.292
 -0.285  -0.283  -0.282  -0.268  -0.265  -0.264  -0.258  -0.244
 -0.239  -0.230  -0.220

          Ground-State Mulliken Net Atomic Charges

     Atom                 Charge (a.u.)    Spin (a.u.)
  --------------------------------------------------------
      1 C                    -0.295878       0.010505
      2 C                     0.013416       0.001995
      3 C                    -0.154879      -0.023085
      4 C                     0.039508       0.002255
      5 C                    -0.293446       0.010646
      6 C                     0.109842      -0.020720
      7 N                    -0.643186       0.323234
      8 C                    -0.758721       0.001622
      9 C                    -0.541529       0.003832
     10 C                     0.460171      -0.003520
     11 C                    -0.215813       0.135343
     12 C                    -0.286834       0.048184
     13 C                     0.465603      -0.003790
     14 C                    -0.224612      -0.015098
     15 C                    -0.224923       0.124982
     16 C                    -0.239203      -0.083674
     17 C                    -0.217115       0.135762
     18 C                    -0.284165       0.046928
     19 C                    -0.225661      -0.013794
     20 C                    -0.223767       0.123609
     21 C                    -0.239299      -0.082768
     22 C                    -0.149271       0.051330
     23 C                    -0.130012       0.020908
     24 B                     0.527298       0.325409
     25 C                    -0.136769       0.029326
     26 C                    -0.140109       0.051350
     27 B                     0.548741       0.288535
     28 C                    -0.406660      -0.031197
     29 C                     0.078549       0.054976
     30 C                     0.064331       0.083749
     31 C                    -0.410007      -0.052282
     32 C                    -0.402250      -0.051467
     33 C                     0.062628       0.082881
     34 C                     0.081152       0.048853
     35 C                    -0.419306      -0.025068
     36 C                    -0.412068       0.077499
     37 C                    -0.224670      -0.050399
     38 C                    -0.361384       0.072433
     39 C                     0.227858      -0.040593
     40 C                    -0.081282       0.024912
     41 C                     0.181677      -0.048677
     42 C                    -0.360112       0.080419
     43 C                    -0.225037      -0.054443
     44 C                    -0.405728       0.087143
     45 C                     0.183065      -0.056633
     46 C                    -0.224483      -0.047389
     47 C                    -0.410606       0.072357
     48 C                     0.180729      -0.045934
     49 C                    -0.079900       0.023674
     50 C                     0.228820      -0.038475
     51 C                    -0.362270       0.067451
     52 C                     0.179335      -0.055187
     53 C                    -0.401708       0.084045
     54 C                    -0.226562      -0.052469
     55 C                    -0.359228       0.077559
     56 C                    -0.316418      -0.001004
     57 C                     0.040143       0.003058
     58 C                    -0.181575      -0.024671
     59 C                     0.023810       0.003013
     60 C                    -0.335634      -0.000830
     61 C                     0.211962       0.000741
     62 N                    -0.705671      -0.000035
     63 C                    -0.541552       0.004144
     64 C                    -0.760107       0.000622
     65 C                     0.416473       0.000022
     66 C                    -0.311276      -0.000018
     67 C                    -0.201515      -0.000005
     68 C                     0.418502       0.000022
     69 C                    -0.263498       0.000006
     70 C                    -0.257062      -0.000014
     71 C                    -0.243113       0.000012
     72 C                    -0.314023      -0.000018
     73 C                    -0.200366      -0.000003
     74 C                    -0.263380       0.000004
     75 C                    -0.256475      -0.000013
     76 C                    -0.244261       0.000010
     77 H                     0.251298      -0.000218
     78 H                     0.248432      -0.000286
     79 H                     0.261407      -0.001196
     80 H                     0.258615      -0.000604
     81 H                     0.238393       0.001738
     82 H                     0.269954      -0.001937
     83 H                     0.231065       0.000491
     84 C                    -0.660498       0.000022
     85 H                     0.317763      -0.003241
     86 H                     0.282814       0.000257
     87 H                     0.281417      -0.006956
     88 H                     0.285681       0.003345
     89 H                     0.320632      -0.003197
     90 H                     0.282863       0.000202
     91 H                     0.281559      -0.006881
     92 H                     0.285498       0.003302
     93 H                     0.207772       0.000765
     94 H                     0.222005       0.001891
     95 H                     0.221609       0.001929
     96 H                     0.209365       0.000362
     97 H                     0.221548      -0.004640
     98 H                     0.233828       0.002479
     99 H                     0.235764      -0.004244
    100 H                     0.235376      -0.004744
    101 H                     0.241175       0.002632
    102 H                     0.235260      -0.005106
    103 H                     0.236806       0.002327
    104 H                     0.225026      -0.004277
    105 H                     0.235851      -0.003945
    106 H                     0.234965      -0.004920
    107 H                     0.240869       0.002537
    108 H                     0.235181      -0.004577
    109 H                     0.231786       0.000349
    110 H                     0.244173       0.000355
    111 H                     0.231934       0.000327
    112 H                     0.259698      -0.002417
    113 C                    -0.653676      -0.000447
    114 H                     0.238053       0.001628
    115 H                     0.246859      -0.000705
    116 H                     0.249630      -0.000897
    117 H                     0.275147       0.000002
    118 H                     0.251306       0.000001
    119 H                     0.240780       0.000001
    120 H                     0.243480      -0.000001
    121 H                     0.274597       0.000001
    122 H                     0.251462       0.000001
    123 H                     0.240870       0.000001
    124 H                     0.243727       0.000000
    125 H                     0.216867       0.000085
    126 H                     0.221213       0.000028
    127 H                     0.235710      -0.000055
    128 H                     0.228814       0.000014
    129 H                     0.208931      -0.000088
    130 H                     0.255245      -0.000571
    131 S                     0.119467      -0.000002
    132 S                     0.385404       0.276993
  --------------------------------------------------------
  Sum of atomic charges =    -0.000000

                    Cartesian Multipole Moments
 -----------------------------------------------------------------
    Charge (ESU x 10^10)
                -0.0000
    Dipole Moment (Debye)
         X      17.7420      Y      13.7886      Z      29.7605
       Tot      37.2907
    Quadrupole Moments (Debye-Ang)
        XX    -652.0891     XY     -90.1846     YY    -467.2553
        XZ     -89.1674     YZ      -2.6246     ZZ    -318.1633

 Total job time:  80455.54s(wall), 250686.48s(cpu)
        *  Thank you very much for using Q-Chem.  Have a nice day.  *
