 Q-Chem 5.0, Q-Chem, Inc., Pleasanton, CA (2017)
 Q-Chem 5.0.1 for Intel X86 EM64T Linux

User input:
--------------------------------------------------------------
$rem
threads 8
jobtype opt
method PBEh-3c
basis def2-mSVP
mem_static      1024
mem_total       8000
sym_ignore      true
unrestricted true
scf_algorithm	diis
scf_max_cycles	250
solvent_method  pcm
geom_opt_tol_energy 25
geom_opt_tol_gradient 75
$end

$pcm
theory  iefpcm
$end

$solvent
dielectric      2.38
$end

$molecule
read uincoords.mol
$end
--------------------------------------------------------------

   21   -3799.3683145825      8.27E-09 Convergence criterion met
 Total energy in the final basis set = -3799.36831458
   19   -3799.3686600698      7.14E-09 Convergence criterion met
 Total energy in the final basis set = -3799.36866007
   19   -3799.3687002585      6.42E-09 Convergence criterion met
 Total energy in the final basis set = -3799.36870026
   19   -3799.3691246169      7.28E-09 Convergence criterion met
 Total energy in the final basis set = -3799.36912462
   19   -3799.3698057539      7.26E-09 Convergence criterion met
 Total energy in the final basis set = -3799.36980575
   19   -3799.3706516431      7.14E-09 Convergence criterion met
 Total energy in the final basis set = -3799.37065164
   19   -3799.3712536597      6.93E-09 Convergence criterion met
 Total energy in the final basis set = -3799.37125366
   19   -3799.3715594796      7.04E-09 Convergence criterion met
   19   -3799.3719279535      7.86E-09 Convergence criterion met
 Total energy in the final basis set = -3799.37192795
   18   -3799.3719444464      6.71E-09 Convergence criterion met
 Total energy in the final basis set = -3799.37194445
   17   -3799.3719492678      9.89E-09 Convergence criterion met
 Total energy in the final basis set = -3799.37194927
   19   -3799.3719462716      7.87E-09 Convergence criterion met
 Total energy in the final basis set = -3799.37194627
   19   -3799.3719515871      7.52E-09 Convergence criterion met
 Total energy in the final basis set = -3799.37195159
   19   -3799.3719623352      7.44E-09 Convergence criterion met
 Total energy in the final basis set = -3799.37196234

             Standard Nuclear Orientation (Angstroms)
    I     Atom           X                Y                Z
 ----------------------------------------------------------------
    1      C      -4.9132847182    -0.1104145799     4.4256474133
    2      C      -5.5483910984    -0.5643512035     3.2749631336
    3      C      -4.8142016540    -0.7684731367     2.0947971347
    4      C      -3.4400232862    -0.4815829672     2.0852854020
    5      C      -2.8104479148    -0.0304934629     3.2418048097
    6      C      -3.5540811907     0.1361806856     4.3934794579
    7      N      -2.8849416144     0.5102973461     5.6112899286
    8      C      -7.0163960690    -0.8798076922     3.3134483935
    9      C      -2.6243596852    -0.6624755369     0.8324460505
   10      C      -2.4806762924    -0.5157027541     6.4364693313
   11      C      -1.8077651022    -0.2837677916     7.6515228971
   12      C      -3.1932679546     2.7972757683     4.9322825797
   13      C      -2.7004979712     1.8521382794     5.8526939099
   14      C      -3.0068475539     4.1385258232     5.1452093990
   15      C      -2.3268816680     4.5968430674     6.2785439508
   16      C      -1.8454196597     3.6948917722     7.1954465671
   17      C      -2.0277423350     2.3236011479     6.9961226466
   18      C      -2.7378782428    -1.8524179789     6.0682346658
   19      C      -2.3537264453    -2.8873726740     6.8808379161
   20      C      -1.6947822284    -2.6440369484     8.0903970795
   21      C      -1.4233063874    -1.3519744829     8.4674345294
   22      C      -6.9873971081    -1.2680270168    -1.2540796295
   23      C      -6.3670155796    -0.6135831000    -0.1444703465
   24      B      -5.5244151592    -1.4327547100     0.8384758911
   25      C      -5.3779773752    -2.9486174698     0.6505862209
   26      C      -5.9915972951    -3.5917341152    -0.4695232517
   27      B      -6.8145241220    -2.7788437718    -1.4732185850
   28      C      -4.6468969603    -3.7330655168     1.5699608379
   29      C      -4.5171923972    -5.0882590451     1.3961494421
   30      C      -5.1260385973    -5.7233932681     0.2728863954
   31      C      -5.8412665696    -4.9821973184    -0.6342284548
   32      C      -7.7713948000    -0.5135296529    -2.1455320844
   33      C      -7.9489494804     0.8341465241    -1.9565622138
   34      C      -7.3331393213     1.4957266331    -0.8538129315
   35      C      -6.5578780132     0.7763861559     0.0241389142
   36      C      -3.0864581951    -6.1460348579     3.3282370903
   37      C      -2.5818449879    -7.3858514671     3.7842163059
   38      C      -2.8123722621    -8.5700696194     3.1214392433
   39      C      -3.5798022920    -8.5755121654     1.9319145806
   40      C      -4.0618910590    -7.3397763616     1.5061354239
   41      C      -3.8367483243    -6.1202459142     2.1780989433
   42      C      -3.9112860087    -9.6919810693     1.1244933151
   43      C      -4.6697652644    -9.5177566817    -0.0108096627
   44      C      -5.1451578091    -8.2512803757    -0.4220403134
   45      C      -4.8382929737    -7.1522083568     0.3436938449
   46      C      -8.0397012906     5.2567159344    -0.5591581592
   47      C      -7.4614582726     4.0275269698    -0.1633938657
   48      C      -7.7124696363     2.9087839706    -0.9175657181
   49      C      -8.5408806487     3.0470416306    -2.0517206770
   50      C      -9.1269003068     4.2398914917    -2.4643064524
   51      C      -8.8465812945     5.3767150749    -1.6681736100
   52      C      -8.7147393870     1.8143957835    -2.7132837298
   53      C      -9.5072236011     1.7720218936    -3.8338184808
   54      C     -10.1121218411     2.9707839446    -4.2754877461
   55      C      -9.9375663296     4.1715559215    -3.6251853872
   56      C      -9.3477384855    -4.5217450574    -3.8544470771
   57      C      -8.7818090835    -3.9605583426    -2.7105112948
   58      C      -7.4705440446    -3.4737967497    -2.7380957142
   59      C      -6.7372076969    -3.5795295972    -3.9333503898
   60      C      -7.3160406788    -4.1394151709    -5.0635383347
   61      C      -8.6240599457    -4.6047108227    -5.0259997700
   62      N      -9.2440491071    -5.1543156912    -6.1887807380
   63      C      -9.6100496275    -3.9296002545    -1.4522920855
   64      C      -5.3227912403    -3.0763025013    -3.9988387023
   65      C      -9.7729642446    -4.2607202079    -7.1309777808
   66      C      -9.4924882483    -2.8947671315    -7.0921827118
   67      C      -9.7025301046    -7.1475781976    -7.5001541309
   68      C      -8.9443206422    -6.4788763300    -6.5326364803
   69      C      -9.3893662700    -8.4404568776    -7.8891232939
   70      C      -8.3505234883    -9.1266823067    -7.2794373813
   71      C      -7.6219758295    -8.4914936566    -6.2884564388
   72      C      -7.9017730998    -7.1817206203    -5.9275796387
   73      C     -10.6104535768    -4.7260750788    -8.1513142355
   74      C     -11.0982688006    -3.8680985725    -9.1240628193
   75      C     -10.8124151863    -2.5127103376    -9.0731642251
   76      C     -10.0182676530    -2.0344318811    -8.0446790306
   77      H      -5.4692916247     0.0192385765     5.3471418073
   78      H      -1.7436713143     0.1630694419     3.2470377757
   79      H      -7.1995185769    -1.9163191871     3.0249151303
   80      H      -7.5745059267    -0.2607362548     2.6099788890
   81      H      -7.4368802547    -0.7251768769     4.3069140721
   82      H      -2.9370319666    -1.5757983432     0.3224431771
   83      H      -1.5728731902    -0.8010426976     1.0971861123
   84      C      -2.7546948624     0.5187532474    -0.1266573273
   85      H      -3.7213408397     2.4641675205     4.0513420000
   86      H      -3.3934668740     4.8444116102     4.4235013174
   87      H      -2.1820581511     5.6560719573     6.4369327038
   88      H      -1.3224065381     4.0388079419     8.0787386514
   89      H      -3.2448266446    -2.0727197496     5.1414143957
   90      H      -2.5678456788    -3.9024429665     6.5752832171
   91      H      -1.3969150825    -3.4664821715     8.7254334139
   92      H      -0.9079346841    -1.1516616932     9.3981845283
   93      H      -4.1821295819    -3.2578146084     2.4279068718
   94      H      -6.3030890210    -5.4694777221    -1.4878368711
   95      H      -8.2451060905    -1.0106232047    -2.9864544035
   96      H      -6.0843876426     1.2782236641     0.8629081180
   97      H      -2.8712973647    -5.2434235528     3.8875810505
   98      H      -1.9898304447    -7.4024178405     4.6908258433
   99      H      -2.4059217274    -9.4968312459     3.5083799727
  100      H      -3.5691628138   -10.6824263582     1.3996795622
  101      H      -4.9146418769   -10.3818530929    -0.6159804923
  102      H      -5.7385639684    -8.1718336746    -1.3248656662
  103      H      -7.8389677611     6.1367856026     0.0387174056
  104      H      -6.8383920481     3.9894967380     0.7217138260
  105      H      -9.2683789785     6.3396464218    -1.9294427911
  106      H      -9.6799604819     0.8506872367    -4.3772384511
  107      H     -10.7380572007     2.9385261438    -5.1585466638
  108      H     -10.4234428349     5.0640338822    -4.0004051059
  109      H     -10.3686436992    -4.8884501313    -3.8391875655
  110      H      -6.7528164658    -4.2076248486    -5.9886055721
  111      H     -10.6314952653    -3.6238765770    -1.6960101906
  112      H      -9.2221590278    -3.1759231105    -0.7640000521
  113      C      -9.6441087421    -5.2867720282    -0.7534155434
  114      H      -4.8979832783    -3.2076424064    -4.9940833613
  115      H      -4.6823526420    -3.6021932490    -3.2882760298
  116      H      -5.2662142992    -2.0153406691    -3.7475802984
  117      H      -8.8668203022    -2.4921968539    -6.3089157024
  118      H      -9.9836072155    -8.9176242986    -8.6586572707
  119      H      -8.1240728941   -10.1432900171    -7.5711223905
  120      H      -6.8137964174    -9.0099512002    -5.7892926396
  121      H      -7.3071669281    -6.7138590346    -5.1566044221
  122      H     -11.7234576802    -4.2669217518    -9.9134080601
  123      H     -11.2109847942    -1.8443293296    -9.8242675894
  124      H      -9.7874913352    -0.9792089435    -7.9801741399
  125      H     -10.0536635571    -6.0581188624    -1.4075917322
  126      H     -10.2614779776    -5.2488304816     0.1450107425
  127      H      -8.6427304239    -5.5986601991    -0.4564821983
  128      H      -2.1326769685     0.3677014422    -1.0093225042
  129      H      -2.4434312122     1.4510945348     0.3472339704
  130      H      -3.7830620027     0.6392334610    -0.4655317064
  131      S     -11.1637118940    -6.3954349292    -8.1243637098
  132      S      -1.3945532427     1.2869343698     8.2136038244
 ----------------------------------------------------------------

   19   -3799.3719658752      7.98E-09 Convergence criterion met
 Total energy in the final basis set = -3799.37196588
 Final energy is   -3799.37196587524
 **  OPTIMIZATION CONVERGED  **

                    Orbital Energies (a.u.)
 --------------------------------------------------------------

 Alpha MOs
 -- Occupied --
-89.691 -89.587 -14.788 -14.670 -10.572 -10.572 -10.558 -10.558
-10.512 -10.508 -10.507 -10.503 -10.503 -10.502 -10.502 -10.500
-10.500 -10.492 -10.492 -10.471 -10.471 -10.466 -10.466 -10.464
-10.464 -10.463 -10.448 -10.447 -10.447 -10.446 -10.445 -10.445
-10.444 -10.444 -10.444 -10.444 -10.443 -10.443 -10.442 -10.442
-10.441 -10.441 -10.441 -10.441 -10.440 -10.439 -10.439 -10.439
-10.437 -10.436 -10.436 -10.435 -10.435 -10.433 -10.433 -10.433
-10.432 -10.432 -10.430 -10.430 -10.429 -10.428 -10.428 -10.428
-10.426 -10.425 -10.424 -10.424 -10.422 -10.416 -10.416 -10.409
-10.406 -10.405 -10.401 -10.400 -10.397 -10.397  -8.330  -8.226
 -6.894  -6.890  -6.220  -6.217  -6.216  -6.117  -6.114  -6.109
 -1.179  -1.078  -1.040  -1.032  -0.994  -0.993  -0.977  -0.971
 -0.960  -0.958  -0.937  -0.934  -0.933  -0.923  -0.915  -0.914
 -0.908  -0.895  -0.891  -0.889  -0.881  -0.873  -0.870  -0.867
 -0.847  -0.842  -0.834  -0.832  -0.830  -0.829  -0.829  -0.828
 -0.816  -0.808  -0.797  -0.793  -0.789  -0.787  -0.785  -0.780
 -0.777  -0.765  -0.758  -0.749  -0.737  -0.717  -0.712  -0.710
 -0.707  -0.703  -0.701  -0.698  -0.694  -0.692  -0.689  -0.688
 -0.671  -0.668  -0.658  -0.656  -0.652  -0.641  -0.637  -0.627
 -0.625  -0.622  -0.621  -0.619  -0.607  -0.605  -0.591  -0.591
 -0.588  -0.585  -0.577  -0.574  -0.574  -0.571  -0.569  -0.562
 -0.554  -0.554  -0.553  -0.549  -0.545  -0.541  -0.539  -0.537
 -0.535  -0.535  -0.525  -0.521  -0.516  -0.510  -0.506  -0.505
 -0.500  -0.497  -0.496  -0.495  -0.490  -0.487  -0.487  -0.485
 -0.484  -0.481  -0.481  -0.479  -0.479  -0.472  -0.472  -0.470
 -0.469  -0.469  -0.468  -0.466  -0.465  -0.464  -0.463  -0.461
 -0.459  -0.458  -0.456  -0.452  -0.451  -0.447  -0.444  -0.444
 -0.438  -0.436  -0.435  -0.431  -0.428  -0.428  -0.423  -0.422
 -0.422  -0.418  -0.417  -0.416  -0.409  -0.407  -0.405  -0.404
 -0.403  -0.402  -0.393  -0.390  -0.387  -0.381  -0.380  -0.379
 -0.379  -0.378  -0.375  -0.374  -0.372  -0.369  -0.368  -0.367
 -0.364  -0.363  -0.354  -0.349  -0.347  -0.339  -0.337  -0.327
 -0.327  -0.321  -0.312  -0.300  -0.295  -0.294  -0.294  -0.289
 -0.287  -0.283  -0.282  -0.280  -0.263  -0.261  -0.258  -0.258
 -0.247  -0.236  -0.231  -0.214  -0.141

 Beta MOs
 -- Occupied --
-89.689 -89.587 -14.779 -14.670 -10.573 -10.573 -10.555 -10.555
-10.512 -10.509 -10.508 -10.502 -10.501 -10.501 -10.501 -10.500
-10.500 -10.492 -10.492 -10.471 -10.471 -10.466 -10.465 -10.464
-10.464 -10.462 -10.449 -10.447 -10.447 -10.446 -10.445 -10.444
-10.444 -10.444 -10.444 -10.443 -10.443 -10.443 -10.442 -10.442
-10.442 -10.440 -10.440 -10.440 -10.440 -10.439 -10.439 -10.439
-10.437 -10.436 -10.436 -10.435 -10.435 -10.433 -10.433 -10.432
-10.432 -10.432 -10.430 -10.428 -10.428 -10.428 -10.428 -10.427
-10.426 -10.425 -10.424 -10.424 -10.423 -10.416 -10.416 -10.409
-10.406 -10.405 -10.400 -10.400 -10.396 -10.396  -8.328  -8.226
 -6.891  -6.888  -6.219  -6.215  -6.209  -6.117  -6.114  -6.109
 -1.165  -1.078  -1.033  -1.028  -0.994  -0.993  -0.976  -0.967
 -0.960  -0.958  -0.936  -0.933  -0.932  -0.921  -0.914  -0.913
 -0.904  -0.894  -0.891  -0.888  -0.880  -0.873  -0.868  -0.867
 -0.847  -0.842  -0.834  -0.830  -0.829  -0.828  -0.827  -0.826
 -0.814  -0.808  -0.795  -0.791  -0.789  -0.787  -0.782  -0.779
 -0.775  -0.762  -0.758  -0.748  -0.735  -0.715  -0.711  -0.709
 -0.706  -0.702  -0.701  -0.697  -0.692  -0.691  -0.687  -0.685
 -0.671  -0.668  -0.657  -0.652  -0.649  -0.639  -0.637  -0.627
 -0.623  -0.622  -0.621  -0.619  -0.607  -0.603  -0.589  -0.588
 -0.583  -0.575  -0.575  -0.574  -0.573  -0.569  -0.567  -0.562
 -0.553  -0.553  -0.552  -0.548  -0.540  -0.539  -0.536  -0.535
 -0.534  -0.533  -0.524  -0.520  -0.516  -0.509  -0.506  -0.504
 -0.499  -0.494  -0.493  -0.490  -0.487  -0.485  -0.484  -0.482
 -0.482  -0.480  -0.479  -0.479  -0.477  -0.472  -0.470  -0.469
 -0.468  -0.468  -0.465  -0.464  -0.463  -0.462  -0.461  -0.459
 -0.458  -0.455  -0.452  -0.451  -0.447  -0.445  -0.444  -0.442
 -0.436  -0.436  -0.433  -0.427  -0.427  -0.423  -0.422  -0.421
 -0.418  -0.416  -0.415  -0.412  -0.407  -0.407  -0.404  -0.402
 -0.401  -0.399  -0.391  -0.390  -0.386  -0.380  -0.379  -0.379
 -0.377  -0.376  -0.375  -0.374  -0.372  -0.368  -0.366  -0.364
 -0.361  -0.354  -0.347  -0.345  -0.340  -0.338  -0.336  -0.325
 -0.319  -0.311  -0.311  -0.295  -0.294  -0.294  -0.290  -0.289
 -0.286  -0.278  -0.277  -0.261  -0.258  -0.258  -0.252  -0.239
 -0.233  -0.224  -0.214

          Ground-State Mulliken Net Atomic Charges

     Atom                 Charge (a.u.)    Spin (a.u.)
  --------------------------------------------------------
      1 C                    -0.297140       0.010684
      2 C                     0.014531       0.002024
      3 C                    -0.151033      -0.022259
      4 C                     0.043160       0.002351
      5 C                    -0.293997       0.010954
      6 C                     0.107746      -0.020674
      7 N                    -0.640512       0.330107
      8 C                    -0.755989       0.001832
      9 C                    -0.541062       0.003915
     10 C                     0.454736      -0.007830
     11 C                    -0.213507       0.139252
     12 C                    -0.282556       0.054033
     13 C                     0.460425      -0.008812
     14 C                    -0.220718      -0.021445
     15 C                    -0.219674       0.130409
     16 C                    -0.236872      -0.087593
     17 C                    -0.214887       0.139025
     18 C                    -0.279445       0.052332
     19 C                    -0.221726      -0.019882
     20 C                    -0.218367       0.129564
     21 C                    -0.236912      -0.087063
     22 C                    -0.148826       0.054487
     23 C                    -0.127230       0.013890
     24 B                     0.529430       0.332799
     25 C                    -0.133967       0.024076
     26 C                    -0.138957       0.057244
     27 B                     0.560652       0.283278
     28 C                    -0.402450      -0.027719
     29 C                     0.086127       0.049765
     30 C                     0.070181       0.090033
     31 C                    -0.407813      -0.057195
     32 C                    -0.397001      -0.054173
     33 C                     0.068735       0.086794
     34 C                     0.088683       0.042088
     35 C                    -0.418302      -0.019639
     36 C                    -0.407518       0.076363
     37 C                    -0.215618      -0.050097
     38 C                    -0.357413       0.071961
     39 C                     0.237780      -0.041002
     40 C                    -0.080760       0.025089
     41 C                     0.188786      -0.047179
     42 C                    -0.356249       0.082765
     43 C                    -0.216550      -0.055605
     44 C                    -0.401476       0.089612
     45 C                     0.189244      -0.058179
     46 C                    -0.215972      -0.045655
     47 C                    -0.406417       0.069027
     48 C                     0.187148      -0.043477
     49 C                    -0.078701       0.023182
     50 C                     0.238452      -0.037682
     51 C                    -0.358008       0.064675
     52 C                     0.185680      -0.055454
     53 C                    -0.397380       0.083997
     54 C                    -0.218333      -0.052157
     55 C                    -0.354966       0.077430
     56 C                    -0.311158      -0.000993
     57 C                     0.044796       0.003054
     58 C                    -0.183274      -0.024271
     59 C                     0.027601       0.003009
     60 C                    -0.334057      -0.000848
     61 C                     0.211001       0.000776
     62 N                    -0.706742      -0.000037
     63 C                    -0.541693       0.003954
     64 C                    -0.758100       0.000637
     65 C                     0.419552       0.000037
     66 C                    -0.306559      -0.000033
     67 C                    -0.198005      -0.000022
     68 C                     0.421672       0.000036
     69 C                    -0.258441       0.000025
     70 C                    -0.249702      -0.000030
     71 C                    -0.236391       0.000029
     72 C                    -0.309394      -0.000032
     73 C                    -0.196750      -0.000020
     74 C                    -0.258368       0.000023
     75 C                    -0.249069      -0.000029
     76 C                    -0.237850       0.000026
     77 H                     0.242341      -0.000214
     78 H                     0.239699      -0.000280
     79 H                     0.266237      -0.001230
     80 H                     0.263000      -0.000613
     81 H                     0.230768       0.001803
     82 H                     0.276471      -0.001890
     83 H                     0.224616       0.000530
     84 C                    -0.657287       0.000063
     85 H                     0.319337      -0.003524
     86 H                     0.278247       0.000582
     87 H                     0.275738      -0.007266
     88 H                     0.277590       0.003575
     89 H                     0.322746      -0.003466
     90 H                     0.279252       0.000520
     91 H                     0.276153      -0.007216
     92 H                     0.277283       0.003548
     93 H                     0.194923       0.000564
     94 H                     0.219948       0.002156
     95 H                     0.218300       0.002099
     96 H                     0.199328       0.000063
     97 H                     0.204206      -0.004633
     98 H                     0.221098       0.002493
     99 H                     0.225463      -0.004246
    100 H                     0.225121      -0.004927
    101 H                     0.232277       0.002701
    102 H                     0.227269      -0.005276
    103 H                     0.225573       0.002267
    104 H                     0.211654      -0.004120
    105 H                     0.225668      -0.003807
    106 H                     0.227311      -0.004940
    107 H                     0.232023       0.002536
    108 H                     0.225049      -0.004608
    109 H                     0.226187       0.000343
    110 H                     0.238227       0.000353
    111 H                     0.228373       0.000350
    112 H                     0.261001      -0.002322
    113 C                    -0.650542      -0.000444
    114 H                     0.232649       0.001613
    115 H                     0.247559      -0.000684
    116 H                     0.250359      -0.000894
    117 H                     0.271721       0.000003
    118 H                     0.242566      -0.000001
    119 H                     0.231069       0.000002
    120 H                     0.233983      -0.000002
    121 H                     0.271002       0.000002
    122 H                     0.242711      -0.000001
    123 H                     0.231201       0.000002
    124 H                     0.234558      -0.000001
    125 H                     0.214561       0.000046
    126 H                     0.217057       0.000025
    127 H                     0.239313      -0.000066
    128 H                     0.227982       0.000017
    129 H                     0.202971      -0.000086
    130 H                     0.262186      -0.000605
    131 S                     0.123338      -0.000002
    132 S                     0.376306       0.269553
  --------------------------------------------------------
  Sum of atomic charges =    -0.000000

                    Cartesian Multipole Moments
 -----------------------------------------------------------------
    Charge (ESU x 10^10)
                -0.0000
    Dipole Moment (Debye)
         X      16.7814      Y      13.2206      Z      28.6352
       Tot      35.7264
    Quadrupole Moments (Debye-Ang)
        XX    -645.1266     XY     -84.7071     YY    -473.0575
        XZ     -88.4684     YZ      -3.3637     ZZ    -328.3039

 Total job time:  89883.40s(wall), 279885.04s(cpu)
        *  Thank you very much for using Q-Chem.  Have a nice day.  *
