 Q-Chem 5.0, Q-Chem, Inc., Pleasanton, CA (2017)
 Q-Chem 5.0.1 for Intel X86 EM64T Linux

User input:
--------------------------------------------------------------
$rem
threads 8
jobtype opt
method PBEh-3c
basis def2-mSVP
mem_static      1024
mem_total       8000
sym_ignore      true
unrestricted true
scf_algorithm   diis
scf_max_cycles  250
solvent_method  pcm
geom_opt_tol_energy 25
geom_opt_tol_gradient 75
$end

$pcm
theory  iefpcm
$end

$solvent
dielectric      1.0001
$end

$molecule
read uincoords.mol
$end

--------------------------------------------------------------

   38   -3799.3394834141      8.80E-09 Convergence criterion met
 Total energy in the final basis set = -3799.33948341
   19   -3799.3410095343      5.40E-09 Convergence criterion met
 Total energy in the final basis set = -3799.34100953
   18   -3799.3412693013      4.83E-09 Convergence criterion met
 Total energy in the final basis set = -3799.34126930
   15   -3799.3411418597      8.62E-09 Convergence criterion met
 Total energy in the final basis set = -3799.34114186
   16   -3799.3413315427      7.77E-09 Convergence criterion met
 Total energy in the final basis set = -3799.34133154
   15   -3799.3412799948      6.22E-09 Convergence criterion met
 Total energy in the final basis set = -3799.34127999
   15   -3799.3413261672      5.46E-09 Convergence criterion met
 Total energy in the final basis set = -3799.34132617
   16   -3799.3413307173      7.05E-09 Convergence criterion met
   12   -3799.3412406628      6.04E-09 Convergence criterion met
 Total energy in the final basis set = -3799.34124066
   12   -3799.3412396204      4.82E-09 Convergence criterion met
 Total energy in the final basis set = -3799.34123962
   12   -3799.3412376285      5.17E-09 Convergence criterion met
 Total energy in the final basis set = -3799.34123763
   12   -3799.3412373263      5.04E-09 Convergence criterion met
 Total energy in the final basis set = -3799.34123733
   12   -3799.3412383743      9.98E-09 Convergence criterion met
 Total energy in the final basis set = -3799.34123837
   12   -3799.3412404339      8.40E-09 Convergence criterion met
 Total energy in the final basis set = -3799.34124043

             Standard Nuclear Orientation (Angstroms)
    I     Atom           X                Y                Z
 ----------------------------------------------------------------
    1      C      -4.9558370292    -0.1245718721     4.3521564856
    2      C      -5.5542232819    -0.5108256229     3.1592012436
    3      C      -4.7795910417    -0.6664425956     1.9980551217
    4      C      -3.4083362777    -0.3768901646     2.0496526124
    5      C      -2.8196927973     0.0078966554     3.2510474198
    6      C      -3.5924012253     0.1089914559     4.3914584354
    7      N      -2.9559004304     0.3683429854     5.6480425555
    8      C      -7.0243348785    -0.8212466770     3.1315016742
    9      C      -2.5525506156    -0.4954044044     0.8162466378
   10      C      -2.5616506623    -0.7376982066     6.3843482391
   11      C      -1.8339442688    -0.6241343758     7.5793723229
   12      C      -3.4557456255     2.7017155285     5.3157556381
   13      C      -2.8505040198     1.6827707235     6.0660155090
   14      C      -3.3711937518     4.0177916800     5.7129248287
   15      C      -2.6851224129     4.3671172912     6.8712486342
   16      C      -2.0807954714     3.3794698017     7.6207756509
   17      C      -2.1512153439     2.0465999947     7.2275191154
   18      C      -2.8873384062    -2.0297235113     5.9393785744
   19      C      -2.5140423401    -3.1442568083     6.6576148202
   20      C      -1.8032338651    -3.0177505468     7.8461872128
   21      C      -1.4687907503    -1.7587011981     8.2984251051
   22      C      -6.9033426083    -1.1892062081    -1.3819414180
   23      C      -6.2867199879    -0.5188850235    -0.2805760993
   24      B      -5.4441516187    -1.3224949346     0.7147392669
   25      C      -5.2709787367    -2.8377610828     0.5312429849
   26      C      -5.8894726117    -3.4993525854    -0.5742354284
   27      B      -6.7283549397    -2.7002034062    -1.5707592429
   28      C      -4.5163239164    -3.6025120640     1.4462642857
   29      C      -4.3688063909    -4.9565923896     1.2836577896
   30      C      -4.9889174809    -5.6127170051     0.1799974628
   31      C      -5.7256467592    -4.8910613770    -0.7238124712
   32      C      -7.6840655192    -0.4452776747    -2.2858075284
   33      C      -7.8599193670     0.9039165256    -2.1167151649
   34      C      -7.2481049982     1.5803588083    -1.0216038405
   35      C      -6.4792167359     0.8716456393    -0.1296736461
   36      C      -2.8884730761    -5.9681751433     3.2002258363
   37      C      -2.3654726127    -7.1954312720     3.6675299861
   38      C      -2.6011346832    -8.3925630628     3.0318816392
   39      C      -3.3906131806    -8.4248478568     1.8577056700
   40      C      -3.8902606117    -7.2009217188     1.4201732904
   41      C      -3.6634830581    -5.9687386740     2.0671153518
   42      C      -3.7275849096    -9.5565186919     1.0753596462
   43      C      -4.5059756836    -9.4076204142    -0.0490816792
   44      C      -4.9972217793    -8.1521077798    -0.4726686048
   45      C      -4.6872606167    -7.0381644325     0.2684252812
   46      C      -7.9346662948     5.3477998509    -0.7949976198
   47      C      -7.3656381395     4.1227768494    -0.3758884430
   48      C      -7.6213566969     2.9927776497    -1.1101347544
   49      C      -8.4444365230     3.1168033630    -2.2494045535
   50      C      -9.0215690799     4.3052784885    -2.6847940568
   51      C      -8.7370116279     5.4535905340    -1.9076915470
   52      C      -8.6195968130     1.8747891169    -2.8917084007
   53      C      -9.4062700017     1.8190461703    -4.0148876234
   54      C     -10.0036232091     3.0119642968    -4.4793329779
   55      C      -9.8262809500     4.2215520403    -3.8479114152
   56      C      -9.3102448897    -4.4741057401    -3.8766379279
   57      C      -8.7298634388    -3.8748324766    -2.7612187091
   58      C      -7.4053163247    -3.4232230946    -2.8113201764
   59      C      -6.6746246420    -3.5953268022    -4.0003477774
   60      C      -7.2644468430    -4.1924856587    -5.1065670238
   61      C      -8.5792180777    -4.6218718635    -5.0365447372
   62      N      -9.1993439630    -5.2127655273    -6.1871788365
   63      C      -9.5518724591    -3.7652778437    -1.5049357426
   64      C      -5.2515418687    -3.1247548692    -4.0843390979
   65      C      -9.8105642179    -4.3590127530    -7.0935742315
   66      C      -9.7169581494    -2.9701404780    -6.9256405007
   67      C      -9.7140837518    -7.2811228998    -7.3864168436
   68      C      -9.0633284708    -6.5817246551    -6.3565608727
   69      C      -9.5386025766    -8.6525549499    -7.5365265576
   70      C      -8.7349773948    -9.3609941272    -6.6680835151
   71      C      -8.0968585304    -8.6833197348    -5.6363261763
   72      C      -8.2536845467    -7.3219632627    -5.4827054556
   73      C     -10.5343035324    -4.8335247836    -8.2008795018
   74      C     -11.1119399267    -3.9479213923    -9.1042901998
   75      C     -11.0025973710    -2.5850142104    -8.9241236985
   76      C     -10.3038469327    -2.1038915579    -7.8235917337
   77      H      -5.5431461282    -0.0482041000     5.2605376349
   78      H      -1.7521639100     0.1890466076     3.3046907269
   79      H      -7.2005451484    -1.8477155074     2.8042762126
   80      H      -7.5540155655    -0.1776638814     2.4281148423
   81      H      -7.4819378720    -0.6967117486     4.1130224298
   82      H      -2.8251684013    -1.3993610243     0.2666835861
   83      H      -1.5057071779    -0.6173040473     1.1069861252
   84      C      -2.6857644956     0.7131433752    -0.1074126041
   85      H      -3.9960212626     2.4495715454     4.4153056129
   86      H      -3.8498842185     4.7790056657     5.1125122229
   87      H      -2.6231236984     5.3993047391     7.1856098896
   88      H      -1.5426245845     3.6353090983     8.5247980141
   89      H      -3.4430060563    -2.1606918540     5.0234864824
   90      H      -2.7883699073    -4.1227403207     6.2862258630
   91      H      -1.5147691374    -3.8919584588     8.4128059178
   92      H      -0.9147352773    -1.6436536762     9.2216009403
   93      H      -4.0464043748    -3.1128446820     2.2925797860
   94      H      -6.1958423069    -5.3956394296    -1.5633254279
   95      H      -8.1553657382    -0.9517620074    -3.1227794871
   96      H      -6.0091169074     1.3811268176     0.7062541437
   97      H      -2.6627844474    -5.0523731086     3.7333376191
   98      H      -1.7526206825    -7.1907804563     4.5602614015
   99      H      -2.1798400608    -9.3089857666     3.4271245106
  100      H      -3.3730154388   -10.5395404677     1.3609193282
  101      H      -4.7534209597   -10.2843556220    -0.6348124231
  102      H      -5.6056711309    -8.0912279826    -1.3668997628
  103      H      -7.7292111796     6.2369767591    -0.2126117163
  104      H      -6.7440401833     4.0962967495     0.5103496769
  105      H      -9.1511377348     6.4145901264    -2.1872539090
  106      H      -9.5792309511     0.8892229168    -4.5436698689
  107      H     -10.6255570595     2.9697284069    -5.3648889091
  108      H     -10.3054800205     5.1100700850    -4.2404962373
  109      H     -10.3393396663    -4.8158017926    -3.8440113279
  110      H      -6.7078561565    -4.3169633768    -6.0290558662
  111      H     -10.5907422495    -3.5461863516    -1.7676905342
  112      H      -9.2035275467    -2.9240226607    -0.9031096838
  113      C      -9.4983073345    -5.0465473564    -0.6758196882
  114      H      -4.8337111510    -3.2833162550    -5.0785681607
  115      H      -4.6212362928    -3.6499984425    -3.3650253742
  116      H      -5.1754593506    -2.0617354289    -3.8503339004
  117      H      -9.1753101975    -2.5691969746    -6.0825190841
  118      H     -10.0452496084    -9.1631915210    -8.3462985240
  119      H      -8.6076613358   -10.4270958078    -6.7935466321
  120      H      -7.4640342070    -9.2197253777    -4.9427594617
  121      H      -7.7423361721    -6.8206592873    -4.6750807378
  122      H     -11.6536675794    -4.3420684908    -9.9553591161
  123      H     -11.4563406006    -1.9064064731    -9.6326084994
  124      H     -10.2080973700    -1.0389466958    -7.6627956353
  125      H      -9.8564557673    -5.9040119376    -1.2483874764
  126      H     -10.1181700887    -4.9599226898     0.2171001701
  127      H      -8.4797374969    -5.2605858036    -0.3534002329
  128      H      -2.0341688732     0.6090576612    -0.9756576621
  129      H      -2.4143224468     1.6364566299     0.4063057720
  130      H      -3.7064958915     0.8187706877    -0.4730150232
  131      S     -10.8304460326    -6.5244489122    -8.4843319084
  132      S      -1.2795619452     0.9001209184     8.2013034697
 ----------------------------------------------------------------

   12   -3799.3412446632      8.72E-09 Convergence criterion met
 Total energy in the final basis set = -3799.34124466
 Final energy is   -3799.34124466322
 **  OPTIMIZATION CONVERGED  **

                    Orbital Energies (a.u.)
 --------------------------------------------------------------

 Alpha MOs
 -- Occupied --
-89.650 -89.643 -14.737 -14.730 -10.542 -10.541 -10.536 -10.536
-10.526 -10.525 -10.519 -10.519 -10.491 -10.488 -10.486 -10.485
-10.480 -10.480 -10.479 -10.479 -10.478 -10.477 -10.477 -10.476
-10.474 -10.473 -10.473 -10.473 -10.472 -10.471 -10.450 -10.448
-10.447 -10.446 -10.446 -10.444 -10.443 -10.443 -10.439 -10.438
-10.437 -10.437 -10.436 -10.435 -10.435 -10.435 -10.435 -10.435
-10.435 -10.434 -10.434 -10.434 -10.434 -10.433 -10.433 -10.431
-10.422 -10.421 -10.421 -10.420 -10.420 -10.420 -10.419 -10.419
-10.417 -10.417 -10.417 -10.416 -10.415 -10.414 -10.414 -10.413
-10.407 -10.406 -10.390 -10.390 -10.389 -10.388  -8.290  -8.283
 -6.885  -6.883  -6.180  -6.177  -6.174  -6.173  -6.170  -6.167
 -1.137  -1.129  -1.008  -1.005  -1.002  -0.999  -0.985  -0.984
 -0.958  -0.955  -0.941  -0.935  -0.926  -0.924  -0.907  -0.906
 -0.895  -0.890  -0.881  -0.878  -0.877  -0.876  -0.874  -0.867
 -0.864  -0.863  -0.846  -0.841  -0.822  -0.821  -0.821  -0.820
 -0.809  -0.806  -0.798  -0.795  -0.786  -0.782  -0.780  -0.768
 -0.763  -0.761  -0.754  -0.748  -0.742  -0.738  -0.713  -0.708
 -0.704  -0.703  -0.701  -0.699  -0.698  -0.690  -0.672  -0.669
 -0.665  -0.661  -0.660  -0.659  -0.653  -0.650  -0.642  -0.636
 -0.633  -0.632  -0.615  -0.612  -0.604  -0.601  -0.580  -0.575
 -0.573  -0.571  -0.569  -0.567  -0.566  -0.564  -0.563  -0.563
 -0.559  -0.558  -0.555  -0.553  -0.550  -0.546  -0.544  -0.530
 -0.529  -0.525  -0.525  -0.522  -0.519  -0.517  -0.516  -0.513
 -0.512  -0.510  -0.500  -0.498  -0.491  -0.487  -0.484  -0.476
 -0.475  -0.472  -0.471  -0.470  -0.469  -0.469  -0.467  -0.466
 -0.464  -0.463  -0.463  -0.460  -0.460  -0.458  -0.458  -0.456
 -0.455  -0.454  -0.453  -0.453  -0.450  -0.447  -0.444  -0.443
 -0.439  -0.437  -0.435  -0.433  -0.433  -0.429  -0.427  -0.426
 -0.418  -0.415  -0.415  -0.414  -0.411  -0.410  -0.409  -0.407
 -0.399  -0.399  -0.396  -0.393  -0.392  -0.389  -0.388  -0.384
 -0.377  -0.374  -0.372  -0.371  -0.369  -0.368  -0.367  -0.366
 -0.362  -0.359  -0.340  -0.340  -0.338  -0.338  -0.335  -0.333
 -0.333  -0.317  -0.313  -0.307  -0.300  -0.294  -0.290  -0.284
 -0.279  -0.276  -0.274  -0.272  -0.270  -0.266  -0.253  -0.252
 -0.246  -0.237  -0.227  -0.221  -0.132

 Beta MOs
 -- Occupied --
-89.649 -89.642 -14.732 -14.725 -10.542 -10.542 -10.536 -10.536
-10.524 -10.524 -10.518 -10.518 -10.491 -10.488 -10.487 -10.486
-10.481 -10.481 -10.479 -10.478 -10.477 -10.477 -10.477 -10.475
-10.474 -10.473 -10.472 -10.472 -10.471 -10.471 -10.450 -10.448
-10.447 -10.446 -10.446 -10.444 -10.443 -10.443 -10.440 -10.438
-10.438 -10.437 -10.436 -10.436 -10.435 -10.435 -10.434 -10.434
-10.434 -10.434 -10.434 -10.433 -10.433 -10.433 -10.433 -10.432
-10.421 -10.421 -10.420 -10.420 -10.420 -10.419 -10.418 -10.418
-10.417 -10.417 -10.417 -10.417 -10.415 -10.415 -10.414 -10.413
-10.407 -10.406 -10.390 -10.389 -10.388 -10.388  -8.289  -8.282
 -6.882  -6.880  -6.180  -6.176  -6.173  -6.170  -6.169  -6.163
 -1.130  -1.123  -1.004  -1.002  -0.999  -0.997  -0.984  -0.983
 -0.957  -0.954  -0.938  -0.933  -0.925  -0.923  -0.906  -0.905
 -0.894  -0.889  -0.880  -0.878  -0.877  -0.874  -0.873  -0.866
 -0.864  -0.862  -0.844  -0.840  -0.821  -0.820  -0.820  -0.819
 -0.807  -0.805  -0.795  -0.792  -0.783  -0.781  -0.780  -0.767
 -0.763  -0.761  -0.753  -0.747  -0.741  -0.737  -0.712  -0.707
 -0.703  -0.702  -0.700  -0.698  -0.697  -0.689  -0.670  -0.667
 -0.663  -0.659  -0.658  -0.658  -0.652  -0.649  -0.638  -0.634
 -0.632  -0.630  -0.615  -0.612  -0.603  -0.600  -0.579  -0.574
 -0.571  -0.569  -0.568  -0.566  -0.565  -0.563  -0.562  -0.557
 -0.557  -0.555  -0.554  -0.552  -0.549  -0.545  -0.543  -0.529
 -0.528  -0.525  -0.525  -0.520  -0.517  -0.515  -0.512  -0.510
 -0.509  -0.506  -0.500  -0.498  -0.489  -0.487  -0.484  -0.475
 -0.474  -0.471  -0.470  -0.469  -0.468  -0.467  -0.465  -0.464
 -0.463  -0.462  -0.460  -0.459  -0.458  -0.457  -0.457  -0.455
 -0.454  -0.453  -0.452  -0.452  -0.449  -0.447  -0.443  -0.441
 -0.437  -0.435  -0.432  -0.430  -0.429  -0.427  -0.426  -0.424
 -0.415  -0.413  -0.412  -0.411  -0.409  -0.408  -0.406  -0.404
 -0.395  -0.393  -0.390  -0.390  -0.388  -0.387  -0.385  -0.383
 -0.376  -0.374  -0.371  -0.368  -0.368  -0.367  -0.366  -0.365
 -0.361  -0.358  -0.339  -0.337  -0.332  -0.331  -0.330  -0.328
 -0.324  -0.315  -0.311  -0.305  -0.291  -0.287  -0.284  -0.280
 -0.278  -0.275  -0.274  -0.269  -0.268  -0.265  -0.242  -0.230
 -0.224  -0.213  -0.197

          Ground-State Mulliken Net Atomic Charges

     Atom                 Charge (a.u.)    Spin (a.u.)
  --------------------------------------------------------
      1 C                    -0.302436       0.004813
      2 C                     0.022454       0.003029
      3 C                    -0.155885      -0.024399
      4 C                     0.053386       0.004205
      5 C                    -0.290200       0.004623
      6 C                     0.131298      -0.009655
      7 N                    -0.680184       0.173141
      8 C                    -0.752095       0.001438
      9 C                    -0.537055       0.003307
     10 C                     0.446492      -0.000880
     11 C                    -0.204163       0.074243
     12 C                    -0.293998       0.026632
     13 C                     0.453596      -0.002763
     14 C                    -0.217366      -0.012332
     15 C                    -0.223060       0.069129
     16 C                    -0.238115      -0.048201
     17 C                    -0.206070       0.073435
     18 C                    -0.291752       0.024686
     19 C                    -0.223024      -0.010781
     20 C                    -0.220911       0.069231
     21 C                    -0.238169      -0.048293
     22 C                    -0.140923       0.036949
     23 C                    -0.127850       0.028552
     24 B                     0.544921       0.316114
     25 C                    -0.134752       0.038550
     26 C                    -0.130204       0.038552
     27 B                     0.555991       0.308306
     28 C                    -0.394232      -0.039707
     29 C                     0.097428       0.066390
     30 C                     0.081102       0.070642
     31 C                    -0.404967      -0.042489
     32 C                    -0.388361      -0.040754
     33 C                     0.080384       0.069698
     34 C                     0.099865       0.058445
     35 C                    -0.416427      -0.031761
     36 C                    -0.402614       0.080445
     37 C                    -0.199645      -0.051659
     38 C                    -0.347662       0.075318
     39 C                     0.254097      -0.040253
     40 C                    -0.079553       0.024532
     41 C                     0.202565      -0.050818
     42 C                    -0.345849       0.076748
     43 C                    -0.198959      -0.052242
     44 C                    -0.390402       0.082252
     45 C                     0.199738      -0.052530
     46 C                    -0.198671      -0.047671
     47 C                    -0.395925       0.073745
     48 C                     0.197563      -0.047428
     49 C                    -0.077623       0.022920
     50 C                     0.255010      -0.037486
     51 C                    -0.348373       0.068583
     52 C                     0.197247      -0.050819
     53 C                    -0.385941       0.078341
     54 C                    -0.200383      -0.049761
     55 C                    -0.344615       0.072978
     56 C                    -0.285497       0.004810
     57 C                     0.046141       0.002316
     58 C                    -0.169614      -0.022589
     59 C                     0.030097       0.002132
     60 C                    -0.304466       0.004824
     61 C                     0.142498      -0.009708
     62 N                    -0.687195       0.153303
     63 C                    -0.541590       0.004088
     64 C                    -0.750670       0.001383
     65 C                     0.447466      -0.000637
     66 C                    -0.293149       0.021318
     67 C                    -0.203341       0.065725
     68 C                     0.448624      -0.000808
     69 C                    -0.237749      -0.042465
     70 C                    -0.224061       0.060524
     71 C                    -0.216265      -0.009228
     72 C                    -0.294014       0.021463
     73 C                    -0.203093       0.065694
     74 C                    -0.237834      -0.042416
     75 C                    -0.223668       0.060558
     76 C                    -0.217221      -0.009099
     77 H                     0.223205       0.000103
     78 H                     0.217933       0.000064
     79 H                     0.262399      -0.001251
     80 H                     0.259659      -0.000535
     81 H                     0.221010       0.001752
     82 H                     0.271812      -0.001634
     83 H                     0.216362       0.000457
     84 C                    -0.650540       0.000145
     85 H                     0.294833      -0.001791
     86 H                     0.242917       0.000408
     87 H                     0.239114      -0.003882
     88 H                     0.243113       0.002049
     89 H                     0.302889      -0.001721
     90 H                     0.250558       0.000393
     91 H                     0.239831      -0.003882
     92 H                     0.242705       0.002049
     93 H                     0.194700       0.001296
     94 H                     0.198701       0.001336
     95 H                     0.193024       0.001359
     96 H                     0.199038       0.000753
     97 H                     0.195518      -0.004944
     98 H                     0.205623       0.002587
     99 H                     0.206901      -0.004518
    100 H                     0.206788      -0.004612
    101 H                     0.209125       0.002600
    102 H                     0.195186      -0.004965
    103 H                     0.210122       0.002381
    104 H                     0.199235      -0.004431
    105 H                     0.207124      -0.004107
    106 H                     0.193393      -0.004728
    107 H                     0.207851       0.002481
    108 H                     0.206630      -0.004385
    109 H                     0.217589       0.000042
    110 H                     0.222545       0.000109
    111 H                     0.219674       0.000502
    112 H                     0.274018      -0.002095
    113 C                    -0.647644      -0.000487
    114 H                     0.221448       0.001800
    115 H                     0.257610      -0.000731
    116 H                     0.259702      -0.001074
    117 H                     0.293530      -0.001478
    118 H                     0.241013       0.001797
    119 H                     0.236723      -0.003392
    120 H                     0.239949       0.000275
    121 H                     0.291695      -0.001482
    122 H                     0.241105       0.001794
    123 H                     0.236934      -0.003395
    124 H                     0.241072       0.000268
    125 H                     0.202231      -0.000039
    126 H                     0.218127       0.000028
    127 H                     0.256260      -0.000168
    128 H                     0.217565      -0.000006
    129 H                     0.203250      -0.000077
    130 H                     0.263269      -0.000556
    131 S                     0.251754       0.132897
    132 S                     0.263701       0.146166
  --------------------------------------------------------
  Sum of atomic charges =    -0.000000

                    Cartesian Multipole Moments
 -----------------------------------------------------------------
    Charge (ESU x 10^10)
                -0.0000
    Dipole Moment (Debye)
         X       0.6527      Y      -0.4973      Z       1.7180
       Tot       1.9039
    Quadrupole Moments (Debye-Ang)
        XX    -456.8043     XY      30.9285     YY    -419.5388
        XZ      68.4497     YZ      59.4812     ZZ    -336.5512

 Total job time:  111924.82s(wall), 338921.71s(cpu)
        *  Thank you very much for using Q-Chem.  Have a nice day.  *
