 Q-Chem 5.0, Q-Chem, Inc., Pleasanton, CA (2017)
 Q-Chem 5.0.1 for Intel X86 EM64T Linux

User input:
--------------------------------------------------------------
$rem
threads 8
jobtype	sp
method PBEh-3c
basis def2-mSVP
mem_static	1024
mem_total	8000
sym_ignore	true
unrestricted true
scf_convergence	9
solvent_method	pcm
$end

$molecule
read incoords.mol
$end

$solvent
dielectric	4.33
$end

$pcm
theory iefpcm
$end
--------------------------------------------------------------

   17   -2925.5513034115      4.36E-10 Convergence criterion met
 Total energy in the final basis set = -2925.55130341
 Total job time:  3490.59s(wall), 10980.43s(cpu)
        *  Thank you very much for using Q-Chem.  Have a nice day.  *
 Q-Chem 5.0, Q-Chem, Inc., Pleasanton, CA (2017)
 Q-Chem 5.0.1 for Intel X86 EM64T Linux

User input:
--------------------------------------------------------------

$rem
threads 8
jobtype opt
method PBEh-3c
basis def2-mSVP
scf_guess	read
mem_static      1024
mem_total       8000
sym_ignore      true
unrestricted true
mom_start       1
scf_algorithm	diis
scf_max_cycles	250
solvent_method	pcm
geom_opt_tol_energy 25
geom_opt_tol_gradient 75
$end

$solvent
dielectric      4.33
$end

$pcm
theory iefpcm
$end

$occupied
1 2 3 4 5 6 7 8 9 10 11 12 13 14 15 16 17 18 19 20 21 22 23 24 25 26 27 28 29 30 31 32 33 34 35 36 37 38 39 40 41 42 43 44 45 46 47 48 49 50 51 52 53 54 55 56 57 58 59 60 61 62 63 64 65 66 67 68 69 70 71 72 73 74 75 76 77 78 79 80 81 82 83 84 85 86 87 88 89 90 91 92 93 94 95 96 97 98 99 100 101 102 103 104 105 106 107 108 109 110 111 112 113 114 115 116 117 118 119 120 121 122 123 124 125 126 127 128 129 130 131 132 133 134 135 136 137 138 139 140 141 142 143 144 145 146 147 148 149 150 151 152 153 154 155 156 157 158 159 160 161 162 163 164 165 166 167 168 169 170 171 172 173 174 175 176 177 178 179 180 181 182 183 184 185 186 187 188 189 190 191 192 193 194 195 196 197 198 199 200 201 202 203 204 205 206 207 208 209 210 211 212 213 214 215 216 217 218 219 220 221 222 223 224 225 226 227 228 229 230 231 232 233 234 235 236 237 238 239 240 241 242 243 244 245 246 247 248 249 250 251  253
1 2 3 4 5 6 7 8 9 10 11 12 13 14 15 16 17 18 19 20 21 22 23 24 25 26 27 28 29 30 31 32 33 34 35 36 37 38 39 40 41 42 43 44 45 46 47 48 49 50 51 52 53 54 55 56 57 58 59 60 61 62 63 64 65 66 67 68 69 70 71 72 73 74 75 76 77 78 79 80 81 82 83 84 85 86 87 88 89 90 91 92 93 94 95 96 97 98 99 100 101 102 103 104 105 106 107 108 109 110 111 112 113 114 115 116 117 118 119 120 121 122 123 124 125 126 127 128 129 130 131 132 133 134 135 136 137 138 139 140 141 142 143 144 145 146 147 148 149 150 151 152 153 154 155 156 157 158 159 160 161 162 163 164 165 166 167 168 169 170 171 172 173 174 175 176 177 178 179 180 181 182 183 184 185 186 187 188 189 190 191 192 193 194 195 196 197 198 199 200 201 202 203 204 205 206 207 208 209 210 211 212 213 214 215 216 217 218 219 220 221 222 223 224 225 226 227 228 229 230 231 232 233 234 235 236 237 238 239 240 241 242 243 244 245 246 247 248 249 250 251 252
$end

$molecule
read incoords.mol
$end

--------------------------------------------------------------

   20   -2925.4707157974      8.42E-09 Convergence criterion met
 Total energy in the final basis set = -2925.47071580
   17   -2925.4706823783      9.48E-09 Convergence criterion met
 Total energy in the final basis set = -2925.47068238
   17   -2925.4702360772      9.92E-09 Convergence criterion met
 Total energy in the final basis set = -2925.47023608
   17   -2925.4696080219      9.18E-09 Convergence criterion met
 Total energy in the final basis set = -2925.46960802
   17   -2925.4696541408      9.51E-09 Convergence criterion met
 Total energy in the final basis set = -2925.46965414
   17   -2925.4693717051      9.47E-09 Convergence criterion met
 Total energy in the final basis set = -2925.46937171
   17   -2925.4688367377      9.72E-09 Convergence criterion met
   18   -2925.4665877686      7.37E-09 Convergence criterion met
 Total energy in the final basis set = -2925.46658777
   18   -2925.4666151242      7.48E-09 Convergence criterion met
 Total energy in the final basis set = -2925.46661512
   18   -2925.4666094497      7.69E-09 Convergence criterion met
 Total energy in the final basis set = -2925.46660945
   18   -2925.4665911864      7.42E-09 Convergence criterion met
 Total energy in the final basis set = -2925.46659119
   18   -2925.4665787328      7.55E-09 Convergence criterion met
 Total energy in the final basis set = -2925.46657873
   18   -2925.4665716909      7.57E-09 Convergence criterion met
 Total energy in the final basis set = -2925.46657169

             Standard Nuclear Orientation (Angstroms)
    I     Atom           X                Y                Z
 ----------------------------------------------------------------
    1      N       0.1832702695    -0.4673011732     0.2090119843
    2      C       0.1238275677    -0.2358034713     1.5663582609
    3      C       1.3364001147    -0.5065776770    -0.5775581399
    4      C       2.6501354952    -0.2268853033    -0.2298164773
    5      H       2.9371475524     0.0495808303     0.7745217549
    6      C       3.5985170021    -0.2921575118    -1.2414151198
    7      H       4.6336170187    -0.0895493396    -1.0044944768
    8      C      -0.9219479874    -0.7255782407    -0.5995373585
    9      C      -2.2549222165    -0.8913388203    -0.2407969251
   10      H      -2.5955322819    -0.8146000124     0.7816822352
   11      C      -3.1551080916    -1.1897022803    -1.2535871396
   12      H      -4.2004355726    -1.3146043626    -1.0068185903
   13      C      -2.7343275910    -1.3486859281    -2.5705821418
   14      H      -3.4595586727    -1.5877676240    -3.3365192484
   15      C      -1.3884508570    -1.2311381990    -2.9101416448
   16      H      -1.0636706588    -1.3920372260    -3.9297443547
   17      C      -0.4824267199    -0.9227663036    -1.9156902788
   18      C       3.2400009173    -0.5946912422    -2.5521923160
   19      H       4.0034774027    -0.6305739689    -3.3172727814
   20      C       1.9109522204    -0.8283375575    -2.8976826730
   21      H       1.6341172753    -1.0302890939    -3.9241544767
   22      C       0.9585077419    -0.7799851019    -1.9023976580
   23      C      -0.8842614772     0.5910868005     2.0869464507
   24      H      -1.5424985779     1.1257825570     1.4134342350
   25      C      -0.9844367869     0.7780207513     3.4470849420
   26      C       1.0456253063    -0.8583143693     2.4190247460
   27      H       1.7828148054    -1.5366128100     2.0088703165
   28      C       0.9311233799    -0.7031421373     3.7821199465
   29      C      -0.0963408617     0.1092217305     4.3221112259
   30      C      -2.0348337283     1.6839648065     4.0117364777
   31      H      -2.6158677709     2.1694259773     3.2285088686
   32      H      -1.5875109258     2.4586077223     4.6359838847
   33      H      -2.7225206567     1.1264220253     4.6502871132
   34      C       1.8687930794    -1.4276647823     4.6983490628
   35      H       2.5748974711    -2.0457554694     4.1450110061
   36      H       2.4357247520    -0.7220352717     5.3072229351
   37      H       1.3228273409    -2.0711900412     5.3898700944
   38      B      -0.2586186977     0.1963454887     5.8900876585
   39      C       0.5580917467     1.1996427747     6.6995500446
   40      C       1.3516840320     2.1660371644     6.0502210702
   41      H       1.3677228805     2.2095884770     4.9647588934
   42      C       2.1055417023     3.0514582900     6.7754188532
   43      C       2.1116626312     3.0023669655     8.2023251050
   44      C       1.3503032131     2.0577303759     8.8540189730
   45      H       1.3563597957     2.0030629774     9.9385154142
   46      C       0.5543254690     1.1451297993     8.1287179488
   47      C       3.0126871099     4.0535656087     8.6756976120
   48      C       3.4369005860     4.5027135755     9.9014485090
   49      H       3.0922458153     4.0545173758    10.8250795224
   50      C       3.5146507884     4.6975401077     7.5231631279
   51      C       4.4125140552     5.7608552407     7.5358910641
   52      C       2.9932967325     4.1240537919     6.3469055619
   53      C       3.3832321625     4.6312894987     5.1322033417
   54      H       3.0122188948     4.2274103456     4.1976785823
   55      C       4.3500116057     5.5829698917     9.9461694892
   56      H       4.6820555231     5.9343067232    10.9148116533
   57      C       4.8309458870     6.2027920710     8.8146356748
   58      H       5.5288993856     7.0263460956     8.9033263226
   59      C       4.2937912918     5.7121510425     5.1168232266
   60      H       4.6028464658     6.1151174899     4.1604265450
   61      C       4.7994736735     6.2689233586     6.2705188142
   62      H       5.4952571605     7.0968700040     6.2090369732
   63      C      -1.1712812465    -0.8093142209     6.5882890378
   64      C      -1.9646110099    -1.7154406195     5.8511833276
   65      H      -1.9419187880    -1.6936808820     4.7654787053
   66      C      -2.7595583580    -2.6298892395     6.4927479088
   67      C      -2.7928603593    -2.6751721888     7.9181498070
   68      C      -2.0201023423    -1.8082417374     8.6511608410
   69      H      -2.0440157977    -1.8614238388     9.7342400817
   70      C      -1.1931323403    -0.8586046334     8.0146529872
   71      C      -3.7009534291    -3.7508010143     8.3138764758
   72      C      -4.1374645382    -4.2801001386     9.5038448679
   73      H      -3.8160650612    -3.8837226174    10.4594179170
   74      C      -4.1791041952    -4.3237451147     7.1164795126
   75      C      -5.0628435517    -5.4000465940     7.0550138080
   76      C      -3.6427586531    -3.6784843886     5.9836247574
   77      C      -4.0113924273    -4.1273708448     4.7384397871
   78      H      -3.6312127108    -3.6741890409     3.8307791088
   79      C      -4.9099614809    -5.2161072279     4.6478103902
   80      H      -5.1981082353    -5.5684945497     3.6651893945
   81      C      -5.4263841036    -5.8429841228     5.7591227951
   82      H      -6.1098815561    -6.6755194161     5.6423650665
   83      C      -5.0355616668    -5.3738453324     9.4714997624
   84      H      -5.3748386962    -5.7872563454    10.4130108910
   85      C      -5.4915779283    -5.9285423840     8.2970082169
   86      H      -6.1773040112    -6.7669276628     8.3226367893
   87      B      -0.2837606368     0.0768176945     8.8397774792
   88      C      -0.2177189001    -0.2510418849    10.3853633347
   89      C      -1.1920360728     0.2154223150    11.2767948475
   90      C      -1.3448252321    -0.3859470874    12.5226617524
   91      H      -2.1502905877    -0.0822502192    13.1822274655
   92      C      -0.5204086925    -1.4385192268    12.8875851403
   93      C       0.5143537103    -1.8369730345    12.0560021177
   94      H       1.1588689531    -2.6530822519    12.3628600111
   95      C       0.6677638116    -1.2550854420    10.8036467670
   96      N      -0.8186268488    -2.2185989516    14.0296483177
   97      C      -1.3878761761    -3.4693392164    13.9444384921
   98      C      -0.6516158556    -1.8967338357    15.3560021664
   99      C      -0.1155107177    -0.7454093673    15.9183950651
  100      H       0.2376096406     0.0700307954    15.3002679443
  101      C      -0.0500139684    -0.6838648923    17.2993269051
  102      H       0.3624440458     0.2002368887    17.7680681724
  103      C      -1.7550988526    -4.1882773049    12.8093878256
  104      H      -1.5994651175    -3.7940593010    11.8131121047
  105      C      -2.3211024313    -5.4364959357    12.9977840570
  106      H      -2.6136168081    -6.0173914613    12.1317511400
  107      C      -2.5192691317    -5.9624801610    14.2797575875
  108      H      -2.9615114492    -6.9438303633    14.3907395618
  109      C      -2.1554965491    -5.2395878528    15.4017775792
  110      H      -2.3135474037    -5.6486903687    16.3921135135
  111      C      -1.5862602505    -3.9785574278    15.2386611450
  112      C      -0.5016780034    -1.7379896048    18.1019268179
  113      H      -0.4329046707    -1.6543162253    19.1784327774
  114      C      -1.0316911777    -2.8820980506    17.5324873887
  115      H      -1.3776787411    -3.6983197467    18.1549033078
  116      C      -1.1112345245    -2.9685970702    16.1465197355
  117      C       1.7186128914    -1.7794461229     9.8650330551
  118      H       2.3883510205    -2.4800488790    10.3638403976
  119      H       2.3228688942    -0.9740546032     9.4458286137
  120      H       1.2625591829    -2.3033007424     9.0212479892
  121      C      -2.1528818218     1.2839150022    10.8363019132
  122      H      -2.8013474302     1.6068779666    11.6505871255
  123      H      -1.6279263640     2.1611047684    10.4551144174
  124      H      -2.7918327870     0.9227483004    10.0268135837
 ----------------------------------------------------------------

   18   -2925.4665704431      7.64E-09 Convergence criterion met
 Total energy in the final basis set = -2925.46657044
 Final energy is   -2925.46657044308
 **  OPTIMIZATION CONVERGED  **

                    Orbital Energies (a.u.)
 --------------------------------------------------------------

 Alpha MOs
 -- Occupied --
-14.774 -14.683 -10.540 -10.533 -10.532 -10.495 -10.495 -10.491
-10.491 -10.486 -10.486 -10.485 -10.484 -10.482 -10.481 -10.481
-10.481 -10.480 -10.480 -10.480 -10.480 -10.478 -10.461 -10.455
-10.454 -10.452 -10.451 -10.451 -10.450 -10.450 -10.450 -10.449
-10.449 -10.449 -10.449 -10.449 -10.448 -10.448 -10.448 -10.447
-10.447 -10.446 -10.445 -10.445 -10.445 -10.445 -10.445 -10.443
-10.443 -10.442 -10.442 -10.442 -10.441 -10.440 -10.440 -10.437
-10.437 -10.436 -10.436 -10.436 -10.436 -10.436 -10.436 -10.436
-10.435 -10.434 -10.433 -10.417 -10.416 -10.413 -10.412 -10.412
-10.409 -10.409  -6.905  -6.903  -1.164  -1.105  -1.015  -1.001
 -1.001  -0.993  -0.979  -0.967  -0.947  -0.945  -0.942  -0.938
 -0.926  -0.921  -0.921  -0.904  -0.892  -0.887  -0.885  -0.882
 -0.881  -0.865  -0.851  -0.848  -0.843  -0.841  -0.838  -0.837
 -0.835  -0.835  -0.806  -0.806  -0.802  -0.797  -0.797  -0.792
 -0.787  -0.786  -0.768  -0.759  -0.758  -0.735  -0.730  -0.726
 -0.719  -0.715  -0.714  -0.705  -0.693  -0.689  -0.683  -0.681
 -0.675  -0.668  -0.665  -0.661  -0.649  -0.649  -0.638  -0.637
 -0.631  -0.630  -0.627  -0.627  -0.612  -0.589  -0.587  -0.583
 -0.581  -0.580  -0.579  -0.576  -0.569  -0.568  -0.566  -0.561
 -0.560  -0.557  -0.551  -0.545  -0.542  -0.537  -0.535  -0.529
 -0.528  -0.524  -0.518  -0.515  -0.515  -0.513  -0.512  -0.505
 -0.497  -0.495  -0.494  -0.493  -0.491  -0.490  -0.487  -0.486
 -0.483  -0.481  -0.477  -0.476  -0.475  -0.474  -0.474  -0.473
 -0.472  -0.470  -0.466  -0.461  -0.460  -0.458  -0.457  -0.456
 -0.455  -0.454  -0.451  -0.448  -0.448  -0.446  -0.441  -0.438
 -0.433  -0.429  -0.428  -0.428  -0.426  -0.423  -0.419  -0.418
 -0.415  -0.412  -0.411  -0.410  -0.410  -0.400  -0.394  -0.393
 -0.390  -0.387  -0.386  -0.386  -0.385  -0.384  -0.382  -0.379
 -0.374  -0.369  -0.362  -0.359  -0.358  -0.352  -0.336  -0.330
 -0.327  -0.327  -0.323  -0.310  -0.310  -0.303  -0.297  -0.296
 -0.292  -0.288  -0.286  -0.272  -0.272  -0.268  -0.255  -0.251
 -0.244  -0.241  -0.236  -0.152

 Beta MOs
 -- Occupied --
-14.783 -14.683 -10.541 -10.531 -10.531 -10.496 -10.496 -10.493
-10.493 -10.485 -10.485 -10.483 -10.483 -10.483 -10.483 -10.482
-10.482 -10.482 -10.481 -10.479 -10.479 -10.478 -10.466 -10.455
-10.455 -10.452 -10.451 -10.450 -10.450 -10.450 -10.450 -10.450
-10.449 -10.448 -10.448 -10.448 -10.448 -10.448 -10.447 -10.447
-10.446 -10.446 -10.445 -10.445 -10.445 -10.445 -10.445 -10.443
-10.443 -10.442 -10.442 -10.441 -10.440 -10.440 -10.439 -10.437
-10.437 -10.437 -10.436 -10.436 -10.436 -10.436 -10.436 -10.436
-10.435 -10.434 -10.434 -10.417 -10.416 -10.413 -10.412 -10.412
-10.409 -10.408  -6.902  -6.900  -1.178  -1.105  -1.020  -1.001
 -1.001  -0.995  -0.984  -0.967  -0.947  -0.943  -0.941  -0.937
 -0.929  -0.920  -0.920  -0.905  -0.894  -0.889  -0.888  -0.882
 -0.881  -0.865  -0.851  -0.850  -0.847  -0.841  -0.838  -0.837
 -0.834  -0.834  -0.806  -0.805  -0.801  -0.797  -0.796  -0.795
 -0.789  -0.785  -0.772  -0.759  -0.758  -0.736  -0.734  -0.726
 -0.718  -0.713  -0.712  -0.705  -0.695  -0.688  -0.683  -0.682
 -0.675  -0.670  -0.665  -0.658  -0.649  -0.648  -0.637  -0.637
 -0.631  -0.630  -0.629  -0.628  -0.614  -0.591  -0.588  -0.587
 -0.583  -0.580  -0.579  -0.574  -0.569  -0.568  -0.565  -0.562
 -0.560  -0.560  -0.551  -0.549  -0.544  -0.538  -0.534  -0.530
 -0.529  -0.528  -0.518  -0.515  -0.515  -0.513  -0.512  -0.503
 -0.500  -0.495  -0.494  -0.494  -0.491  -0.490  -0.487  -0.486
 -0.483  -0.481  -0.476  -0.476  -0.474  -0.474  -0.474  -0.471
 -0.471  -0.470  -0.466  -0.461  -0.460  -0.460  -0.459  -0.458
 -0.456  -0.455  -0.454  -0.453  -0.451  -0.446  -0.440  -0.440
 -0.434  -0.430  -0.428  -0.428  -0.425  -0.421  -0.419  -0.418
 -0.416  -0.412  -0.411  -0.411  -0.408  -0.407  -0.399  -0.393
 -0.390  -0.387  -0.385  -0.383  -0.383  -0.383  -0.382  -0.378
 -0.374  -0.371  -0.368  -0.359  -0.353  -0.350  -0.340  -0.335
 -0.335  -0.327  -0.322  -0.314  -0.314  -0.304  -0.299  -0.296
 -0.294  -0.284  -0.284  -0.284  -0.272  -0.267  -0.261  -0.251
 -0.247  -0.242  -0.236  -0.234

          Ground-State Mulliken Net Atomic Charges

     Atom                 Charge (a.u.)    Spin (a.u.)
  --------------------------------------------------------
      1 N                    -0.678309      -0.326329
      2 C                     0.366404      -0.039904
      3 C                     0.337029       0.098788
      4 C                    -0.259543      -0.155756
      5 H                     0.297517       0.008237
      6 C                    -0.249526       0.091314
      7 H                     0.272131      -0.004113
      8 C                     0.328123       0.098770
      9 C                    -0.258941      -0.157931
     10 H                     0.298919       0.008468
     11 C                    -0.248152       0.091876
     12 H                     0.272207      -0.004146
     13 C                    -0.222203      -0.151749
     14 H                     0.271365       0.008348
     15 C                    -0.348846       0.046186
     16 H                     0.260198      -0.002370
     17 C                     0.115150      -0.081417
     18 C                    -0.222536      -0.150567
     19 H                     0.271080       0.008290
     20 C                    -0.347021       0.046281
     21 H                     0.260361      -0.002376
     22 C                     0.102381      -0.080794
     23 C                    -0.370175      -0.104742
     24 H                     0.294128       0.006285
     25 C                     0.048987       0.080651
     26 C                    -0.373129      -0.103048
     27 H                     0.289990       0.006321
     28 C                     0.031311       0.082477
     29 C                    -0.138939      -0.314290
     30 C                    -0.754051      -0.005197
     31 H                     0.246959       0.002391
     32 H                     0.266912       0.001247
     33 H                     0.267830      -0.000265
     34 C                    -0.759812      -0.005024
     35 H                     0.248311       0.002500
     36 H                     0.268201      -0.000143
     37 H                     0.271215       0.000935
     38 B                     0.547725       0.357845
     39 C                    -0.132960       0.002562
     40 C                    -0.405593      -0.020071
     41 H                     0.207561       0.000746
     42 C                     0.060195       0.045225
     43 C                     0.080392       0.090155
     44 C                    -0.417357      -0.056040
     45 H                     0.220406       0.002137
     46 C                    -0.145801       0.059602
     47 C                     0.178947      -0.057611
     48 C                    -0.407839       0.086050
     49 H                     0.236236      -0.005033
     50 C                    -0.077142       0.024115
     51 C                     0.228936      -0.039036
     52 C                     0.179957      -0.047241
     53 C                    -0.402028       0.073171
     54 H                     0.227340      -0.004306
     55 C                    -0.224251      -0.053960
     56 H                     0.241862       0.002609
     57 C                    -0.361645       0.078507
     58 H                     0.236900      -0.004617
     59 C                    -0.227317      -0.048008
     60 H                     0.239310       0.002354
     61 C                    -0.357606       0.068330
     62 H                     0.236748      -0.003988
     63 C                    -0.140820      -0.004339
     64 C                    -0.406222      -0.013337
     65 H                     0.204993       0.000627
     66 C                     0.066265       0.035933
     67 C                     0.076178       0.089782
     68 C                    -0.401459      -0.057792
     69 H                     0.230481       0.002247
     70 C                    -0.137950       0.064439
     71 C                     0.187839      -0.055523
     72 C                    -0.414547       0.082387
     73 H                     0.242874      -0.004924
     74 C                    -0.079133       0.022581
     75 C                     0.226447      -0.036382
     76 C                     0.180608      -0.042495
     77 C                    -0.404308       0.066043
     78 H                     0.225096      -0.003909
     79 C                    -0.226204      -0.043736
     80 H                     0.239063       0.002153
     81 C                    -0.356845       0.061325
     82 H                     0.237517      -0.003568
     83 C                    -0.227483      -0.051141
     84 H                     0.244099       0.002467
     85 C                    -0.359901       0.074709
     86 H                     0.237253      -0.004393
     87 B                     0.553655       0.280634
     88 C                    -0.180140      -0.024362
     89 C                     0.030176       0.003562
     90 C                    -0.329810      -0.000475
     91 H                     0.240443       0.000347
     92 C                     0.262549       0.000477
     93 C                    -0.343815      -0.000308
     94 H                     0.241460       0.000278
     95 C                     0.024461       0.002971
     96 N                    -0.724333      -0.000028
     97 C                     0.333780       0.000019
     98 C                     0.348693       0.000006
     99 C                    -0.301079       0.000002
    100 H                     0.253616      -0.000000
    101 C                    -0.261520      -0.000001
    102 H                     0.239039       0.000000
    103 C                    -0.299096       0.000055
    104 H                     0.261637      -0.000028
    105 C                    -0.264360       0.000007
    106 H                     0.242215       0.000047
    107 C                    -0.252974      -0.000001
    108 H                     0.234532      -0.000000
    109 C                    -0.364685       0.000004
    110 H                     0.229478       0.000000
    111 C                     0.089713      -0.000003
    112 C                    -0.255483       0.000001
    113 H                     0.234607      -0.000000
    114 C                    -0.361175      -0.000001
    115 H                     0.229934       0.000000
    116 C                     0.069300      -0.000000
    117 C                    -0.761951       0.000371
    118 H                     0.241318       0.001644
    119 H                     0.248075      -0.000793
    120 H                     0.249775      -0.000885
    121 C                    -0.753636       0.000504
    122 H                     0.239126       0.001386
    123 H                     0.244584      -0.000650
    124 H                     0.249551      -0.000632
  --------------------------------------------------------
  Sum of atomic charges =    -0.000000

                    Cartesian Multipole Moments
 -----------------------------------------------------------------
    Charge (ESU x 10^10)
                -0.0000
    Dipole Moment (Debye)
         X       2.0554      Y      -0.7585      Z     -30.1330
       Tot      30.2126
    Quadrupole Moments (Debye-Ang)
        XX    -414.9676     XY       3.9666     YY    -441.6704
        XZ      14.1574     YZ      27.3569     ZZ    -663.9254

 Total job time:  107907.05s(wall), 338094.33s(cpu)
        *  Thank you very much for using Q-Chem.  Have a nice day.  *
