 Q-Chem 5.0, Q-Chem, Inc., Pleasanton, CA (2017)
 Q-Chem 5.0.1 for Intel X86 EM64T Linux

User input:
--------------------------------------------------------------
$rem
threads 8
jobtype	sp
method PBEh-3c
basis def2-mSVP
mem_static	1024
mem_total	8000
sym_ignore	true
unrestricted true
scf_convergence	9
solvent_method	pcm
$end

$molecule
read incoords.mol
$end

$solvent
dielectric	8.93
$end

$pcm
theory iefpcm
$end
--------------------------------------------------------------

   16   -2925.5586724654      9.98E-10 Convergence criterion met
 Total energy in the final basis set = -2925.55867247
 Total job time:  3374.64s(wall), 10842.84s(cpu)
        *  Thank you very much for using Q-Chem.  Have a nice day.  *
 Q-Chem 5.0, Q-Chem, Inc., Pleasanton, CA (2017)
 Q-Chem 5.0.1 for Intel X86 EM64T Linux

User input:
--------------------------------------------------------------

$rem
threads 8
jobtype opt
method PBEh-3c
basis def2-mSVP
scf_guess	read
mem_static      1024
mem_total       8000
sym_ignore      true
unrestricted true
mom_start       1
scf_algorithm	diis
scf_max_cycles	250
solvent_method	pcm
geom_opt_tol_energy 25
geom_opt_tol_gradient 75
$end

$solvent
dielectric      8.93
$end
$pcm
theory iefpcm
$end

$occupied
1 2 3 4 5 6 7 8 9 10 11 12 13 14 15 16 17 18 19 20 21 22 23 24 25 26 27 28 29 30 31 32 33 34 35 36 37 38 39 40 41 42 43 44 45 46 47 48 49 50 51 52 53 54 55 56 57 58 59 60 61 62 63 64 65 66 67 68 69 70 71 72 73 74 75 76 77 78 79 80 81 82 83 84 85 86 87 88 89 90 91 92 93 94 95 96 97 98 99 100 101 102 103 104 105 106 107 108 109 110 111 112 113 114 115 116 117 118 119 120 121 122 123 124 125 126 127 128 129 130 131 132 133 134 135 136 137 138 139 140 141 142 143 144 145 146 147 148 149 150 151 152 153 154 155 156 157 158 159 160 161 162 163 164 165 166 167 168 169 170 171 172 173 174 175 176 177 178 179 180 181 182 183 184 185 186 187 188 189 190 191 192 193 194 195 196 197 198 199 200 201 202 203 204 205 206 207 208 209 210 211 212 213 214 215 216 217 218 219 220 221 222 223 224 225 226 227 228 229 230 231 232 233 234 235 236 237 238 239 240 241 242 243 244 245 246 247 248 249 250 251  253
1 2 3 4 5 6 7 8 9 10 11 12 13 14 15 16 17 18 19 20 21 22 23 24 25 26 27 28 29 30 31 32 33 34 35 36 37 38 39 40 41 42 43 44 45 46 47 48 49 50 51 52 53 54 55 56 57 58 59 60 61 62 63 64 65 66 67 68 69 70 71 72 73 74 75 76 77 78 79 80 81 82 83 84 85 86 87 88 89 90 91 92 93 94 95 96 97 98 99 100 101 102 103 104 105 106 107 108 109 110 111 112 113 114 115 116 117 118 119 120 121 122 123 124 125 126 127 128 129 130 131 132 133 134 135 136 137 138 139 140 141 142 143 144 145 146 147 148 149 150 151 152 153 154 155 156 157 158 159 160 161 162 163 164 165 166 167 168 169 170 171 172 173 174 175 176 177 178 179 180 181 182 183 184 185 186 187 188 189 190 191 192 193 194 195 196 197 198 199 200 201 202 203 204 205 206 207 208 209 210 211 212 213 214 215 216 217 218 219 220 221 222 223 224 225 226 227 228 229 230 231 232 233 234 235 236 237 238 239 240 241 242 243 244 245 246 247 248 249 250 251 252
$end

$molecule
read incoords.mol
$end

--------------------------------------------------------------

   20   -2925.4818050717      8.75E-09 Convergence criterion met
 Total energy in the final basis set = -2925.48180507
   18   -2925.4819677982      6.82E-09 Convergence criterion met
 Total energy in the final basis set = -2925.48196780
   19   -2925.4816013047      6.76E-09 Convergence criterion met
 Total energy in the final basis set = -2925.48160130
   18   -2925.4809306429      7.15E-09 Convergence criterion met
 Total energy in the final basis set = -2925.48093064
   18   -2925.4810313306      7.45E-09 Convergence criterion met
 Total energy in the final basis set = -2925.48103133
   18   -2925.4808428602      8.09E-09 Convergence criterion met
 Total energy in the final basis set = -2925.48084286
   18   -2925.4805940819      7.65E-09 Convergence criterion met
 Total energy in the final basis set = -2925.56184926
   12   -2925.5618990737      9.45E-09 Convergence criterion met
 Total energy in the final basis set = -2925.56189907
   12   -2925.5616463252      9.41E-09 Convergence criterion met
 Total energy in the final basis set = -2925.56164633
   12   -2925.5615952212      9.44E-09 Convergence criterion met
 Total energy in the final basis set = -2925.56159522
   12   -2925.5615683024      9.36E-09 Convergence criterion met
 Total energy in the final basis set = -2925.56156830
   12   -2925.5615811503      9.47E-09 Convergence criterion met
 Total energy in the final basis set = -2925.56158115
   12   -2925.5616305392      9.32E-09 Convergence criterion met
 Total energy in the final basis set = -2925.56163054
   12   -2925.5616138817      9.33E-09 Convergence criterion met
 Total energy in the final basis set = -2925.56161388

                    Orbital Energies (a.u.)
 --------------------------------------------------------------

 Alpha MOs
 -- Occupied --
-14.694 -14.691 -10.494 -10.492 -10.491 -10.490 -10.490 -10.489
-10.471 -10.469 -10.468 -10.468 -10.467 -10.467 -10.467 -10.467
-10.466 -10.466 -10.465 -10.465 -10.464 -10.463 -10.463 -10.463
-10.463 -10.463 -10.463 -10.463 -10.463 -10.463 -10.462 -10.459
-10.459 -10.459 -10.459 -10.459 -10.459 -10.459 -10.453 -10.453
-10.452 -10.452 -10.452 -10.451 -10.451 -10.451 -10.451 -10.450
-10.450 -10.450 -10.450 -10.450 -10.449 -10.449 -10.449 -10.449
-10.449 -10.448 -10.448 -10.448 -10.442 -10.442 -10.442 -10.442
-10.442 -10.442 -10.441 -10.440 -10.434 -10.433 -10.432 -10.432
-10.431 -10.431  -6.959  -6.956  -1.113  -1.113  -1.021  -1.020
 -0.980  -0.980  -0.967  -0.964  -0.954  -0.954  -0.950  -0.949
 -0.935  -0.935  -0.914  -0.905  -0.892  -0.890  -0.881  -0.881
 -0.864  -0.859  -0.857  -0.854  -0.849  -0.849  -0.848  -0.848
 -0.827  -0.818  -0.815  -0.812  -0.812  -0.811  -0.810  -0.809
 -0.776  -0.776  -0.773  -0.773  -0.739  -0.739  -0.734  -0.729
 -0.728  -0.724  -0.701  -0.698  -0.691  -0.690  -0.690  -0.682
 -0.678  -0.670  -0.658  -0.656  -0.654  -0.653  -0.652  -0.651
 -0.646  -0.645  -0.601  -0.598  -0.596  -0.596  -0.592  -0.590
 -0.590  -0.589  -0.586  -0.578  -0.576  -0.575  -0.574  -0.561
 -0.559  -0.554  -0.548  -0.546  -0.530  -0.530  -0.527  -0.523
 -0.522  -0.521  -0.517  -0.513  -0.505  -0.505  -0.504  -0.502
 -0.501  -0.500  -0.498  -0.496  -0.495  -0.494  -0.492  -0.490
 -0.490  -0.490  -0.489  -0.485  -0.483  -0.482  -0.481  -0.481
 -0.475  -0.475  -0.473  -0.471  -0.470  -0.469  -0.468  -0.468
 -0.465  -0.457  -0.450  -0.444  -0.443  -0.442  -0.441  -0.433
 -0.429  -0.429  -0.428  -0.426  -0.426  -0.425  -0.423  -0.419
 -0.419  -0.415  -0.409  -0.406  -0.400  -0.400  -0.399  -0.398
 -0.398  -0.397  -0.397  -0.396  -0.396  -0.394  -0.392  -0.392
 -0.386  -0.380  -0.379  -0.374  -0.366  -0.357  -0.356  -0.348
 -0.334  -0.334  -0.325  -0.319  -0.304  -0.303  -0.299  -0.298
 -0.290  -0.287  -0.287  -0.286  -0.285  -0.266  -0.263  -0.260
 -0.258  -0.258  -0.245  -0.242

 Beta MOs
 -- Occupied --
-14.694 -14.691 -10.494 -10.492 -10.491 -10.490 -10.490 -10.489
-10.471 -10.469 -10.468 -10.468 -10.467 -10.467 -10.467 -10.467
-10.466 -10.466 -10.465 -10.465 -10.464 -10.463 -10.463 -10.463
-10.463 -10.463 -10.463 -10.463 -10.463 -10.463 -10.462 -10.459
-10.459 -10.459 -10.459 -10.459 -10.459 -10.459 -10.453 -10.453
-10.452 -10.452 -10.452 -10.451 -10.451 -10.451 -10.451 -10.450
-10.450 -10.450 -10.450 -10.450 -10.449 -10.449 -10.449 -10.449
-10.449 -10.448 -10.448 -10.448 -10.442 -10.442 -10.442 -10.442
-10.442 -10.442 -10.441 -10.440 -10.434 -10.433 -10.432 -10.432
-10.431 -10.431  -6.959  -6.956  -1.113  -1.113  -1.021  -1.020
 -0.980  -0.980  -0.967  -0.964  -0.954  -0.954  -0.950  -0.949
 -0.935  -0.935  -0.914  -0.905  -0.892  -0.890  -0.881  -0.881
 -0.864  -0.859  -0.857  -0.854  -0.849  -0.849  -0.848  -0.848
 -0.827  -0.818  -0.815  -0.812  -0.812  -0.811  -0.810  -0.809
 -0.776  -0.776  -0.773  -0.773  -0.739  -0.739  -0.734  -0.729
 -0.728  -0.724  -0.701  -0.698  -0.691  -0.690  -0.690  -0.682
 -0.678  -0.670  -0.658  -0.656  -0.654  -0.653  -0.652  -0.651
 -0.646  -0.645  -0.601  -0.598  -0.596  -0.596  -0.592  -0.590
 -0.590  -0.589  -0.586  -0.578  -0.576  -0.575  -0.574  -0.561
 -0.559  -0.554  -0.548  -0.546  -0.530  -0.530  -0.527  -0.523
 -0.522  -0.521  -0.517  -0.513  -0.505  -0.505  -0.504  -0.502
 -0.501  -0.500  -0.498  -0.496  -0.495  -0.494  -0.492  -0.490
 -0.490  -0.490  -0.489  -0.485  -0.483  -0.482  -0.481  -0.481
 -0.475  -0.475  -0.473  -0.471  -0.470  -0.469  -0.468  -0.468
 -0.465  -0.457  -0.450  -0.444  -0.443  -0.442  -0.441  -0.433
 -0.429  -0.429  -0.428  -0.426  -0.426  -0.425  -0.423  -0.419
 -0.419  -0.415  -0.409  -0.406  -0.400  -0.400  -0.399  -0.398
 -0.398  -0.397  -0.397  -0.396  -0.396  -0.394  -0.392  -0.392
 -0.386  -0.380  -0.379  -0.374  -0.366  -0.357  -0.356  -0.348
 -0.334  -0.334  -0.325  -0.319  -0.304  -0.303  -0.299  -0.298
 -0.290  -0.287  -0.287  -0.286  -0.285  -0.266  -0.263  -0.260
 -0.258  -0.258  -0.245  -0.242

          Ground-State Mulliken Net Atomic Charges

     Atom                 Charge (a.u.)    Spin (a.u.)
  --------------------------------------------------------
      1 N                    -0.731384       0.000000
      2 C                     0.303376      -0.000000
      3 C                     0.339721       0.000000
      4 C                    -0.301125      -0.000000
      5 H                     0.258574      -0.000000
      6 C                    -0.264355       0.000000
      7 H                     0.247557       0.000000
      8 C                     0.331848      -0.000000
      9 C                    -0.298860      -0.000000
     10 H                     0.257963      -0.000000
     11 C                    -0.263031      -0.000000
     12 H                     0.246793      -0.000000
     13 C                    -0.260502       0.000000
     14 H                     0.243746       0.000000
     15 C                    -0.364324      -0.000000
     16 H                     0.239953       0.000000
     17 C                     0.077573       0.000000
     18 C                    -0.261046      -0.000000
     19 H                     0.243675      -0.000000
     20 C                    -0.362131       0.000000
     21 H                     0.240282       0.000000
     22 C                     0.064884      -0.000000
     23 C                    -0.355807       0.000000
     24 H                     0.256708      -0.000000
     25 C                     0.056878      -0.000000
     26 C                    -0.363605       0.000000
     27 H                     0.255885      -0.000000
     28 C                     0.029924      -0.000000
     29 C                    -0.207525       0.000000
     30 C                    -0.768860      -0.000000
     31 H                     0.256413      -0.000000
     32 H                     0.250491       0.000000
     33 H                     0.250478       0.000000
     34 C                    -0.778501      -0.000000
     35 H                     0.260044      -0.000000
     36 H                     0.253103       0.000000
     37 H                     0.254041       0.000000
     38 B                     0.699488      -0.000000
     39 C                    -0.154439      -0.000000
     40 C                    -0.386979      -0.000000
     41 H                     0.246812       0.000000
     42 C                     0.069861       0.000000
     43 C                     0.089403       0.000000
     44 C                    -0.402196      -0.000000
     45 H                     0.242418       0.000000
     46 C                    -0.156605      -0.000000
     47 C                     0.178033      -0.000000
     48 C                    -0.394543       0.000000
     49 H                     0.252361      -0.000000
     50 C                    -0.064697       0.000000
     51 C                     0.222645      -0.000000
     52 C                     0.178207      -0.000000
     53 C                    -0.386834       0.000000
     54 H                     0.252956      -0.000000
     55 C                    -0.232082      -0.000000
     56 H                     0.258361       0.000000
     57 C                    -0.349446       0.000000
     58 H                     0.255863      -0.000000
     59 C                    -0.234578      -0.000000
     60 H                     0.258980       0.000000
     61 C                    -0.345790       0.000000
     62 H                     0.255540      -0.000000
     63 C                    -0.159848      -0.000000
     64 C                    -0.389592      -0.000000
     65 H                     0.246063       0.000000
     66 C                     0.075077       0.000000
     67 C                     0.085518       0.000000
     68 C                    -0.386859      -0.000000
     69 H                     0.250265       0.000000
     70 C                    -0.149749      -0.000000
     71 C                     0.185758      -0.000000
     72 C                    -0.400654       0.000000
     73 H                     0.254725      -0.000000
     74 C                    -0.066966       0.000000
     75 C                     0.220018      -0.000000
     76 C                     0.178372      -0.000000
     77 C                    -0.389608       0.000000
     78 H                     0.251116      -0.000000
     79 C                    -0.233275      -0.000000
     80 H                     0.258604       0.000000
     81 C                    -0.345797       0.000000
     82 H                     0.255704      -0.000000
     83 C                    -0.233700      -0.000000
     84 H                     0.259083       0.000000
     85 C                    -0.348126       0.000000
     86 H                     0.255898      -0.000000
     87 B                     0.686546      -0.000000
     88 C                    -0.203101       0.000000
     89 C                     0.046059      -0.000000
     90 C                    -0.332198       0.000000
     91 H                     0.252679       0.000000
     92 C                     0.263860      -0.000000
     93 C                    -0.336269       0.000000
     94 H                     0.254108      -0.000000
     95 C                     0.028412      -0.000000
     96 N                    -0.725639       0.000000
     97 C                     0.337087       0.000000
     98 C                     0.348241      -0.000000
     99 C                    -0.305674      -0.000000
    100 H                     0.256946       0.000000
    101 C                    -0.266440      -0.000000
    102 H                     0.247184       0.000000
    103 C                    -0.304028      -0.000000
    104 H                     0.261314      -0.000000
    105 C                    -0.269040       0.000000
    106 H                     0.247783       0.000000
    107 C                    -0.258596       0.000000
    108 H                     0.243276      -0.000000
    109 C                    -0.367857      -0.000000
    110 H                     0.239654      -0.000000
    111 C                     0.085524       0.000000
    112 C                    -0.260972       0.000000
    113 H                     0.243169       0.000000
    114 C                    -0.364323      -0.000000
    115 H                     0.239883      -0.000000
    116 C                     0.065596       0.000000
    117 C                    -0.775780      -0.000000
    118 H                     0.260548      -0.000000
    119 H                     0.253618       0.000000
    120 H                     0.253714       0.000000
    121 C                    -0.766614      -0.000000
    122 H                     0.256531      -0.000000
    123 H                     0.249603       0.000000
    124 H                     0.251574       0.000000
  --------------------------------------------------------
  Sum of atomic charges =    -0.000000

                    Cartesian Multipole Moments
 -----------------------------------------------------------------
    Charge (ESU x 10^10)
                -0.0000
    Dipole Moment (Debye)
         X      -0.1727      Y       2.0982      Z      -0.0273
       Tot       2.1055
    Quadrupole Moments (Debye-Ang)
        XX    -397.4692     XY      45.2687     YY    -395.1718
        XZ       6.8078     YZ      25.0193     ZZ    -437.6754

             Standard Nuclear Orientation (Angstroms)
    I     Atom           X                Y                Z
 ----------------------------------------------------------------
    1      N       0.4436490312    -0.6387155418     0.2641168286
    2      C       0.2791004855    -0.3717679391     1.6403636510
    3      C       1.5779626513    -0.4206211885    -0.4917937705
    4      C       2.8060234480     0.1108410412    -0.1159091124
    5      H       3.0055435439     0.4111917891     0.9043562209
    6      C       3.7708551155     0.2443371431    -1.1003804211
    7      H       4.7368782516     0.6547749197    -0.8364386835
    8      C      -0.5383110707    -1.1635542664    -0.5484064238
    9      C      -1.8336594275    -1.5598249688    -0.2249191768
   10      H      -2.2184475464    -1.4779946533     0.7829739920
   11      C      -2.6230360366    -2.0656166429    -1.2431304938
   12      H      -3.6343440339    -2.3795765024    -1.0183061483
   13      C      -2.1444749158    -2.1806699941    -2.5531129620
   14      H      -2.7906663294    -2.5786048644    -3.3244851104
   15      C      -0.8537709474    -1.7936577189    -2.8654484914
   16      H      -0.4816689740    -1.8889260483    -3.8782133633
   17      C      -0.0402558465    -1.2818034688    -1.8571542672
   18      C       3.5268023663    -0.1347261714    -2.4253509301
   19      H       4.3056540533    -0.0138251175    -3.1665811048
   20      C       2.3003112257    -0.6581091781    -2.7930141879
   21      H       2.1071615458    -0.9462184327    -3.8193291030
   22      C       1.3151944053    -0.8034071450    -1.8217183297
   23      C      -0.6814948929     0.5411227238     2.0505387863
   24      H      -1.2659974957     1.0749821877     1.3095623819
   25      C      -0.9059647778     0.7576976370     3.4048784749
   26      C       1.0406075601    -1.0557536074     2.5739195658
   27      H       1.7739785826    -1.7803143409     2.2395289617
   28      C       0.8435228413    -0.8345335874     3.9310738951
   29      C      -0.1415556331     0.0683219471     4.3525365929
   30      C      -1.9716470670     1.7186310034     3.8506435043
   31      H      -2.4794997791     2.1795022668     3.0042234520
   32      H      -1.5571428287     2.5220161110     4.4635132994
   33      H      -2.7305041562     1.2162118553     4.4549285310
   34      C       1.6621118844    -1.5892656653     4.9408136293
   35      H       2.3724262803    -2.2602897037     4.4593171386
   36      H       2.2303836128    -0.9122164887     5.5822209331
   37      H       1.0300197676    -2.1952629037     5.5940356104
   38      B      -0.3897835558     0.2335981907     5.8921032426
   39      C       0.4159631523     1.2762443584     6.7127524148
   40      C       1.1808190142     2.2359607229     6.0509435382
   41      H       1.2065592923     2.2607187603     4.9668375698
   42      C       1.9104657826     3.1544743144     6.7812804207
   43      C       1.9166420782     3.1143301121     8.1941758868
   44      C       1.1810088026     2.1440571335     8.8585483185
   45      H       1.1985268748     2.0888058592     9.9417931426
   46      C       0.4137684876     1.2295443828     8.1282025448
   47      C       2.7919822148     4.1913097913     8.6667127084
   48      C       3.2024530836     4.6530399223     9.8897836024
   49      H       2.8679754005     4.2013438069    10.8153867664
   50      C       3.2774679450     4.8376338699     7.5120652527
   51      C       4.1505993149     5.9190348478     7.5175010323
   52      C       2.7722988375     4.2448090390     6.3416325499
   53      C       3.1492057922     4.7456554516     5.1226945886
   54      H       2.7890797884     4.3235264054     4.1921957447
   55      C       4.0915323143     5.7551231058     9.9299062963
   56      H       4.4151696710     6.1189986875    10.8961748355
   57      C       4.5578977144     6.3772163270     8.7937363410
   58      H       5.2375162800     7.2163104856     8.8776233849
   59      C       4.0362449541     5.8475696310     5.0977988638
   60      H       4.3373732593     6.2475638816     4.1382923154
   61      C       4.5270776696     6.4243069597     6.2477896030
   62      H       5.2047466594     7.2664463294     6.1796915831
   63      C      -1.3879305194    -0.7127423619     6.6075086132
   64      C      -2.2174535240    -1.5600522121     5.8677432488
   65      H      -2.1845704472    -1.5452764565     4.7837477117
   66      C      -3.0703897110    -2.4278029486     6.5221642872
   67      C      -3.0954029788    -2.4752189469     7.9348277378
   68      C      -2.2633884126    -1.6539283240     8.6721238769
   69      H      -2.2724912695    -1.7172592682     9.7540522464
   70      C      -1.4078858517    -0.7588823070     8.0200176993
   71      C      -4.0588506820    -3.5026770677     8.3385038452
   72      C      -4.5068738111    -4.0129825952     9.5300240379
   73      H      -4.1504172750    -3.6433110864    10.4838957721
   74      C      -4.5775475377    -4.0395593258     7.1446051765
   75      C      -5.5189411753    -5.0636969888     7.0850019453
   76      C      -4.0153927217    -3.4217417079     6.0122274019
   77      C      -4.4127226001    -3.8396792750     4.7674166268
   78      H      -4.0127620352    -3.4032669424     3.8602778610
   79      C      -5.3724536627    -4.8766506200     4.6767814253
   80      H      -5.6853334998    -5.2066101465     3.6945476544
   81      C      -5.9152495410    -5.4782148626     5.7892705887
   82      H      -6.6447493709    -6.2707039841     5.6733318087
   83      C      -5.4657970049    -5.0555328918     9.5021151031
   84      H      -5.8167309693    -5.4567671558    10.4440443625
   85      C      -5.9639115670    -5.5741080355     8.3282657481
   86      H      -6.6948323366    -6.3731544343     8.3561902736
   87      B      -0.4125063644     0.1244242015     8.8366873538
   88      C      -0.2628157311    -0.2719740666    10.3469261538
   89      C      -1.1407677614     0.2180506484    11.3194650777
   90      C      -1.2209123395    -0.4146898449    12.5560349264
   91      H      -1.9482087624    -0.0883983442    13.2905600996
   92      C      -0.4261263356    -1.5190090021    12.8204564626
   93      C       0.5099214151    -1.9498571925    11.8929005177
   94      H       1.1296806683    -2.8100210032    12.1196764014
   95      C       0.5936225355    -1.3382872102    10.6491888778
   96      N      -0.6648446737    -2.3147818295    13.9651265537
   97      C      -1.3485566216    -3.5084932781    13.9036021790
   98      C      -0.2305949951    -2.1165852027    15.2555775472
   99      C       0.5140251433    -1.0679946102    15.7804844574
  100      H       0.8370072463    -0.2402735455    15.1620187693
  101      C       0.8308647216    -1.1259763429    17.1268408909
  102      H       1.4108181978    -0.3246190815    17.5661457546
  103      C      -1.9518791214    -4.1139741687    12.8045560720
  104      H      -1.9254519466    -3.6603321935    11.8217509041
  105      C      -2.5799746202    -5.3300747334    13.0088356106
  106      H      -3.0537898439    -5.8259680424    12.1706983839
  107      C      -2.6103499695    -5.9319074833    14.2724016929
  108      H      -3.1082750966    -6.8844588729    14.3972714856
  109      C      -2.0086258473    -5.3220017409    15.3590418869
  110      H      -2.0330383317    -5.7923767103    16.3343479278
  111      C      -1.3689304486    -4.0975165975    15.1785345852
  112      C       0.4216177530    -2.1962681609    17.9308588602
  113      H       0.6895522505    -2.2069051334    18.9790464174
  114      C      -0.3172674907    -3.2380498975    17.3980807063
  115      H      -0.6292723056    -4.0681578576    18.0201165586
  116      C      -0.6490877575    -3.2041335761    16.0474404295
  117      C       1.5247166018    -1.8877076514     9.6034890442
  118      H       2.2265275021    -2.6035616833    10.0297018205
  119      H       2.1062721154    -1.1005956330     9.1203514811
  120      H       0.9703277303    -2.4063267334     8.8163802914
  121      C      -2.0651889430     1.3544747400    10.9841934492
  122      H      -2.6503771295     1.6694003789    11.8472210289
  123      H      -1.5151140475     2.2239362697    10.6200044377
  124      H      -2.7707169641     1.0714896296    10.1981975066
 ----------------------------------------------------------------
