 Q-Chem 5.1, Q-Chem, Inc., Pleasanton, CA (2018)
 Q-Chem 5.1.1 for Intel X86 EM64T Linux

User input:
--------------------------------------------------------------
$rem
threads 8
jobtype	sp
method PBEh-3c
basis def2-mSVP
mem_static	1024
mem_total	8000
sym_ignore	true
unrestricted true
scf_convergence	9
solvent_method	pcm
$end

$molecule
read moms1opt_eth_opt.mol
$end

$solvent
dielectric	8.93
$end

$pcm
theory iefpcm
$end
--------------------------------------------------------------

   16   -2925.5541761946      5.04e-10  Convergence criterion met
 Total energy in the final basis set =    -2925.5541761946

                    Orbital Energies (a.u.)
 --------------------------------------------------------------

 Alpha MOs
 -- Occupied --
-14.695 -14.692 -10.494 -10.493 -10.492 -10.492 -10.490 -10.489
-10.471 -10.469 -10.469 -10.468 -10.468 -10.467 -10.467 -10.467
-10.466 -10.466 -10.466 -10.465 -10.465 -10.464 -10.463 -10.463
-10.463 -10.463 -10.462 -10.462 -10.462 -10.460 -10.460 -10.459
-10.459 -10.459 -10.459 -10.459 -10.459 -10.459 -10.454 -10.454
-10.452 -10.452 -10.452 -10.452 -10.452 -10.451 -10.451 -10.451
-10.451 -10.451 -10.450 -10.450 -10.450 -10.449 -10.449 -10.449
-10.449 -10.448 -10.444 -10.444 -10.444 -10.444 -10.443 -10.442
-10.442 -10.442 -10.441 -10.440 -10.434 -10.430 -10.430 -10.429
-10.429 -10.428  -6.956  -6.949  -1.114  -1.113  -1.019  -1.018
 -0.979  -0.979  -0.965  -0.962  -0.957  -0.954  -0.949  -0.948
 -0.935  -0.934  -0.912  -0.903  -0.892  -0.890  -0.881  -0.880
 -0.863  -0.860  -0.856  -0.854  -0.850  -0.849  -0.848  -0.847
 -0.828  -0.818  -0.816  -0.814  -0.812  -0.811  -0.809  -0.808
 -0.775  -0.772  -0.772  -0.771  -0.740  -0.739  -0.734  -0.729
 -0.728  -0.723  -0.701  -0.698  -0.692  -0.691  -0.690  -0.682
 -0.680  -0.670  -0.661  -0.656  -0.653  -0.651  -0.649  -0.646
 -0.644  -0.643  -0.601  -0.599  -0.596  -0.594  -0.592  -0.591
 -0.590  -0.589  -0.585  -0.578  -0.578  -0.576  -0.574  -0.559
 -0.553  -0.552  -0.546  -0.545  -0.531  -0.529  -0.528  -0.524
 -0.522  -0.521  -0.517  -0.512  -0.510  -0.506  -0.505  -0.504
 -0.501  -0.499  -0.497  -0.495  -0.494  -0.493  -0.493  -0.491
 -0.489  -0.489  -0.488  -0.485  -0.482  -0.481  -0.481  -0.480
 -0.474  -0.473  -0.472  -0.470  -0.469  -0.467  -0.467  -0.467
 -0.464  -0.457  -0.448  -0.443  -0.442  -0.441  -0.441  -0.432
 -0.429  -0.429  -0.428  -0.426  -0.426  -0.425  -0.423  -0.420
 -0.418  -0.413  -0.413  -0.406  -0.403  -0.399  -0.398  -0.398
 -0.397  -0.397  -0.396  -0.395  -0.394  -0.393  -0.392  -0.391
 -0.384  -0.379  -0.377  -0.373  -0.366  -0.358  -0.355  -0.344
 -0.336  -0.334  -0.326  -0.320  -0.303  -0.303  -0.299  -0.297
 -0.288  -0.287  -0.286  -0.286  -0.285  -0.266  -0.262  -0.261
 -0.259  -0.258  -0.244  -0.234

 Beta MOs
 -- Occupied --
-14.695 -14.692 -10.494 -10.493 -10.492 -10.492 -10.490 -10.489
-10.471 -10.469 -10.469 -10.468 -10.468 -10.467 -10.467 -10.467
-10.466 -10.466 -10.466 -10.465 -10.465 -10.464 -10.463 -10.463
-10.463 -10.463 -10.462 -10.462 -10.462 -10.460 -10.460 -10.459
-10.459 -10.459 -10.459 -10.459 -10.459 -10.459 -10.454 -10.454
-10.452 -10.452 -10.452 -10.452 -10.452 -10.451 -10.451 -10.451
-10.451 -10.451 -10.450 -10.450 -10.450 -10.449 -10.449 -10.449
-10.449 -10.448 -10.444 -10.444 -10.444 -10.444 -10.443 -10.442
-10.442 -10.442 -10.441 -10.440 -10.434 -10.430 -10.430 -10.429
-10.429 -10.428  -6.956  -6.949  -1.114  -1.113  -1.019  -1.018
 -0.979  -0.979  -0.965  -0.962  -0.957  -0.954  -0.949  -0.948
 -0.935  -0.934  -0.912  -0.903  -0.892  -0.890  -0.881  -0.880
 -0.863  -0.860  -0.856  -0.854  -0.850  -0.849  -0.848  -0.847
 -0.828  -0.818  -0.816  -0.814  -0.812  -0.811  -0.809  -0.808
 -0.775  -0.772  -0.772  -0.771  -0.740  -0.739  -0.734  -0.729
 -0.728  -0.723  -0.701  -0.698  -0.692  -0.691  -0.690  -0.682
 -0.680  -0.670  -0.661  -0.656  -0.653  -0.651  -0.649  -0.646
 -0.644  -0.643  -0.601  -0.599  -0.596  -0.594  -0.592  -0.591
 -0.590  -0.589  -0.585  -0.578  -0.578  -0.576  -0.574  -0.559
 -0.553  -0.552  -0.546  -0.545  -0.531  -0.529  -0.528  -0.524
 -0.522  -0.521  -0.517  -0.512  -0.510  -0.506  -0.505  -0.504
 -0.501  -0.499  -0.497  -0.495  -0.494  -0.493  -0.493  -0.491
 -0.489  -0.489  -0.488  -0.485  -0.482  -0.481  -0.481  -0.480
 -0.474  -0.473  -0.472  -0.470  -0.469  -0.467  -0.467  -0.467
 -0.464  -0.457  -0.448  -0.443  -0.442  -0.441  -0.441  -0.432
 -0.429  -0.429  -0.428  -0.426  -0.426  -0.425  -0.423  -0.420
 -0.418  -0.413  -0.413  -0.406  -0.403  -0.399  -0.398  -0.398
 -0.397  -0.397  -0.396  -0.395  -0.394  -0.393  -0.392  -0.391
 -0.384  -0.379  -0.377  -0.373  -0.366  -0.358  -0.355  -0.344
 -0.336  -0.334  -0.326  -0.320  -0.303  -0.303  -0.299  -0.297
 -0.288  -0.287  -0.286  -0.286  -0.285  -0.266  -0.262  -0.261
 -0.259  -0.258  -0.244  -0.234

          Ground-State Mulliken Net Atomic Charges

     Atom                 Charge (a.u.)    Spin (a.u.)
  --------------------------------------------------------
      1 N                    -0.736881      -0.000000
      2 C                     0.346912       0.000000
      3 C                     0.335842      -0.000000
      4 C                    -0.302806      -0.000000
      5 H                     0.270551       0.000000
      6 C                    -0.258858      -0.000000
      7 H                     0.249747      -0.000000
      8 C                     0.327120       0.000000
      9 C                    -0.302045       0.000000
     10 H                     0.271810      -0.000000
     11 C                    -0.257557      -0.000000
     12 H                     0.249318       0.000000
     13 C                    -0.263619      -0.000000
     14 H                     0.244218      -0.000000
     15 C                    -0.366035       0.000000
     16 H                     0.242542      -0.000000
     17 C                     0.077428       0.000000
     18 C                    -0.263677       0.000000
     19 H                     0.244222       0.000000
     20 C                    -0.364014      -0.000000
     21 H                     0.242968      -0.000000
     22 C                     0.065379       0.000000
     23 C                    -0.395644       0.000000
     24 H                     0.270080      -0.000000
     25 C                     0.057920      -0.000000
     26 C                    -0.399335      -0.000000
     27 H                     0.266675      -0.000000
     28 C                     0.039976      -0.000000
     29 C                    -0.228878       0.000000
     30 C                    -0.768330      -0.000000
     31 H                     0.254065       0.000000
     32 H                     0.250163      -0.000000
     33 H                     0.250213      -0.000000
     34 C                    -0.774299      -0.000000
     35 H                     0.256347       0.000000
     36 H                     0.251666       0.000000
     37 H                     0.253053       0.000000
     38 B                     0.679397       0.000000
     39 C                    -0.149481      -0.000000
     40 C                    -0.390955       0.000000
     41 H                     0.247474      -0.000000
     42 C                     0.078270      -0.000000
     43 C                     0.098210      -0.000000
     44 C                    -0.407548      -0.000000
     45 H                     0.243101       0.000000
     46 C                    -0.156927       0.000000
     47 C                     0.177230      -0.000000
     48 C                    -0.393238       0.000000
     49 H                     0.252992      -0.000000
     50 C                    -0.066712       0.000000
     51 C                     0.222330       0.000000
     52 C                     0.178576      -0.000000
     53 C                    -0.386258      -0.000000
     54 H                     0.253712      -0.000000
     55 C                    -0.231491       0.000000
     56 H                     0.258480       0.000000
     57 C                    -0.347980      -0.000000
     58 H                     0.256602      -0.000000
     59 C                    -0.233673       0.000000
     60 H                     0.259213      -0.000000
     61 C                    -0.344762      -0.000000
     62 H                     0.256254      -0.000000
     63 C                    -0.157793       0.000000
     64 C                    -0.392278      -0.000000
     65 H                     0.247273       0.000000
     66 C                     0.082927      -0.000000
     67 C                     0.093233       0.000000
     68 C                    -0.391365      -0.000000
     69 H                     0.249738       0.000000
     70 C                    -0.144048      -0.000000
     71 C                     0.186274      -0.000000
     72 C                    -0.398555      -0.000000
     73 H                     0.255579       0.000000
     74 C                    -0.069699       0.000000
     75 C                     0.219664       0.000000
     76 C                     0.179131      -0.000000
     77 C                    -0.389993       0.000000
     78 H                     0.252560       0.000000
     79 C                    -0.232561      -0.000000
     80 H                     0.258902      -0.000000
     81 C                    -0.345278       0.000000
     82 H                     0.256173       0.000000
     83 C                    -0.233935      -0.000000
     84 H                     0.259339      -0.000000
     85 C                    -0.347288       0.000000
     86 H                     0.256318      -0.000000
     87 B                     0.675303       0.000000
     88 C                    -0.206311      -0.000000
     89 C                     0.034092       0.000000
     90 C                    -0.324296      -0.000000
     91 H                     0.253830      -0.000000
     92 C                     0.265677       0.000000
     93 C                    -0.342571      -0.000000
     94 H                     0.254844      -0.000000
     95 C                     0.028169       0.000000
     96 N                    -0.725294       0.000000
     97 C                     0.331272       0.000000
     98 C                     0.347896      -0.000000
     99 C                    -0.305053       0.000000
    100 H                     0.257327      -0.000000
    101 C                    -0.266550       0.000000
    102 H                     0.247145       0.000000
    103 C                    -0.302111      -0.000000
    104 H                     0.262667      -0.000000
    105 C                    -0.267573      -0.000000
    106 H                     0.248393       0.000000
    107 C                    -0.258328       0.000000
    108 H                     0.243406      -0.000000
    109 C                    -0.368089      -0.000000
    110 H                     0.239705      -0.000000
    111 C                     0.086392      -0.000000
    112 C                    -0.261004      -0.000000
    113 H                     0.243212       0.000000
    114 C                    -0.364525      -0.000000
    115 H                     0.239888      -0.000000
    116 C                     0.065267       0.000000
    117 C                    -0.772805      -0.000000
    118 H                     0.258393       0.000000
    119 H                     0.252039       0.000000
    120 H                     0.253318       0.000000
    121 C                    -0.763228       0.000000
    122 H                     0.255307      -0.000000
    123 H                     0.249055       0.000000
    124 H                     0.251770       0.000000
  --------------------------------------------------------
  Sum of atomic charges =    -0.000000

                    Cartesian Multipole Moments
 -----------------------------------------------------------------
    Charge (ESU x 10^10)
                -0.0000
    Dipole Moment (Debye)
         X       0.4310      Y       1.8064      Z      -0.7791
       Tot       2.0139
    Quadrupole Moments (Debye-Ang)
        XX    -395.4254     XY      43.3513     YY    -393.9656
        XZ       7.4330     YZ      26.0046     ZZ    -438.6378

 Total job time:  3840.00s(wall), 28116.29s(cpu)
        *  Thank you very much for using Q-Chem.  Have a nice day.  *
 Q-Chem 5.1, Q-Chem, Inc., Pleasanton, CA (2018)
 Q-Chem 5.1.1 for Intel X86 EM64T Linux

User input:
--------------------------------------------------------------

$rem
threads 8
jobtype opt
method PBEh-3c
basis def2-mSVP
scf_guess	read
mem_static      1024
mem_total       8000
sym_ignore      true
unrestricted true
mom_start       1
scf_algorithm	diis
scf_max_cycles	250
solvent_method	pcm
geom_opt_tol_energy 25
geom_opt_tol_gradient 75
$end

$solvent
dielectric      8.93
$end
$pcm
theory iefpcm
$end

$occupied
1 2 3 4 5 6 7 8 9 10 11 12 13 14 15 16 17 18 19 20 21 22 23 24 25 26 27 28 29 30 31 32 33 34 35 36 37 38 39 40 41 42 43 44 45 46 47 48 49 50 51 52 53 54 55 56 57 58 59 60 61 62 63 64 65 66 67 68 69 70 71 72 73 74 75 76 77 78 79 80 81 82 83 84 85 86 87 88 89 90 91 92 93 94 95 96 97 98 99 100 101 102 103 104 105 106 107 108 109 110 111 112 113 114 115 116 117 118 119 120 121 122 123 124 125 126 127 128 129 130 131 132 133 134 135 136 137 138 139 140 141 142 143 144 145 146 147 148 149 150 151 152 153 154 155 156 157 158 159 160 161 162 163 164 165 166 167 168 169 170 171 172 173 174 175 176 177 178 179 180 181 182 183 184 185 186 187 188 189 190 191 192 193 194 195 196 197 198 199 200 201 202 203 204 205 206 207 208 209 210 211 212 213 214 215 216 217 218 219 220 221 222 223 224 225 226 227 228 229 230 231 232 233 234 235 236 237 238 239 240 241 242 243 244 245 246 247 248 249 250 251  253
1 2 3 4 5 6 7 8 9 10 11 12 13 14 15 16 17 18 19 20 21 22 23 24 25 26 27 28 29 30 31 32 33 34 35 36 37 38 39 40 41 42 43 44 45 46 47 48 49 50 51 52 53 54 55 56 57 58 59 60 61 62 63 64 65 66 67 68 69 70 71 72 73 74 75 76 77 78 79 80 81 82 83 84 85 86 87 88 89 90 91 92 93 94 95 96 97 98 99 100 101 102 103 104 105 106 107 108 109 110 111 112 113 114 115 116 117 118 119 120 121 122 123 124 125 126 127 128 129 130 131 132 133 134 135 136 137 138 139 140 141 142 143 144 145 146 147 148 149 150 151 152 153 154 155 156 157 158 159 160 161 162 163 164 165 166 167 168 169 170 171 172 173 174 175 176 177 178 179 180 181 182 183 184 185 186 187 188 189 190 191 192 193 194 195 196 197 198 199 200 201 202 203 204 205 206 207 208 209 210 211 212 213 214 215 216 217 218 219 220 221 222 223 224 225 226 227 228 229 230 231 232 233 234 235 236 237 238 239 240 241 242 243 244 245 246 247 248 249 250 251 252
$end

$molecule
read moms1opt_eth_opt.mol
$end

--------------------------------------------------------------

             Standard Nuclear Orientation (Angstroms)
    I     Atom           X                Y                Z
 ----------------------------------------------------------------
    1      N       0.1548460000    -0.4883060000     0.2254270000
    2      C       0.1061000000    -0.2374060000     1.5803040000
    3      C       1.3004430000    -0.5373460000    -0.5695700000
    4      C       2.6158450000    -0.2490060000    -0.2358900000
    5      H       2.9085290000     0.0446170000     0.7620510000
    6      C       3.5566780000    -0.3289030000    -1.2534400000
    7      H       4.5931950000    -0.1203100000    -1.0282660000
    8      C      -0.9563400000    -0.7615710000    -0.5682070000
    9      C      -2.2848160000    -0.9250840000    -0.1930290000
   10      H      -2.6146750000    -0.8343340000     0.8318710000
   11      C      -3.1947790000    -1.2390910000    -1.1923340000
   12      H      -4.2373530000    -1.3621950000    -0.9333740000
   13      C      -2.7869460000    -1.4156050000    -2.5112250000
   14      H      -3.5193900000    -1.6667120000    -3.2663930000
   15      C      -1.4445090000    -1.3008940000    -2.8662950000
   16      H      -1.1300700000    -1.4756500000    -3.8868430000
   17      C      -0.5290110000    -0.9771760000    -1.8855840000
   18      C       3.1885180000    -0.6537510000    -2.5562960000
   19      H       3.9462430000    -0.7009240000    -3.3264610000
   20      C       1.8571010000    -0.8953760000    -2.8884100000
   21      H       1.5735010000    -1.1141660000    -3.9095150000
   22      C       0.9120970000    -0.8323430000    -1.8871010000
   23      C      -0.8970090000     0.5980240000     2.0961120000
   24      H      -1.5593410000     1.1239630000     1.4193890000
   25      C      -0.9883190000     0.8007800000     3.4548830000
   26      C       1.0333420000    -0.8507530000     2.4332590000
   27      H       1.7660120000    -1.5355400000     2.0253370000
   28      C       0.9283110000    -0.6784280000     3.7952510000
   29      C      -0.0958830000     0.1400390000     4.3312940000
   30      C      -2.0333550000     1.7138280000     4.0175930000
   31      H      -2.6271290000     2.1835310000     3.2343340000
   32      H      -1.5786940000     2.5005130000     4.6211620000
   33      H      -2.7096680000     1.1661760000     4.6764710000
   34      C       1.8698470000    -1.3914240000     4.7163200000
   35      H       2.5839420000    -2.0048210000     4.1679670000
   36      H       2.4269380000    -0.6777780000     5.3245670000
   37      H       1.3274840000    -2.0372400000     5.4088130000
   38      B      -0.2542960000     0.2361430000     5.8991570000
   39      C       0.5675450000     1.2378350000     6.7050550000
   40      C       1.3684110000     2.1957400000     6.0520820000
   41      H       1.3826650000     2.2366540000     4.9665110000
   42      C       2.1337910000     3.0741350000     6.7739030000
   43      C       2.1433450000     3.0270380000     8.2008550000
   44      C       1.3729660000     2.0923840000     8.8561390000
   45      H       1.3815730000     2.0388500000     9.9406910000
   46      C       0.5662450000     1.1863780000     8.1346440000
   47      C       3.0586850000     4.0676640000     8.6701230000
   48      C       3.4923150000     4.5127820000     9.8940490000
   49      H       3.1449210000     4.0698200000    10.8191860000
   50      C       3.5649160000     4.7040760000     7.5152780000
   51      C       4.4759060000     5.7562080000     7.5240270000
   52      C       3.0329900000     4.1354980000     6.3413470000
   53      C       3.4256790000     4.6363510000     5.1248640000
   54      H       3.0471660000     4.2359310000     4.1918730000
   55      C       4.4187980000     5.5816600000     9.9347250000
   56      H       4.7582860000     5.9300380000    10.9018590000
   57      C       4.9037500000     6.1943010000     8.8009840000
   58      H       5.6121500000     7.0092270000     8.8865410000
   59      C       4.3492580000     5.7060660000     5.1054770000
   60      H       4.6602880000     6.1039980000     4.1476080000
   61      C       4.8652850000     6.2579730000     6.2569210000
   62      H       5.5710590000     7.0771740000     6.1922670000
   63      C      -1.1639160000    -0.7694420000     6.6011220000
   64      C      -1.9565040000    -1.6781780000     5.8663930000
   65      H      -1.9386330000    -1.6544360000     4.7806620000
   66      C      -2.7439530000    -2.5975770000     6.5102620000
   67      C      -2.7682020000    -2.6459790000     7.9356030000
   68      C      -1.9973250000    -1.7754550000     8.6659960000
   69      H      -2.0153860000    -1.8315060000     9.7489290000
   70      C      -1.1802750000    -0.8185500000     8.0273530000
   71      C      -3.6667410000    -3.7280730000     8.3350340000
   72      C      -4.0912450000    -4.2627990000     9.5269020000
   73      H      -3.7656820000    -3.8661450000    10.4809650000
   74      C      -4.1493760000    -4.3011990000     7.1396370000
   75      C      -5.0267430000    -5.3828600000     7.0818840000
   76      C      -3.6244610000    -3.6501970000     6.0046160000
   77      C      -3.9989870000    -4.0985230000     4.7610080000
   78      H      -3.6276600000    -3.6412130000     3.8517680000
   79      C      -4.8917550000    -5.1923700000     4.6741370000
   80      H      -5.1846760000    -5.5441270000     3.6926960000
   81      C      -5.3965400000    -5.8250030000     5.7874960000
   82      H      -6.0757390000    -6.6614200000     5.6734480000
   83      C      -4.9823740000    -5.3622490000     9.4983270000
   84      H      -5.3123120000    -5.7800340000    10.4412360000
   85      C      -5.4432060000    -5.9169800000     8.3256870000
   86      H      -6.1234730000    -6.7597080000     8.3542210000
   87      B      -0.2752200000     0.1238880000     8.8502490000
   88      C      -0.2134210000    -0.2024240000    10.3967490000
   89      C      -1.2181670000     0.2220020000    11.2759380000
   90      C      -1.3723620000    -0.3974970000    12.5125000000
   91      H      -2.1998860000    -0.1283270000    13.1598920000
   92      C      -0.5220690000    -1.4286170000    12.8796490000
   93      C       0.5422660000    -1.7806910000    12.0647920000
   94      H       1.2080140000    -2.5787800000    12.3737750000
   95      C       0.6998310000    -1.1780120000    10.8226570000
   96      N      -0.8226510000    -2.2369390000    14.0012740000
   97      C      -1.3649880000    -3.4971380000    13.8800970000
   98      C      -0.7109640000    -1.9289820000    15.3367730000
   99      C      -0.2253590000    -0.7721310000    15.9327000000
  100      H       0.1306220000     0.0592860000    15.3379000000
  101      C      -0.2150730000    -0.7258140000    17.3157000000
  102      H       0.1567170000     0.1623710000    17.8100860000
  103      C      -1.6862010000    -4.2056730000    12.7242530000
  104      H      -1.5107060000    -3.7947740000    11.7379670000
  105      C      -2.2366400000    -5.4654990000    12.8780850000
  106      H      -2.4942970000    -6.0382950000    11.9957350000
  107      C      -2.4636690000    -6.0137340000    14.1458710000
  108      H      -2.8920580000    -7.0039360000    14.2295510000
  109      C      -2.1478580000    -5.3006270000    15.2882720000
  110      H      -2.3304490000    -5.7258030000    16.2675570000
  111      C      -1.5965220000    -4.0277150000    15.1601560000
  112      C      -0.6716390000    -1.8000530000    18.0883170000
  113      H      -0.6471540000    -1.7276650000    19.1675560000
  114      C      -1.1506570000    -2.9496820000    17.4857410000
  115      H      -1.5011180000    -3.7813250000    18.0848710000
  116      C      -1.1746570000    -3.0207810000    16.0968950000
  117      C       1.7869030000    -1.6531170000     9.8991600000
  118      H       2.4631610000    -2.3467830000    10.3986960000
  119      H       2.3780700000    -0.8220980000     9.5126400000
  120      H       1.3663890000    -2.1700960000     9.0329860000
  121      C      -2.2106050000     1.2591170000    10.8294560000
  122      H      -2.8755040000     1.5582050000    11.6395270000
  123      H      -1.7132570000     2.1544220000    10.4537100000
  124      H      -2.8305000000     0.8771500000    10.0149200000
 ----------------------------------------------------------------
