 Q-Chem 5.0, Q-Chem, Inc., Pleasanton, CA (2017)
 Q-Chem 5.0.1 for Intel X86 EM64T Linux

User input:
--------------------------------------------------------------
$rem
threads 8
jobtype	sp
method PBEh-3c
basis def2-mSVP
mem_static	1024
mem_total	8000
sym_ignore	true
unrestricted true
scf_convergence	9
solvent_method	pcm
$end

$molecule
read incoords.mol
$end

$solvent
dielectric	1.0001
$end

$pcm
theory iefpcm
$end
--------------------------------------------------------------

   17   -2925.5244644189      8.71E-10 Convergence criterion met
 Total energy in the final basis set = -2925.52446442
 Total job time:  3496.66s(wall), 11183.13s(cpu)
        *  Thank you very much for using Q-Chem.  Have a nice day.  *
 Q-Chem 5.0, Q-Chem, Inc., Pleasanton, CA (2017)
 Q-Chem 5.0.1 for Intel X86 EM64T Linux

User input:
--------------------------------------------------------------

$rem
threads 8
jobtype opt
method PBEh-3c
basis def2-mSVP
scf_guess	read
mem_static      1024
mem_total       8000
sym_ignore      true
unrestricted true
mom_start       1
scf_algorithm	diis
scf_max_cycles	250
solvent_method	pcm
geom_opt_tol_energy 25
geom_opt_tol_gradient 75
$end

$solvent
dielectric      1.0001
$end

$pcm
theory iefpcm
$end

$occupied
1 2 3 4 5 6 7 8 9 10 11 12 13 14 15 16 17 18 19 20 21 22 23 24 25 26 27 28 29 30 31 32 33 34 35 36 37 38 39 40 41 42 43 44 45 46 47 48 49 50 51 52 53 54 55 56 57 58 59 60 61 62 63 64 65 66 67 68 69 70 71 72 73 74 75 76 77 78 79 80 81 82 83 84 85 86 87 88 89 90 91 92 93 94 95 96 97 98 99 100 101 102 103 104 105 106 107 108 109 110 111 112 113 114 115 116 117 118 119 120 121 122 123 124 125 126 127 128 129 130 131 132 133 134 135 136 137 138 139 140 141 142 143 144 145 146 147 148 149 150 151 152 153 154 155 156 157 158 159 160 161 162 163 164 165 166 167 168 169 170 171 172 173 174 175 176 177 178 179 180 181 182 183 184 185 186 187 188 189 190 191 192 193 194 195 196 197 198 199 200 201 202 203 204 205 206 207 208 209 210 211 212 213 214 215 216 217 218 219 220 221 222 223 224 225 226 227 228 229 230 231 232 233 234 235 236 237 238 239 240 241 242 243 244 245 246 247 248 249 250 251  253
1 2 3 4 5 6 7 8 9 10 11 12 13 14 15 16 17 18 19 20 21 22 23 24 25 26 27 28 29 30 31 32 33 34 35 36 37 38 39 40 41 42 43 44 45 46 47 48 49 50 51 52 53 54 55 56 57 58 59 60 61 62 63 64 65 66 67 68 69 70 71 72 73 74 75 76 77 78 79 80 81 82 83 84 85 86 87 88 89 90 91 92 93 94 95 96 97 98 99 100 101 102 103 104 105 106 107 108 109 110 111 112 113 114 115 116 117 118 119 120 121 122 123 124 125 126 127 128 129 130 131 132 133 134 135 136 137 138 139 140 141 142 143 144 145 146 147 148 149 150 151 152 153 154 155 156 157 158 159 160 161 162 163 164 165 166 167 168 169 170 171 172 173 174 175 176 177 178 179 180 181 182 183 184 185 186 187 188 189 190 191 192 193 194 195 196 197 198 199 200 201 202 203 204 205 206 207 208 209 210 211 212 213 214 215 216 217 218 219 220 221 222 223 224 225 226 227 228 229 230 231 232 233 234 235 236 237 238 239 240 241 242 243 244 245 246 247 248 249 250 251 252
$end

$molecule
read incoords.mol
$end

--------------------------------------------------------------

   31   -2925.4320550819      9.76E-09 Convergence criterion met
 Total energy in the final basis set = -2925.43205508
   25   -2925.4378864989      5.52E-09 Convergence criterion met
 Total energy in the final basis set = -2925.43788650
   18   -2925.4388348688      8.98E-09 Convergence criterion met
 Total energy in the final basis set = -2925.43883487
   16   -2925.4390934535      7.19E-09 Convergence criterion met
 Total energy in the final basis set = -2925.43909345
   17   -2925.4385959785      6.96E-09 Convergence criterion met
 Total energy in the final basis set = -2925.43859598
   16   -2925.4381038422      8.34E-09 Convergence criterion met
 Total energy in the final basis set = -2925.43810384
   18   -2925.4363644677      8.31E-09 Convergence criterion met
   15   -2925.4360395803      8.15E-09 Convergence criterion met
 Total energy in the final basis set = -2925.43603958
   14   -2925.4358086864      7.71E-09 Convergence criterion met
 Total energy in the final basis set = -2925.43580869
   11   -2925.4357357466      9.14E-09 Convergence criterion met
 Total energy in the final basis set = -2925.43573575
   11   -2925.4357106673      6.85E-09 Convergence criterion met
 Total energy in the final basis set = -2925.43571067
   11   -2925.4356906077      6.69E-09 Convergence criterion met
 Total energy in the final basis set = -2925.43569061
   10   -2925.4356842489      8.61E-09 Convergence criterion met
 Total energy in the final basis set = -2925.43568425

             Standard Nuclear Orientation (Angstroms)
    I     Atom           X                Y                Z
 ----------------------------------------------------------------
    1      N       0.1091334402    -0.3658075335     0.1413976211
    2      C       0.0864235157    -0.1999016517     1.5407995158
    3      C       1.1998891458    -0.2099796237    -0.6911855917
    4      C       2.4937348688     0.1951230323    -0.3903929947
    5      H       2.7895793743     0.4299465936     0.6232721481
    6      C       3.3916880405     0.2919018667    -1.4387216429
    7      H       4.4072777842     0.6040976375    -1.2337813502
    8      C      -0.9724472354    -0.7664234262    -0.6141905696
    9      C      -2.2685920721    -1.0718445063    -0.2107322480
   10      H      -2.5675773946    -1.0114158803     0.8270512405
   11      C      -3.1712596407    -1.4579707602    -1.1847658388
   12      H      -4.1864574856    -1.6976652936    -0.8958367349
   13      C      -2.8031127803    -1.5464947890    -2.5299786026
   14      H      -3.5354753285    -1.8502145795    -3.2659513187
   15      C      -1.5109232527    -1.2527750450    -2.9219381255
   16      H      -1.2242746813    -1.3287730859    -3.9634793028
   17      C      -0.5842648549    -0.8614227569    -1.9605809087
   18      C       3.0188476123    -0.0011274490    -2.7536627394
   19      H       3.7489688152     0.0858747902    -3.5470065922
   20      C       1.7274236376    -0.3970731057    -3.0458249385
   21      H       1.4358287845    -0.6184389731    -4.0650780079
   22      C       0.8068516767    -0.5035922034    -2.0104325479
   23      C      -0.7972361745     0.7001161432     2.1167882169
   24      H      -1.4305465709     1.3061834216     1.4792087004
   25      C      -0.8778827386     0.8133710991     3.4994570931
   26      C       0.9149580501    -0.9696491356     2.3404566732
   27      H       1.5854871920    -1.6843004005     1.8773065875
   28      C       0.8639411369    -0.8468548812     3.7227328552
   29      C      -0.0456323521     0.0382251637     4.3173761716
   30      C      -1.8649416586     1.7635660724     4.1168049048
   31      H      -2.4369772346     2.3006813900     3.3605109301
   32      H      -1.3677839324     2.5044243952     4.7454910341
   33      H      -2.5752931574     1.2359628325     4.7566992029
   34      C       1.7645302241    -1.6938820669     4.5766104900
   35      H       2.4244278316    -2.3155024136     3.9717625433
   36      H       2.3906405674    -1.0800471532     5.2270000503
   37      H       1.1909640770    -2.3580743097     5.2266236138
   38      B      -0.1446287696     0.1087919542     5.8889170656
   39      C       0.6931075082     1.0991474391     6.6943910888
   40      C       1.4924846751     2.0335938270     6.0179677732
   41      H       1.4980495491     2.0403516846     4.9335842200
   42      C       2.2593233534     2.9230086055     6.7201368578
   43      C       2.2724885995     2.9106698317     8.1699057099
   44      C       1.5078168757     1.9973950028     8.8518089726
   45      H       1.5159904418     1.9659633807     9.9359535847
   46      C       0.6993414486     1.0794451692     8.1513280683
   47      C       3.1806378027     3.9590058794     8.6038086107
   48      C       3.6118651818     4.4371207302     9.8164453787
   49      H       3.2660605217     4.0165779136    10.7518601223
   50      C       3.6812749803     4.5641321537     7.4292006179
   51      C       4.5880951331     5.6196383297     7.4092002856
   52      C       3.1501630176     3.9667258257     6.2677905612
   53      C       3.5372761016     4.4364959790     5.0363795628
   54      H       3.1566883037     4.0103030683     4.1166403368
   55      C       4.5310050445     5.5077856813     9.8260497731
   56      H       4.8711219721     5.8855416373    10.7810998478
   57      C       5.0117102255     6.0896566465     8.6734283209
   58      H       5.7163451154     6.9092246303     8.7382777564
   59      C       4.4552984597     5.5047557514     4.9906681242
   60      H       4.7649738959     5.8805906515     4.0243017839
   61      C       4.9708371233     6.0860497629     6.1288823143
   62      H       5.6735893757     6.9050279916     6.0400289798
   63      C      -1.0528956163    -0.8636980641     6.6413042168
   64      C      -1.8597319619    -1.7675493900     5.9297056393
   65      H      -1.8423816961    -1.7542266769     4.8456654842
   66      C      -2.6453462640    -2.6671903890     6.6007043206
   67      C      -2.6583097925    -2.6899655720     8.0511282112
   68      C      -1.8804977118    -1.8172211911     8.7627905125
   69      H      -1.8903942319    -1.8504824683     9.8455366344
   70      C      -1.0582961833    -0.8875579594     8.0969195358
   71      C      -3.5537469037    -3.7516421276     8.4707610055
   72      C      -3.9656451290    -4.2629092623     9.6780667410
   73      H      -3.6250311647    -3.8569543363    10.6223751202
   74      C      -4.0471285452    -4.3403095833     7.2862752360
   75      C      -4.9285717119    -5.4196936465     7.2553214805
   76      C      -3.5291448834    -3.7155009833     6.1312633309
   77      C      -3.9116109757    -4.1856068322     4.8969806628
   78      H      -3.5417093635    -3.7475717293     3.9786792081
   79      C      -4.8062460549    -5.2740892026     4.8405595978
   80      H      -5.1075864825    -5.6465456103     3.8702401996
   81      C      -5.3056061094    -5.8809361503     5.9721918394
   82      H      -5.9879026511    -6.7166476500     5.8767706268
   83      C      -4.8589248061    -5.3557334393     9.6736202214
   84      H      -5.1804644408    -5.7583570942    10.6252223933
   85      C      -5.3326186864    -5.9258378310     8.5122597727
   86      H      -6.0153349435    -6.7650645400     8.5633426380
   87      B      -0.1437354004     0.0523485483     8.9013732464
   88      C      -0.0995259082    -0.2327967923    10.4524449632
   89      C      -1.1050533178     0.2405604705    11.3048518114
   90      C      -1.3139123062    -0.3654334802    12.5386889262
   91      H      -2.1470658336    -0.0634512966    13.1634572129
   92      C      -0.5163836160    -1.4294237533    12.9315192371
   93      C       0.5585760808    -1.8200138069    12.1489425883
   94      H       1.1894108833    -2.6347387602    12.4850791713
   95      C       0.7674257306    -1.2363121192    10.9059809240
   96      N      -0.8810121648    -2.2224149606    14.0406891202
   97      C      -1.4050556862    -3.4906222005    13.9019908303
   98      C      -0.9742120633    -1.8472700671    15.3629286973
   99      C      -0.5864552520    -0.6586945511    15.9655998723
  100      H      -0.1502989907     0.1467728801    15.3893579567
  101      C      -0.7774499960    -0.5473283971    17.3308160535
  102      H      -0.4856779294     0.3667704471    17.8309777033
  103      C      -1.5663417795    -4.2537947216    12.7489943056
  104      H      -1.2419470952    -3.8935164840    11.7810408889
  105      C      -2.1449169506    -5.5035459489    12.8812894036
  106      H      -2.2752623214    -6.1184565607    11.9994101322
  107      C      -2.5548429457    -5.9884940327    14.1265472901
  108      H      -2.9992180511    -6.9722739924    14.1966054276
  109      C      -2.3948407433    -5.2216685434    15.2659296595
  110      H      -2.7182334891    -5.5986653449    16.2280979327
  111      C      -1.8204611292    -3.9587989240    15.1587442752
  112      C      -1.3346615328    -1.5889363737    18.0786592103
  113      H      -1.4668937893    -1.4665903665    19.1451676559
  114      C      -1.7164817050    -2.7693444838    17.4688431158
  115      H      -2.1474677015    -3.5746518410    18.0504639264
  116      C      -1.5395643147    -2.9057964059    16.0973158612
  117      C       1.8521734408    -1.7649065722    10.0091672714
  118      H       2.5251139742    -2.4349912308    10.5437668407
  119      H       2.4510185206    -0.9611417317     9.5798893824
  120      H       1.4308908743    -2.3261271576     9.1711866858
  121      C      -2.0460534829     1.3096339734    10.8248116506
  122      H      -2.7017479985     1.6604430359    11.6212702432
  123      H      -1.5064811614     2.1718453041    10.4308805627
  124      H      -2.6805240565     0.9385503906    10.0160436531
 ----------------------------------------------------------------

    9   -2925.4356831513      7.83E-09 Convergence criterion met
 Total energy in the final basis set = -2925.43568315
 Final energy is   -2925.43568315129
 **  OPTIMIZATION CONVERGED  **

                    Orbital Energies (a.u.)
 --------------------------------------------------------------

 Alpha MOs
 -- Occupied --
-14.685 -14.685 -10.487 -10.487 -10.483 -10.483 -10.482 -10.482
-10.481 -10.481 -10.481 -10.479 -10.476 -10.475 -10.475 -10.474
-10.474 -10.474 -10.473 -10.473 -10.473 -10.472 -10.472 -10.472
-10.472 -10.471 -10.470 -10.469 -10.469 -10.468 -10.467 -10.465
-10.463 -10.462 -10.461 -10.460 -10.456 -10.455 -10.455 -10.455
-10.453 -10.451 -10.451 -10.449 -10.447 -10.446 -10.445 -10.445
-10.445 -10.444 -10.444 -10.444 -10.444 -10.443 -10.443 -10.443
-10.443 -10.443 -10.442 -10.442 -10.442 -10.442 -10.442 -10.441
-10.438 -10.436 -10.435 -10.435 -10.430 -10.429 -10.428 -10.428
-10.424 -10.423  -6.923  -6.920  -1.107  -1.105  -1.028  -1.027
 -0.974  -0.972  -0.969  -0.968  -0.948  -0.946  -0.944  -0.944
 -0.943  -0.942  -0.916  -0.908  -0.885  -0.883  -0.876  -0.876
 -0.870  -0.869  -0.858  -0.858  -0.851  -0.849  -0.843  -0.841
 -0.827  -0.824  -0.823  -0.808  -0.807  -0.806  -0.805  -0.805
 -0.771  -0.770  -0.768  -0.767  -0.745  -0.743  -0.740  -0.730
 -0.728  -0.727  -0.699  -0.698  -0.692  -0.689  -0.685  -0.683
 -0.681  -0.677  -0.657  -0.654  -0.653  -0.652  -0.646  -0.644
 -0.641  -0.640  -0.608  -0.603  -0.601  -0.599  -0.593  -0.592
 -0.590  -0.586  -0.586  -0.585  -0.584  -0.571  -0.570  -0.553
 -0.553  -0.552  -0.551  -0.545  -0.538  -0.535  -0.528  -0.521
 -0.519  -0.518  -0.517  -0.516  -0.513  -0.511  -0.505  -0.503
 -0.499  -0.497  -0.497  -0.497  -0.493  -0.493  -0.492  -0.492
 -0.489  -0.488  -0.486  -0.485  -0.483  -0.479  -0.478  -0.477
 -0.476  -0.475  -0.474  -0.472  -0.468  -0.467  -0.465  -0.464
 -0.463  -0.462  -0.452  -0.448  -0.443  -0.441  -0.439  -0.435
 -0.430  -0.427  -0.426  -0.423  -0.422  -0.420  -0.419  -0.415
 -0.411  -0.410  -0.409  -0.406  -0.406  -0.406  -0.404  -0.403
 -0.402  -0.399  -0.395  -0.394  -0.391  -0.390  -0.389  -0.387
 -0.386  -0.374  -0.371  -0.369  -0.360  -0.354  -0.347  -0.340
 -0.337  -0.331  -0.326  -0.324  -0.307  -0.305  -0.296  -0.294
 -0.282  -0.281  -0.280  -0.279  -0.275  -0.272  -0.266  -0.251
 -0.248  -0.236  -0.232  -0.172

 Beta MOs
 -- Occupied --
-14.685 -14.685 -10.487 -10.487 -10.484 -10.484 -10.483 -10.483
-10.482 -10.481 -10.481 -10.480 -10.476 -10.476 -10.475 -10.474
-10.474 -10.474 -10.473 -10.472 -10.472 -10.472 -10.472 -10.471
-10.471 -10.471 -10.470 -10.469 -10.469 -10.469 -10.469 -10.466
-10.462 -10.461 -10.460 -10.459 -10.456 -10.455 -10.455 -10.455
-10.454 -10.453 -10.453 -10.451 -10.447 -10.446 -10.445 -10.445
-10.445 -10.444 -10.444 -10.444 -10.444 -10.443 -10.443 -10.443
-10.443 -10.443 -10.443 -10.442 -10.442 -10.442 -10.442 -10.441
-10.438 -10.436 -10.435 -10.435 -10.430 -10.429 -10.428 -10.428
-10.424 -10.424  -6.919  -6.917  -1.107  -1.105  -1.031  -1.030
 -0.975  -0.972  -0.971  -0.970  -0.948  -0.946  -0.944  -0.944
 -0.943  -0.941  -0.919  -0.911  -0.885  -0.883  -0.876  -0.875
 -0.870  -0.868  -0.858  -0.857  -0.851  -0.849  -0.843  -0.841
 -0.831  -0.824  -0.822  -0.814  -0.807  -0.806  -0.805  -0.805
 -0.771  -0.770  -0.768  -0.767  -0.745  -0.742  -0.739  -0.731
 -0.728  -0.727  -0.700  -0.697  -0.691  -0.690  -0.685  -0.683
 -0.681  -0.678  -0.658  -0.655  -0.653  -0.652  -0.646  -0.643
 -0.641  -0.640  -0.606  -0.603  -0.600  -0.598  -0.593  -0.591
 -0.590  -0.586  -0.586  -0.584  -0.584  -0.571  -0.570  -0.554
 -0.552  -0.551  -0.551  -0.545  -0.538  -0.535  -0.527  -0.520
 -0.519  -0.518  -0.517  -0.516  -0.513  -0.510  -0.505  -0.503
 -0.500  -0.499  -0.498  -0.497  -0.497  -0.497  -0.493  -0.492
 -0.490  -0.488  -0.486  -0.485  -0.483  -0.479  -0.478  -0.477
 -0.476  -0.476  -0.474  -0.471  -0.468  -0.467  -0.465  -0.463
 -0.462  -0.461  -0.452  -0.449  -0.444  -0.443  -0.441  -0.435
 -0.434  -0.429  -0.427  -0.423  -0.422  -0.420  -0.419  -0.415
 -0.411  -0.410  -0.409  -0.406  -0.405  -0.405  -0.404  -0.403
 -0.402  -0.399  -0.395  -0.394  -0.391  -0.390  -0.389  -0.387
 -0.386  -0.379  -0.372  -0.371  -0.362  -0.359  -0.353  -0.340
 -0.333  -0.328  -0.326  -0.324  -0.306  -0.306  -0.296  -0.294
 -0.292  -0.282  -0.281  -0.280  -0.279  -0.270  -0.270  -0.264
 -0.251  -0.248  -0.236  -0.233

          Ground-State Mulliken Net Atomic Charges

     Atom                 Charge (a.u.)    Spin (a.u.)
  --------------------------------------------------------
      1 N                    -0.739726      -0.000107
      2 C                     0.319082       0.001595
      3 C                     0.345755       0.000037
      4 C                    -0.280505      -0.000009
      5 H                     0.234623      -0.000000
      6 C                    -0.236410       0.000007
      7 H                     0.215460      -0.000000
      8 C                     0.337544       0.000041
      9 C                    -0.280272      -0.000009
     10 H                     0.234552      -0.000000
     11 C                    -0.234880       0.000006
     12 H                     0.214096      -0.000000
     13 C                    -0.228794      -0.000004
     14 H                     0.213615       0.000000
     15 C                    -0.344124      -0.000003
     16 H                     0.204469       0.000001
     17 C                     0.100799       0.000004
     18 C                    -0.229155      -0.000007
     19 H                     0.213744       0.000000
     20 C                    -0.341951      -0.000002
     21 H                     0.204756       0.000000
     22 C                     0.086188       0.000001
     23 C                    -0.353181      -0.001550
     24 H                     0.234711       0.000460
     25 C                     0.048014       0.005140
     26 C                    -0.354187      -0.001670
     27 H                     0.233617       0.000433
     28 C                     0.044486       0.005386
     29 C                    -0.203099      -0.031961
     30 C                    -0.747038      -0.000395
     31 H                     0.234542       0.001478
     32 H                     0.243515      -0.000689
     33 H                     0.242135      -0.000761
     34 C                    -0.753111      -0.000786
     35 H                     0.236263       0.001682
     36 H                     0.244295      -0.000851
     37 H                     0.244294      -0.000704
     38 B                     0.588384       0.355537
     39 C                    -0.115074      -0.121662
     40 C                    -0.386952       0.049616
     41 H                     0.235124      -0.002516
     42 C                     0.095216      -0.064995
     43 C                     0.117022      -0.077999
     44 C                    -0.403134       0.061333
     45 H                     0.226783      -0.003112
     46 C                    -0.119016      -0.143278
     47 C                     0.200166      -0.011602
     48 C                    -0.380532       0.054119
     49 H                     0.222900      -0.003094
     50 C                    -0.059803      -0.084367
     51 C                     0.255109      -0.001920
     52 C                     0.199439      -0.015989
     53 C                    -0.372464       0.057296
     54 H                     0.225327      -0.003262
     55 C                    -0.202177      -0.027773
     56 H                     0.231497       0.001380
     57 C                    -0.336878       0.031797
     58 H                     0.225056      -0.001873
     59 C                    -0.205072      -0.029273
     60 H                     0.232740       0.001451
     61 C                    -0.332948       0.033906
     62 H                     0.224841      -0.002015
     63 C                    -0.126236      -0.146929
     64 C                    -0.389194       0.068695
     65 H                     0.236755      -0.003361
     66 C                     0.102483      -0.096317
     67 C                     0.109619      -0.086432
     68 C                    -0.385467       0.065528
     69 H                     0.242995      -0.003291
     70 C                    -0.104937      -0.147730
     71 C                     0.209042      -0.006660
     72 C                    -0.392005       0.048168
     73 H                     0.248913      -0.002750
     74 C                    -0.059830      -0.098543
     75 C                     0.251274       0.005789
     76 C                     0.200000      -0.004845
     77 C                    -0.373976       0.044476
     78 H                     0.225968      -0.002498
     79 C                    -0.204452      -0.020741
     80 H                     0.233863       0.001045
     81 C                    -0.331741       0.019508
     82 H                     0.226111      -0.001160
     83 C                    -0.210597      -0.022157
     84 H                     0.239303       0.001087
     85 C                    -0.333812       0.023464
     86 H                     0.225593      -0.001392
     87 B                     0.567710       0.361818
     88 C                    -0.199772      -0.033518
     89 C                     0.041390       0.005935
     90 C                    -0.315906      -0.001148
     91 H                     0.230791       0.000434
     92 C                     0.276147       0.001514
     93 C                    -0.339009      -0.000974
     94 H                     0.232392       0.000381
     95 C                     0.040712       0.005361
     96 N                    -0.730051      -0.000127
     97 C                     0.332740       0.000070
     98 C                     0.351449       0.000038
     99 C                    -0.282157      -0.000011
    100 H                     0.234569       0.000001
    101 C                    -0.237614       0.000002
    102 H                     0.216759       0.000000
    103 C                    -0.288246       0.000034
    104 H                     0.243386      -0.000006
    105 C                    -0.247369       0.000019
    106 H                     0.221860       0.000036
    107 C                    -0.227188      -0.000019
    108 H                     0.213556       0.000001
    109 C                    -0.348249       0.000024
    110 H                     0.205436       0.000000
    111 C                     0.110465      -0.000018
    112 C                    -0.228953      -0.000007
    113 H                     0.214337       0.000000
    114 C                    -0.343574      -0.000010
    115 H                     0.204804       0.000001
    116 C                     0.086416       0.000004
    117 C                    -0.750512      -0.001128
    118 H                     0.237117       0.001814
    119 H                     0.245167      -0.000802
    120 H                     0.244414      -0.000839
    121 C                    -0.741533      -0.000479
    122 H                     0.234325       0.001528
    123 H                     0.240000      -0.000748
    124 H                     0.244843      -0.000598
  --------------------------------------------------------
  Sum of atomic charges =    -0.000000

                    Cartesian Multipole Moments
 -----------------------------------------------------------------
    Charge (ESU x 10^10)
                -0.0000
    Dipole Moment (Debye)
         X      -0.0255      Y       1.1180      Z       0.4499
       Tot       1.2054
    Quadrupole Moments (Debye-Ang)
        XX    -400.9134     XY      46.1197     YY    -394.0221
        XZ       1.0183     YZ      18.7727     ZZ    -443.3346

 Total job time:  66852.74s(wall), 208083.56s(cpu)
        *  Thank you very much for using Q-Chem.  Have a nice day.  *
