 Q-Chem 5.0, Q-Chem, Inc., Pleasanton, CA (2017)
 Q-Chem 5.0.1 for Intel X86 EM64T Linux

User input:
--------------------------------------------------------------
$rem
threads 8
jobtype	sp
method PBEh-3c
basis def2-mSVP
mem_static	1024
mem_total	8000
sym_ignore	true
unrestricted true
scf_convergence	9
solvent_method	pcm
$end

$molecule
read incoords.mol
$end

$solvent
dielectric	4.33
$end

$pcm
theory iefpcm
$end
--------------------------------------------------------------

   17   -2925.5513034116      4.36E-10 Convergence criterion met
 Total energy in the final basis set = -2925.55130341
 Total job time:  3896.63s(wall), 11910.96s(cpu)
        *  Thank you very much for using Q-Chem.  Have a nice day.  *
 Q-Chem 5.0, Q-Chem, Inc., Pleasanton, CA (2017)
 Q-Chem 5.0.1 for Intel X86 EM64T Linux

User input:
--------------------------------------------------------------

$rem
threads 8
jobtype opt
method PBEh-3c
basis def2-mSVP
scf_guess	read
mem_static      1024
mem_total       8000
sym_ignore      true
unrestricted true
mom_start       1
scf_algorithm	diis
scf_max_cycles	250
solvent_method	pcm
geom_opt_tol_energy 25
geom_opt_tol_gradient 75
$end

$solvent
dielectric      4.33
$end

$pcm
theory iefpcm
$end

$occupied
1 2 3 4 5 6 7 8 9 10 11 12 13 14 15 16 17 18 19 20 21 22 23 24 25 26 27 28 29 30 31 32 33 34 35 36 37 38 39 40 41 42 43 44 45 46 47 48 49 50 51 52 53 54 55 56 57 58 59 60 61 62 63 64 65 66 67 68 69 70 71 72 73 74 75 76 77 78 79 80 81 82 83 84 85 86 87 88 89 90 91 92 93 94 95 96 97 98 99 100 101 102 103 104 105 106 107 108 109 110 111 112 113 114 115 116 117 118 119 120 121 122 123 124 125 126 127 128 129 130 131 132 133 134 135 136 137 138 139 140 141 142 143 144 145 146 147 148 149 150 151 152 153 154 155 156 157 158 159 160 161 162 163 164 165 166 167 168 169 170 171 172 173 174 175 176 177 178 179 180 181 182 183 184 185 186 187 188 189 190 191 192 193 194 195 196 197 198 199 200 201 202 203 204 205 206 207 208 209 210 211 212 213 214 215 216 217 218 219 220 221 222 223 224 225 226 227 228 229 230 231 232 233 234 235 236 237 238 239 240 241 242 243 244 245 246 247 248 249 250 251  253
1 2 3 4 5 6 7 8 9 10 11 12 13 14 15 16 17 18 19 20 21 22 23 24 25 26 27 28 29 30 31 32 33 34 35 36 37 38 39 40 41 42 43 44 45 46 47 48 49 50 51 52 53 54 55 56 57 58 59 60 61 62 63 64 65 66 67 68 69 70 71 72 73 74 75 76 77 78 79 80 81 82 83 84 85 86 87 88 89 90 91 92 93 94 95 96 97 98 99 100 101 102 103 104 105 106 107 108 109 110 111 112 113 114 115 116 117 118 119 120 121 122 123 124 125 126 127 128 129 130 131 132 133 134 135 136 137 138 139 140 141 142 143 144 145 146 147 148 149 150 151 152 153 154 155 156 157 158 159 160 161 162 163 164 165 166 167 168 169 170 171 172 173 174 175 176 177 178 179 180 181 182 183 184 185 186 187 188 189 190 191 192 193 194 195 196 197 198 199 200 201 202 203 204 205 206 207 208 209 210 211 212 213 214 215 216 217 218 219 220 221 222 223 224 225 226 227 228 229 230 231 232 233 234 235 236 237 238 239 240 241 242 243 244 245 246 247 248 249 250 251 252
$end

$molecule
read incoords.mol
$end

--------------------------------------------------------------

   20   -2925.4707157973      8.42E-09 Convergence criterion met
 Total energy in the final basis set = -2925.47071580
   17   -2925.4706823784      9.48E-09 Convergence criterion met
 Total energy in the final basis set = -2925.47068238
   17   -2925.4702360772      9.92E-09 Convergence criterion met
 Total energy in the final basis set = -2925.47023608
   17   -2925.4696080219      9.18E-09 Convergence criterion met
 Total energy in the final basis set = -2925.46960802
   17   -2925.4696541408      9.51E-09 Convergence criterion met
 Total energy in the final basis set = -2925.46965414
   17   -2925.4693717050      9.47E-09 Convergence criterion met
 Total energy in the final basis set = -2925.46937171
   17   -2925.4688367377      9.72E-09 Convergence criterion met
 Total energy in the final basis set = -2925.46481873
   17   -2925.4665619526      7.40E-09 Convergence criterion met
 Total energy in the final basis set = -2925.46656195
   18   -2925.4675915607      7.32E-09 Convergence criterion met
 Total energy in the final basis set = -2925.46759156
   17   -2925.4681426280      8.87E-09 Convergence criterion met
 Total energy in the final basis set = -2925.46814263
   17   -2925.4662230755      8.57E-09 Convergence criterion met
 Total energy in the final basis set = -2925.46622308
   18   -2925.4674675745      6.98E-09 Convergence criterion met
 Total energy in the final basis set = -2925.46746757
   17   -2925.4672612765      9.70E-09 Convergence criterion met
 Total energy in the final basis set = -2925.46726128
   18   -2925.4661572279      8.06E-09 Convergence criterion met
 Total energy in the final basis set = -2925.46615723

                    Orbital Energies (a.u.)
 --------------------------------------------------------------

 Alpha MOs
 -- Occupied --
-14.774 -14.683 -10.540 -10.533 -10.532 -10.495 -10.495 -10.491
-10.491 -10.486 -10.486 -10.484 -10.484 -10.482 -10.481 -10.481
-10.481 -10.480 -10.480 -10.480 -10.480 -10.478 -10.461 -10.455
-10.454 -10.452 -10.451 -10.451 -10.450 -10.450 -10.450 -10.449
-10.449 -10.449 -10.449 -10.449 -10.448 -10.448 -10.448 -10.447
-10.447 -10.446 -10.445 -10.445 -10.445 -10.445 -10.445 -10.443
-10.443 -10.442 -10.442 -10.442 -10.441 -10.440 -10.440 -10.437
-10.437 -10.436 -10.436 -10.436 -10.436 -10.436 -10.436 -10.436
-10.434 -10.434 -10.433 -10.417 -10.416 -10.413 -10.412 -10.411
-10.409 -10.409  -6.905  -6.903  -1.164  -1.105  -1.015  -1.001
 -1.001  -0.993  -0.979  -0.967  -0.947  -0.945  -0.942  -0.938
 -0.926  -0.921  -0.921  -0.904  -0.892  -0.887  -0.886  -0.882
 -0.881  -0.865  -0.851  -0.848  -0.843  -0.841  -0.838  -0.837
 -0.835  -0.835  -0.806  -0.806  -0.802  -0.797  -0.797  -0.792
 -0.787  -0.786  -0.768  -0.759  -0.758  -0.735  -0.730  -0.726
 -0.719  -0.715  -0.714  -0.705  -0.693  -0.689  -0.683  -0.681
 -0.675  -0.668  -0.665  -0.661  -0.649  -0.649  -0.638  -0.637
 -0.631  -0.630  -0.627  -0.627  -0.612  -0.589  -0.587  -0.583
 -0.581  -0.579  -0.579  -0.576  -0.569  -0.568  -0.566  -0.561
 -0.560  -0.557  -0.550  -0.545  -0.542  -0.537  -0.535  -0.529
 -0.528  -0.524  -0.518  -0.515  -0.515  -0.513  -0.512  -0.505
 -0.497  -0.495  -0.494  -0.493  -0.491  -0.490  -0.487  -0.486
 -0.483  -0.481  -0.477  -0.476  -0.475  -0.474  -0.474  -0.473
 -0.472  -0.470  -0.466  -0.461  -0.460  -0.458  -0.457  -0.456
 -0.455  -0.453  -0.451  -0.448  -0.448  -0.446  -0.441  -0.438
 -0.433  -0.429  -0.428  -0.428  -0.426  -0.423  -0.419  -0.418
 -0.415  -0.412  -0.411  -0.410  -0.410  -0.400  -0.394  -0.393
 -0.390  -0.387  -0.386  -0.386  -0.385  -0.384  -0.382  -0.378
 -0.374  -0.369  -0.362  -0.359  -0.358  -0.352  -0.336  -0.330
 -0.327  -0.327  -0.323  -0.310  -0.310  -0.303  -0.297  -0.296
 -0.292  -0.288  -0.286  -0.272  -0.272  -0.268  -0.255  -0.251
 -0.244  -0.241  -0.236  -0.152

 Beta MOs
 -- Occupied --
-14.783 -14.683 -10.541 -10.531 -10.531 -10.497 -10.496 -10.493
-10.493 -10.486 -10.485 -10.484 -10.483 -10.483 -10.483 -10.482
-10.482 -10.481 -10.481 -10.479 -10.479 -10.478 -10.465 -10.455
-10.454 -10.452 -10.451 -10.450 -10.450 -10.450 -10.450 -10.450
-10.449 -10.448 -10.448 -10.448 -10.448 -10.448 -10.447 -10.447
-10.446 -10.446 -10.445 -10.445 -10.445 -10.445 -10.445 -10.443
-10.443 -10.442 -10.442 -10.441 -10.440 -10.440 -10.439 -10.437
-10.437 -10.436 -10.436 -10.436 -10.436 -10.436 -10.436 -10.436
-10.434 -10.434 -10.434 -10.417 -10.416 -10.414 -10.412 -10.412
-10.409 -10.408  -6.901  -6.901  -1.178  -1.105  -1.019  -1.001
 -1.001  -0.995  -0.984  -0.967  -0.947  -0.943  -0.941  -0.937
 -0.930  -0.920  -0.920  -0.905  -0.894  -0.889  -0.888  -0.882
 -0.881  -0.865  -0.851  -0.850  -0.847  -0.841  -0.837  -0.837
 -0.834  -0.834  -0.806  -0.805  -0.801  -0.797  -0.796  -0.795
 -0.789  -0.785  -0.772  -0.759  -0.758  -0.736  -0.734  -0.726
 -0.718  -0.713  -0.712  -0.705  -0.695  -0.688  -0.683  -0.682
 -0.674  -0.670  -0.665  -0.658  -0.649  -0.648  -0.637  -0.637
 -0.631  -0.630  -0.629  -0.629  -0.614  -0.591  -0.588  -0.587
 -0.583  -0.580  -0.579  -0.574  -0.569  -0.568  -0.565  -0.562
 -0.560  -0.560  -0.551  -0.549  -0.544  -0.538  -0.534  -0.530
 -0.529  -0.528  -0.518  -0.515  -0.515  -0.513  -0.512  -0.503
 -0.500  -0.495  -0.494  -0.494  -0.491  -0.490  -0.486  -0.486
 -0.483  -0.481  -0.476  -0.476  -0.474  -0.474  -0.474  -0.471
 -0.471  -0.470  -0.466  -0.461  -0.460  -0.460  -0.459  -0.458
 -0.456  -0.455  -0.454  -0.453  -0.451  -0.446  -0.440  -0.440
 -0.434  -0.430  -0.428  -0.428  -0.425  -0.421  -0.419  -0.418
 -0.416  -0.412  -0.411  -0.411  -0.408  -0.407  -0.399  -0.393
 -0.390  -0.387  -0.385  -0.383  -0.383  -0.383  -0.382  -0.378
 -0.374  -0.371  -0.368  -0.359  -0.352  -0.350  -0.340  -0.335
 -0.335  -0.327  -0.322  -0.314  -0.314  -0.304  -0.299  -0.296
 -0.294  -0.284  -0.284  -0.284  -0.272  -0.267  -0.261  -0.251
 -0.247  -0.242  -0.236  -0.234

          Ground-State Mulliken Net Atomic Charges

     Atom                 Charge (a.u.)    Spin (a.u.)
  --------------------------------------------------------
      1 N                    -0.677129      -0.327009
      2 C                     0.364738      -0.039182
      3 C                     0.337236       0.099259
      4 C                    -0.259405      -0.157139
      5 H                     0.297718       0.008304
      6 C                    -0.249622       0.092243
      7 H                     0.272194      -0.004154
      8 C                     0.328001       0.099031
      9 C                    -0.258901      -0.158976
     10 H                     0.299097       0.008519
     11 C                    -0.248233       0.092429
     12 H                     0.272293      -0.004168
     13 C                    -0.222142      -0.152729
     14 H                     0.271469       0.008402
     15 C                    -0.349110       0.046076
     16 H                     0.260270      -0.002364
     17 C                     0.115877      -0.081554
     18 C                    -0.222426      -0.152182
     19 H                     0.271192       0.008378
     20 C                    -0.347221       0.046574
     21 H                     0.260491      -0.002390
     22 C                     0.102593      -0.081424
     23 C                    -0.369878      -0.103786
     24 H                     0.293998       0.006219
     25 C                     0.049168       0.079973
     26 C                    -0.372837      -0.102558
     27 H                     0.289984       0.006285
     28 C                     0.031348       0.082098
     29 C                    -0.139323      -0.311575
     30 C                    -0.754137      -0.005153
     31 H                     0.246943       0.002389
     32 H                     0.266553       0.001284
     33 H                     0.268121      -0.000340
     34 C                    -0.760120      -0.005022
     35 H                     0.248250       0.002515
     36 H                     0.268536      -0.000194
     37 H                     0.271185       0.000962
     38 B                     0.547322       0.357027
     39 C                    -0.132817       0.003242
     40 C                    -0.405716      -0.020521
     41 H                     0.207621       0.000744
     42 C                     0.060095       0.045796
     43 C                     0.080318       0.089754
     44 C                    -0.417985      -0.055680
     45 H                     0.220788       0.002114
     46 C                    -0.146322       0.059120
     47 C                     0.178790      -0.057538
     48 C                    -0.407857       0.085966
     49 H                     0.236254      -0.005027
     50 C                    -0.077103       0.024115
     51 C                     0.228959      -0.039065
     52 C                     0.179940      -0.047399
     53 C                    -0.402113       0.073406
     54 H                     0.227347      -0.004320
     55 C                    -0.224252      -0.053929
     56 H                     0.241852       0.002607
     57 C                    -0.361647       0.078453
     58 H                     0.236882      -0.004613
     59 C                    -0.227265      -0.048119
     60 H                     0.239289       0.002359
     61 C                    -0.357649       0.068523
     62 H                     0.236727      -0.003999
     63 C                    -0.141639      -0.003872
     64 C                    -0.405931      -0.013736
     65 H                     0.204928       0.000668
     66 C                     0.066393       0.036272
     67 C                     0.076264       0.088925
     68 C                    -0.401657      -0.057156
     69 H                     0.230803       0.002213
     70 C                    -0.136202       0.063918
     71 C                     0.188232      -0.055224
     72 C                    -0.414403       0.081922
     73 H                     0.243415      -0.004898
     74 C                    -0.079315       0.022480
     75 C                     0.226441      -0.036226
     76 C                     0.180518      -0.042444
     77 C                    -0.404373       0.065921
     78 H                     0.224906      -0.003904
     79 C                    -0.226203      -0.043625
     80 H                     0.239006       0.002148
     81 C                    -0.356952       0.061175
     82 H                     0.237510      -0.003559
     83 C                    -0.227773      -0.050864
     84 H                     0.244446       0.002453
     85 C                    -0.360073       0.074285
     86 H                     0.237199      -0.004368
     87 B                     0.550022       0.281671
     88 C                    -0.178814      -0.024778
     89 C                     0.027812       0.004138
     90 C                    -0.326721      -0.000758
     91 H                     0.240694       0.000354
     92 C                     0.261105       0.000830
     93 C                    -0.344285      -0.000448
     94 H                     0.241400       0.000288
     95 C                     0.023980       0.003117
     96 N                    -0.724262      -0.000049
     97 C                     0.332256       0.000031
     98 C                     0.348827       0.000012
     99 C                    -0.301252       0.000007
    100 H                     0.253697      -0.000000
    101 C                    -0.261476      -0.000004
    102 H                     0.239090       0.000000
    103 C                    -0.298984       0.000061
    104 H                     0.262547      -0.000031
    105 C                    -0.264262       0.000001
    106 H                     0.242820       0.000056
    107 C                    -0.252818       0.000006
    108 H                     0.234538      -0.000001
    109 C                    -0.364730       0.000001
    110 H                     0.229530       0.000001
    111 C                     0.089983       0.000001
    112 C                    -0.255576       0.000005
    113 H                     0.234659      -0.000000
    114 C                    -0.361050      -0.000004
    115 H                     0.230060       0.000000
    116 C                     0.069010       0.000002
    117 C                    -0.761719       0.000348
    118 H                     0.241142       0.001596
    119 H                     0.248165      -0.000713
    120 H                     0.249727      -0.000951
    121 C                    -0.752273       0.000463
    122 H                     0.239000       0.001405
    123 H                     0.244579      -0.000639
    124 H                     0.249809      -0.000578
  --------------------------------------------------------
  Sum of atomic charges =    -0.000000

                    Cartesian Multipole Moments
 -----------------------------------------------------------------
    Charge (ESU x 10^10)
                -0.0000
    Dipole Moment (Debye)
         X       1.9039      Y      -0.9472      Z     -30.1022
       Tot      30.1772
    Quadrupole Moments (Debye-Ang)
        XX    -414.8087     XY       3.9988     YY    -441.6796
        XZ      13.4968     YZ      27.1863     ZZ    -663.5624

             Standard Nuclear Orientation (Angstroms)
    I     Atom           X                Y                Z
 ----------------------------------------------------------------
    1      N       0.1522375872    -0.4304421622     0.1953347320
    2      C       0.1044263205    -0.2182306974     1.5567335389
    3      C       1.3001266556    -0.4795983769    -0.5975114648
    4      C       2.6206820218    -0.2304844956    -0.2522474000
    5      H       2.9173898729     0.0261880764     0.7545400096
    6      C       3.5630049558    -0.3004361358    -1.2692153282
    7      H       4.6030268219    -0.1216653884    -1.0347086210
    8      C      -0.9615576620    -0.6564918912    -0.6105496162
    9      C      -2.2952210914    -0.8036521466    -0.2464858075
   10      H      -2.6286888502    -0.7367139008     0.7790349942
   11      C      -3.2062879801    -1.0705382721    -1.2584412809
   12      H      -4.2523086359    -1.1804418118    -1.0075443002
   13      C      -2.7957399231    -1.2171397492    -2.5800649202
   14      H      -3.5293711712    -1.4314109364    -3.3453528442
   15      C      -1.4497224594    -1.1190449514    -2.9256927578
   16      H      -1.1336066992    -1.2703850708    -3.9494709117
   17      C      -0.5328074758    -0.8422407139    -1.9320234710
   18      C       3.1925358617    -0.5776137761    -2.5822486180
   19      H       3.9516519712    -0.6181227599    -3.3514225413
   20      C       1.8574346000    -0.7800087155    -2.9246669876
   21      H       1.5722599385    -0.9623120672    -3.9525207451
   22      C       0.9107225138    -0.7268042109    -1.9243319437
   23      C      -0.8840463037     0.6204625464     2.0950389288
   24      H      -1.5359629661     1.1768218102     1.4330429094
   25      C      -0.9718765831     0.7897457815     3.4584634882
   26      C       1.0185477524    -0.8719487308     2.3939624720
   27      H       1.7386143510    -1.5595910797     1.9690066601
   28      C       0.9172964978    -0.7322699914     3.7598645014
   29      C      -0.0896147954     0.0932343557     4.3176854457
   30      C      -2.0010214260     1.7071657713     4.0431818029
   31      H      -2.5934464747     2.1970597335     3.2713804187
   32      H      -1.5326044575     2.4783262955     4.6562170761
   33      H      -2.6802758202     1.1578110429     4.6975730456
   34      C       1.8454935101    -1.4881318254     4.6601351496
   35      H       2.5524569530    -2.0931528253     4.0936483039
   36      H       2.4112327025    -0.8039401235     5.2939704409
   37      H       1.2912300111    -2.1490323034     5.3284437650
   38      B      -0.2382535347     0.1686923782     5.8877233923
   39      C       0.5805352708     1.1705667738     6.6968055609
   40      C       1.3768244709     2.1344726372     6.0470142414
   41      H       1.3938098042     2.1770604951     4.9615392945
   42      C       2.1329662531     3.0183432421     6.7717257219
   43      C       2.1374712074     2.9713093427     8.1986735369
   44      C       1.3719889505     2.0304208518     8.8508925626
   45      H       1.3755801136     1.9781533133     9.9355334417
   46      C       0.5752199049     1.1180612115     8.1261171236
   47      C       3.0411554377     4.0205322818     8.6714225350
   48      C       3.4653869898     4.4702801567     9.8969434026
   49      H       3.1183700131     4.0245186345    10.8208716095
   50      C       3.5463831307     4.6611785344     7.5184515032
   51      C       4.4473791682     5.7218486234     7.5305038764
   52      C       3.0245390532     4.0874702541     6.3425130046
   53      C       3.4172801497     4.5916635284     5.1274462202
   54      H       3.0461127101     4.1874405517     4.1931310780
   55      C       4.3817124033     5.5478145003     9.9409879014
   56      H       4.7138246855     5.8996302982    10.9094351829
   57      C       4.8657373323     6.1644798738     8.8090381558
   58      H       5.5660930560     6.9860473465     8.8972293543
   59      C       4.3310178664     5.6698361887     5.1113981309
   60      H       4.6422197520     6.0704528390     4.1547071635
   61      C       4.8371749881     6.2268358063     6.2647792832
   62      H       5.5354396237     7.0526521487     6.2027632423
   63      C      -1.1452952528    -0.8415463682     6.5866204203
   64      C      -1.9351887163    -1.7507304134     5.8495537369
   65      H      -1.9152367850    -1.7262980886     4.7638480139
   66      C      -2.7226069445    -2.6717239316     6.4911732143
   67      C      -2.7512096657    -2.7205509572     7.9165576382
   68      C      -1.9837214835    -1.8489286705     8.6493447438
   69      H      -2.0050057684    -1.9038654196     9.7323362381
   70      C      -1.1651860491    -0.8919209791     8.0129364652
   71      C      -3.6505433735    -3.8032829051     8.3127456400
   72      C      -4.0789272171    -4.3385793827     9.5029901891
   73      H      -3.7560656058    -3.9427762794    10.4583865654
   74      C      -4.1289575542    -4.3763837717     7.1155600330
   75      C      -5.0057956189    -5.4583220835     7.0545196864
   76      C      -3.6004850299    -3.7250067252     5.9824524191
   77      C      -3.9703584451    -4.1734192577     4.7374552642
   78      H      -3.5960390114    -3.7158159780     3.8295837670
   79      C      -4.8622403587    -5.2677110305     4.6472781121
   80      H      -5.1514050678    -5.6196138045     3.6647815608
   81      C      -5.3708609553    -5.9005300755     5.7588099527
   82      H      -6.0493406689    -6.7371993323     5.6423481698
   83      C      -4.9699432477    -5.4380859920     9.4710248623
   84      H      -5.3030120068    -5.8562966283    10.4126187394
   85      C      -5.4265947918    -5.9926913258     8.2967244141
   86      H      -6.1067060282    -6.8356323702     8.3227051958
   87      B      -0.2655531865     0.0526433844     8.8384265546
   88      C      -0.2160820106    -0.2571482757    10.3884044058
   89      C      -1.2157320142     0.1992033291    11.2570869004
   90      C      -1.3765307014    -0.3889798492    12.5080327289
   91      H      -2.1992615914    -0.0940877351    13.1501305380
   92      C      -0.5364451654    -1.4191013264    12.9003648931
   93      C       0.5213404692    -1.8051089964    12.0922613470
   94      H       1.1778981839    -2.6029851567    12.4207603821
   95      C       0.6841976252    -1.2352076387    10.8353852624
   96      N      -0.8392044059    -2.1905242708    14.0471377811
   97      C      -1.3842359755    -3.4525288494    13.9682599527
   98      C      -0.7133147763    -1.8438600183    15.3718437237
   99      C      -0.2164133970    -0.6723650471    15.9286399162
  100      H       0.1360135319     0.1400948541    15.3062201032
  101      C      -0.1895357704    -0.5867327301    17.3095551443
  102      H       0.1917715380     0.3134503715    17.7740523896
  103      C      -1.7123322166    -4.1953749238    12.8365453958
  104      H      -1.5409992490    -3.8139592271    11.8378690625
  105      C      -2.2615040631    -5.4500400264    13.0316627255
  106      H      -2.5239550186    -6.0493191766    12.1685832324
  107      C      -2.4812565453    -5.9594195504    14.3168547663
  108      H      -2.9093737353    -6.9464125408    14.4330600814
  109      C      -2.1570131909    -5.2126942635    15.4353139239
  110      H      -2.3323389694    -5.6084868266    16.4281592664
  111      C      -1.6056070462    -3.9446843649    15.2653346035
  112      C      -0.6408754812    -1.6367692473    18.1176821556
  113      H      -0.6030088581    -1.5339105510    19.1940625831
  114      C      -1.1318953868    -2.8009001036    17.5539051099
  115      H      -1.4783005044    -3.6135877662    18.1806907712
  116      C      -1.1724791202    -2.9116392977    16.1680355729
  117      C       1.7643656708    -1.7449875250     9.9224041262
  118      H       2.4314394891    -2.4367375377    10.4368002445
  119      H       2.3671223122    -0.9307782464     9.5183050894
  120      H       1.3365513680    -2.2743019062     9.0673934601
  121      C      -2.1936847860     1.2393215715    10.7865191063
  122      H      -2.8591921292     1.5613585706    11.5872948487
  123      H      -1.6834913469     2.1214030596    10.3968322321
  124      H      -2.8139991751     0.8500128501     9.9757435068
 ----------------------------------------------------------------
