 Q-Chem 5.0, Q-Chem, Inc., Pleasanton, CA (2017)
 Q-Chem 5.0.1 for Intel X86 EM64T Linux

User input:
--------------------------------------------------------------
$rem
threads 8
jobtype	sp
method PBEh-3c
basis def2-mSVP
mem_static	1024
mem_total	8000
sym_ignore	true
unrestricted true
scf_convergence	9
solvent_method	pcm
$end

$molecule
read incoords.mol
$end

$solvent
dielectric	1.0001
$end

$pcm
theory iefpcm
$end
--------------------------------------------------------------

   17   -2925.5244644190      8.71E-10 Convergence criterion met
 Total energy in the final basis set = -2925.52446442
 Total job time:  3690.13s(wall), 11470.45s(cpu)
        *  Thank you very much for using Q-Chem.  Have a nice day.  *
 Q-Chem 5.0, Q-Chem, Inc., Pleasanton, CA (2017)
 Q-Chem 5.0.1 for Intel X86 EM64T Linux

User input:
--------------------------------------------------------------

$rem
threads 8
jobtype opt
method PBEh-3c
basis def2-mSVP
scf_guess	read
mem_static      1024
mem_total       8000
sym_ignore      true
unrestricted true
mom_start       1
scf_algorithm	diis
scf_max_cycles	250
solvent_method	pcm
geom_opt_tol_energy 25
geom_opt_tol_gradient 75
$end

$solvent
dielectric      1.0001
$end

$pcm
theory iefpcm
$end

$occupied
1 2 3 4 5 6 7 8 9 10 11 12 13 14 15 16 17 18 19 20 21 22 23 24 25 26 27 28 29 30 31 32 33 34 35 36 37 38 39 40 41 42 43 44 45 46 47 48 49 50 51 52 53 54 55 56 57 58 59 60 61 62 63 64 65 66 67 68 69 70 71 72 73 74 75 76 77 78 79 80 81 82 83 84 85 86 87 88 89 90 91 92 93 94 95 96 97 98 99 100 101 102 103 104 105 106 107 108 109 110 111 112 113 114 115 116 117 118 119 120 121 122 123 124 125 126 127 128 129 130 131 132 133 134 135 136 137 138 139 140 141 142 143 144 145 146 147 148 149 150 151 152 153 154 155 156 157 158 159 160 161 162 163 164 165 166 167 168 169 170 171 172 173 174 175 176 177 178 179 180 181 182 183 184 185 186 187 188 189 190 191 192 193 194 195 196 197 198 199 200 201 202 203 204 205 206 207 208 209 210 211 212 213 214 215 216 217 218 219 220 221 222 223 224 225 226 227 228 229 230 231 232 233 234 235 236 237 238 239 240 241 242 243 244 245 246 247 248 249 250 251  253
1 2 3 4 5 6 7 8 9 10 11 12 13 14 15 16 17 18 19 20 21 22 23 24 25 26 27 28 29 30 31 32 33 34 35 36 37 38 39 40 41 42 43 44 45 46 47 48 49 50 51 52 53 54 55 56 57 58 59 60 61 62 63 64 65 66 67 68 69 70 71 72 73 74 75 76 77 78 79 80 81 82 83 84 85 86 87 88 89 90 91 92 93 94 95 96 97 98 99 100 101 102 103 104 105 106 107 108 109 110 111 112 113 114 115 116 117 118 119 120 121 122 123 124 125 126 127 128 129 130 131 132 133 134 135 136 137 138 139 140 141 142 143 144 145 146 147 148 149 150 151 152 153 154 155 156 157 158 159 160 161 162 163 164 165 166 167 168 169 170 171 172 173 174 175 176 177 178 179 180 181 182 183 184 185 186 187 188 189 190 191 192 193 194 195 196 197 198 199 200 201 202 203 204 205 206 207 208 209 210 211 212 213 214 215 216 217 218 219 220 221 222 223 224 225 226 227 228 229 230 231 232 233 234 235 236 237 238 239 240 241 242 243 244 245 246 247 248 249 250 251 252
$end

$molecule
read incoords.mol
$end

--------------------------------------------------------------

   31   -2925.4320550821      9.76E-09 Convergence criterion met
 Total energy in the final basis set = -2925.43205508
   25   -2925.4378864991      5.52E-09 Convergence criterion met
 Total energy in the final basis set = -2925.43788650
   18   -2925.4388348686      8.98E-09 Convergence criterion met
 Total energy in the final basis set = -2925.43883487
   16   -2925.4390934534      7.19E-09 Convergence criterion met
 Total energy in the final basis set = -2925.43909345
   17   -2925.4385959786      6.96E-09 Convergence criterion met
 Total energy in the final basis set = -2925.43859598
   16   -2925.4381038422      8.34E-09 Convergence criterion met
 Total energy in the final basis set = -2925.43810384
   18   -2925.4363644673      8.31E-09 Convergence criterion met
 Total energy in the final basis set = -2925.43251738
   17   -2925.4367019759      9.47E-09 Convergence criterion met
 Total energy in the final basis set = -2925.43670198
   16   -2925.4360828902      7.61E-09 Convergence criterion met
 Total energy in the final basis set = -2925.43608289
   15   -2925.4364984930      7.65E-09 Convergence criterion met
 Total energy in the final basis set = -2925.43649849
   14   -2925.4363475704      9.56E-09 Convergence criterion met
 Total energy in the final basis set = -2925.43634757
   15   -2925.4360395798      8.15E-09 Convergence criterion met
 Total energy in the final basis set = -2925.43603958
   14   -2925.4358086863      7.71E-09 Convergence criterion met
 Total energy in the final basis set = -2925.43580869
   11   -2925.4357357466      9.14E-09 Convergence criterion met
 Total energy in the final basis set = -2925.43573575

                    Orbital Energies (a.u.)
 --------------------------------------------------------------

 Alpha MOs
 -- Occupied --
-14.685 -14.685 -10.487 -10.487 -10.483 -10.483 -10.482 -10.482
-10.481 -10.481 -10.481 -10.479 -10.476 -10.475 -10.475 -10.474
-10.474 -10.474 -10.473 -10.473 -10.473 -10.472 -10.472 -10.472
-10.472 -10.471 -10.470 -10.469 -10.469 -10.468 -10.467 -10.465
-10.463 -10.462 -10.461 -10.460 -10.456 -10.455 -10.455 -10.455
-10.453 -10.451 -10.451 -10.449 -10.447 -10.446 -10.445 -10.445
-10.445 -10.444 -10.444 -10.444 -10.444 -10.443 -10.443 -10.443
-10.443 -10.443 -10.443 -10.442 -10.442 -10.442 -10.442 -10.441
-10.438 -10.436 -10.435 -10.435 -10.430 -10.429 -10.428 -10.428
-10.424 -10.423  -6.923  -6.920  -1.107  -1.105  -1.028  -1.027
 -0.974  -0.972  -0.969  -0.968  -0.948  -0.946  -0.944  -0.944
 -0.943  -0.942  -0.916  -0.908  -0.885  -0.883  -0.876  -0.875
 -0.870  -0.869  -0.858  -0.858  -0.851  -0.849  -0.843  -0.841
 -0.827  -0.824  -0.823  -0.808  -0.807  -0.806  -0.805  -0.805
 -0.771  -0.770  -0.768  -0.767  -0.745  -0.743  -0.740  -0.730
 -0.728  -0.727  -0.699  -0.698  -0.692  -0.689  -0.685  -0.683
 -0.681  -0.677  -0.657  -0.654  -0.653  -0.652  -0.646  -0.644
 -0.641  -0.640  -0.608  -0.603  -0.601  -0.599  -0.593  -0.592
 -0.590  -0.586  -0.586  -0.585  -0.584  -0.571  -0.570  -0.553
 -0.553  -0.552  -0.551  -0.545  -0.538  -0.535  -0.528  -0.521
 -0.519  -0.518  -0.517  -0.516  -0.513  -0.510  -0.505  -0.503
 -0.499  -0.497  -0.497  -0.497  -0.493  -0.493  -0.492  -0.492
 -0.489  -0.488  -0.486  -0.485  -0.483  -0.479  -0.478  -0.477
 -0.476  -0.475  -0.474  -0.472  -0.468  -0.467  -0.465  -0.464
 -0.463  -0.462  -0.452  -0.448  -0.443  -0.441  -0.439  -0.435
 -0.430  -0.427  -0.426  -0.423  -0.422  -0.421  -0.419  -0.416
 -0.411  -0.410  -0.409  -0.406  -0.406  -0.406  -0.404  -0.403
 -0.402  -0.399  -0.395  -0.394  -0.391  -0.390  -0.389  -0.387
 -0.386  -0.374  -0.371  -0.369  -0.360  -0.354  -0.347  -0.340
 -0.337  -0.331  -0.326  -0.324  -0.307  -0.305  -0.296  -0.294
 -0.282  -0.281  -0.280  -0.279  -0.275  -0.272  -0.266  -0.251
 -0.248  -0.236  -0.232  -0.172

 Beta MOs
 -- Occupied --
-14.685 -14.685 -10.487 -10.487 -10.484 -10.484 -10.483 -10.483
-10.482 -10.481 -10.481 -10.480 -10.476 -10.476 -10.475 -10.474
-10.474 -10.474 -10.473 -10.472 -10.472 -10.472 -10.472 -10.471
-10.471 -10.471 -10.470 -10.469 -10.469 -10.469 -10.468 -10.467
-10.462 -10.461 -10.460 -10.459 -10.456 -10.455 -10.455 -10.455
-10.454 -10.453 -10.453 -10.451 -10.447 -10.446 -10.445 -10.445
-10.445 -10.444 -10.444 -10.444 -10.444 -10.443 -10.443 -10.443
-10.443 -10.443 -10.443 -10.442 -10.442 -10.442 -10.442 -10.441
-10.438 -10.436 -10.435 -10.435 -10.430 -10.429 -10.428 -10.428
-10.424 -10.424  -6.919  -6.917  -1.107  -1.105  -1.031  -1.030
 -0.975  -0.972  -0.971  -0.970  -0.948  -0.946  -0.944  -0.944
 -0.943  -0.941  -0.919  -0.911  -0.885  -0.883  -0.876  -0.875
 -0.870  -0.868  -0.858  -0.857  -0.851  -0.849  -0.843  -0.841
 -0.831  -0.824  -0.822  -0.814  -0.807  -0.806  -0.805  -0.805
 -0.771  -0.770  -0.768  -0.767  -0.745  -0.742  -0.739  -0.731
 -0.728  -0.727  -0.700  -0.697  -0.691  -0.690  -0.685  -0.683
 -0.681  -0.678  -0.658  -0.655  -0.653  -0.652  -0.646  -0.643
 -0.641  -0.640  -0.606  -0.603  -0.600  -0.598  -0.593  -0.591
 -0.590  -0.586  -0.586  -0.584  -0.584  -0.571  -0.570  -0.554
 -0.552  -0.551  -0.551  -0.545  -0.538  -0.535  -0.527  -0.520
 -0.519  -0.518  -0.517  -0.516  -0.513  -0.510  -0.505  -0.503
 -0.500  -0.499  -0.498  -0.497  -0.497  -0.497  -0.493  -0.492
 -0.490  -0.488  -0.486  -0.485  -0.483  -0.479  -0.478  -0.477
 -0.476  -0.476  -0.474  -0.471  -0.468  -0.467  -0.465  -0.463
 -0.462  -0.461  -0.452  -0.449  -0.444  -0.443  -0.441  -0.435
 -0.434  -0.429  -0.427  -0.423  -0.422  -0.421  -0.419  -0.415
 -0.411  -0.410  -0.409  -0.406  -0.405  -0.405  -0.404  -0.403
 -0.402  -0.399  -0.395  -0.394  -0.391  -0.390  -0.389  -0.387
 -0.386  -0.379  -0.372  -0.371  -0.362  -0.359  -0.353  -0.340
 -0.333  -0.328  -0.326  -0.324  -0.306  -0.306  -0.296  -0.294
 -0.292  -0.282  -0.281  -0.280  -0.279  -0.270  -0.270  -0.264
 -0.251  -0.248  -0.236  -0.232

          Ground-State Mulliken Net Atomic Charges

     Atom                 Charge (a.u.)    Spin (a.u.)
  --------------------------------------------------------
      1 N                    -0.739857      -0.000110
      2 C                     0.319657       0.001574
      3 C                     0.345621       0.000038
      4 C                    -0.280457      -0.000011
      5 H                     0.234608      -0.000000
      6 C                    -0.236329       0.000009
      7 H                     0.215448      -0.000000
      8 C                     0.337572       0.000042
      9 C                    -0.280317      -0.000011
     10 H                     0.234699      -0.000000
     11 C                    -0.234810       0.000007
     12 H                     0.214141      -0.000000
     13 C                    -0.228844      -0.000005
     14 H                     0.213631       0.000000
     15 C                    -0.344006      -0.000002
     16 H                     0.204467       0.000001
     17 C                     0.100534       0.000003
     18 C                    -0.229199      -0.000009
     19 H                     0.213753       0.000000
     20 C                    -0.341838      -0.000001
     21 H                     0.204763       0.000000
     22 C                     0.086148      -0.000001
     23 C                    -0.353581      -0.001538
     24 H                     0.234815       0.000458
     25 C                     0.048091       0.005114
     26 C                    -0.354561      -0.001660
     27 H                     0.233712       0.000433
     28 C                     0.044419       0.005371
     29 C                    -0.203090      -0.031953
     30 C                    -0.747164      -0.000391
     31 H                     0.234520       0.001484
     32 H                     0.243415      -0.000677
     33 H                     0.242334      -0.000784
     34 C                    -0.752981      -0.000772
     35 H                     0.236204       0.001676
     36 H                     0.244176      -0.000832
     37 H                     0.244300      -0.000724
     38 B                     0.588567       0.355546
     39 C                    -0.115177      -0.121753
     40 C                    -0.386893       0.049652
     41 H                     0.235199      -0.002516
     42 C                     0.095225      -0.065103
     43 C                     0.117072      -0.078112
     44 C                    -0.403209       0.061400
     45 H                     0.226759      -0.003114
     46 C                    -0.118861      -0.143470
     47 C                     0.200136      -0.011570
     48 C                    -0.380579       0.054134
     49 H                     0.222903      -0.003095
     50 C                    -0.059749      -0.084480
     51 C                     0.255168      -0.001898
     52 C                     0.199345      -0.015978
     53 C                    -0.372449       0.057297
     54 H                     0.225350      -0.003263
     55 C                    -0.202156      -0.027767
     56 H                     0.231505       0.001380
     57 C                    -0.336903       0.031802
     58 H                     0.225067      -0.001872
     59 C                    -0.205073      -0.029273
     60 H                     0.232757       0.001451
     61 C                    -0.332959       0.033883
     62 H                     0.224853      -0.002014
     63 C                    -0.126150      -0.146644
     64 C                    -0.389383       0.068649
     65 H                     0.236716      -0.003360
     66 C                     0.102600      -0.096299
     67 C                     0.109759      -0.086204
     68 C                    -0.385517       0.065417
     69 H                     0.242978      -0.003287
     70 C                    -0.104837      -0.147663
     71 C                     0.208965      -0.006742
     72 C                    -0.392050       0.048278
     73 H                     0.248937      -0.002757
     74 C                    -0.059783      -0.098423
     75 C                     0.251343       0.005717
     76 C                     0.199970      -0.004905
     77 C                    -0.373989       0.044506
     78 H                     0.225959      -0.002500
     79 C                    -0.204437      -0.020791
     80 H                     0.233840       0.001048
     81 C                    -0.331772       0.019543
     82 H                     0.226108      -0.001162
     83 C                    -0.210602      -0.022236
     84 H                     0.239288       0.001091
     85 C                    -0.333852       0.023614
     86 H                     0.225586      -0.001401
     87 B                     0.567578       0.361699
     88 C                    -0.199269      -0.033512
     89 C                     0.041131       0.005985
     90 C                    -0.315815      -0.001196
     91 H                     0.230755       0.000437
     92 C                     0.275692       0.001563
     93 C                    -0.339021      -0.001026
     94 H                     0.232313       0.000383
     95 C                     0.040773       0.005383
     96 N                    -0.730001      -0.000124
     97 C                     0.332844       0.000069
     98 C                     0.351564       0.000037
     99 C                    -0.282212      -0.000007
    100 H                     0.234516       0.000001
    101 C                    -0.237638       0.000001
    102 H                     0.216744       0.000000
    103 C                    -0.288246       0.000037
    104 H                     0.243393      -0.000007
    105 C                    -0.247452       0.000017
    106 H                     0.221902       0.000037
    107 C                    -0.227175      -0.000015
    108 H                     0.213540       0.000000
    109 C                    -0.348238       0.000022
    110 H                     0.205426       0.000000
    111 C                     0.110484      -0.000015
    112 C                    -0.228948      -0.000004
    113 H                     0.214322       0.000000
    114 C                    -0.343579      -0.000011
    115 H                     0.204795       0.000001
    116 C                     0.086425       0.000005
    117 C                    -0.750430      -0.001093
    118 H                     0.237059       0.001801
    119 H                     0.244890      -0.000774
    120 H                     0.244659      -0.000876
    121 C                    -0.741567      -0.000482
    122 H                     0.234330       0.001526
    123 H                     0.239950      -0.000737
    124 H                     0.244933      -0.000609
  --------------------------------------------------------
  Sum of atomic charges =    -0.000000

                    Cartesian Multipole Moments
 -----------------------------------------------------------------
    Charge (ESU x 10^10)
                -0.0000
    Dipole Moment (Debye)
         X      -0.0185      Y       1.1141      Z       0.4398
       Tot       1.1980
    Quadrupole Moments (Debye-Ang)
        XX    -400.8370     XY      46.1756     YY    -394.0805
        XZ       1.0181     YZ      18.7508     ZZ    -443.5317

             Standard Nuclear Orientation (Angstroms)
    I     Atom           X                Y                Z
 ----------------------------------------------------------------
    1      N       0.1085157734    -0.3592901303     0.1396181360
    2      C       0.0849872492    -0.1979034828     1.5394792138
    3      C       1.1991624624    -0.1971735563    -0.6919542398
    4      C       2.4919603038     0.2097965373    -0.3890789031
    5      H       2.7869910752     0.4410970580     0.6256356820
    6      C       3.3899669052     0.3131186565    -1.4367036662
    7      H       4.4047403967     0.6269090400    -1.2301642125
    8      C      -0.9718620197    -0.7591802837    -0.6180300580
    9      C      -2.2674841890    -1.0691840560    -0.2162908954
   10      H      -2.5668421108    -1.0139592834     0.8216721646
   11      C      -3.1689648566    -1.4529736679    -1.1922991032
   12      H      -4.1837451696    -1.6961314165    -0.9048124827
   13      C      -2.8001564914    -1.5348026326    -2.5377939607
   14      H      -3.5316706746    -1.8369180327    -3.2752683189
   15      C      -1.5084862214    -1.2366367139    -2.9280554190
   16      H      -1.2212684620    -1.3074720430    -3.9697996741
   17      C      -0.5830088512    -0.8474962531    -1.9646488340
   18      C       3.0182524745     0.0246185343    -2.7529936773
   19      H       3.7484406828     0.1166788067    -3.5457028638
   20      C       1.7278856679    -0.3731946534    -3.0472016821
   21      H       1.4371089006    -0.5911143041    -4.0674318970
   22      C       0.8072388237    -0.4861161643    -2.0125383818
   23      C      -0.8010358477     0.6980537757     2.1182133351
   24      H      -1.4362268937     1.3042326482     1.4825998308
   25      C      -0.8816802818     0.8072229077     3.5011811994
   26      C       0.9154785319    -0.9679034755     2.3368847402
   27      H       1.5876526612    -1.6796938707     1.8717115804
   28      C       0.8643199068    -0.8491552742     3.7195157264
   29      C      -0.0472123742     0.0320277582     4.3168259994
   30      C      -1.8699099045     1.7543299948     4.1213634718
   31      H      -2.4475615831     2.2878006572     3.3667640298
   32      H      -1.3727044576     2.4983784975     4.7462969703
   33      H      -2.5750945590     1.2251286673     4.7656096867
   34      C       1.7675398977    -1.6958818294     4.5709436456
   35      H       2.4254071109    -2.3178753215     3.9642955496
   36      H       2.3957808698    -1.0815505203     5.2188252323
   37      H       1.1960930864    -2.3595490120     5.2233341923
   38      B      -0.1442918131     0.1011072018     5.8884790349
   39      C       0.6940517119     1.0920102781     6.6928399855
   40      C       1.4933847231     2.0256779434     6.0153015129
   41      H       1.4981959831     2.0318623476     4.9309107420
   42      C       2.2611198811     2.9151971699     6.7163857060
   43      C       2.2749877142     2.9040141218     8.1661946590
   44      C       1.5100451368     1.9917778515     8.8491517040
   45      H       1.5184966011     1.9613310410     9.9333304446
   46      C       0.7010336228     1.0734620557     8.1497501614
   47      C       3.1838287116     3.9522943152     8.5987829567
   48      C       3.6158476957     4.4312305305     9.8108163572
   49      H       3.2703419726     4.0115771494    10.7467412444
   50      C       3.6841366701     4.5562588354     7.4234441169
   51      C       4.5913479167     5.6114220771     7.4021318532
   52      C       3.1521512356     3.9581727942     6.2627888792
   53      C       3.5387665863     4.4268612382     5.0307829628
   54      H       3.1574491589     4.0001097149     4.1116046127
   55      C       4.5354078675     5.5015459001     9.8190979347
   56      H       4.8761567921     5.8799432894    10.7736690379
   57      C       5.0157650035     6.0823032862     8.6657706550
   58      H       5.7207307998     6.9016651724     8.7296208745
   59      C       4.4571793990     5.4946933812     4.9837506008
   60      H       4.7665063042     5.8696872078     4.0169453465
   61      C       4.9735781717     6.0766658077     6.1212527539
   62      H       5.6766118844     6.8952889455     6.0313521096
   63      C      -1.0508042878    -0.8719175808     6.6422295223
   64      C      -1.8564394579    -1.7778966096     5.9319540565
   65      H      -1.8384856190    -1.7666456003     4.8478975794
   66      C      -2.6421369658    -2.6765439747     6.6042761140
   67      C      -2.6561703235    -2.6962755339     8.0547451452
   68      C      -1.8790530414    -1.8219245059     8.7650770232
   69      H      -1.8893742025    -1.8529856615     9.8478935429
   70      C      -1.0565952692    -0.8934818596     8.0977863982
   71      C      -3.5520156742    -3.7570111604     8.4759626445
   72      C      -3.9650586018    -4.2654607639     9.6840599746
   73      H      -3.6248583459    -3.8576953650    10.6277498556
   74      C      -4.0448173659    -4.3479204205     7.2923909286
   75      C      -4.9269845742    -5.4267783356     7.2630907143
   76      C      -3.5259078605    -3.7255921530     6.1364518349
   77      C      -3.9081783705    -4.1977452171     4.9028734519
   78      H      -3.5377329655    -3.7615110000     3.9839377038
   79      C      -4.8034358382    -5.2857780707     4.8481105663
   80      H      -5.1046618076    -5.6598586915     3.8783796075
   81      C      -5.3036895471    -5.8901971217     5.9806642494
   82      H      -5.9864794875    -6.7256481255     5.8864770966
   83      C      -4.8589710627    -5.3577817427     9.6812922338
   84      H      -5.1814170215    -5.7582049949    10.6335162225
   85      C      -5.3322283138    -5.9300270396     8.5208089126
   86      H      -6.0155508215    -6.7686788165     8.5732040015
   87      B      -0.1423363126     0.0474406879     8.9010227741
   88      C      -0.0991759238    -0.2347881510    10.4525928518
   89      C      -1.1057998237     0.2397524699    11.3030810468
   90      C      -1.3156161084    -0.3640326433    12.5378386721
   91      H      -2.1496848299    -0.0614886452    13.1611003804
   92      C      -0.5179207147    -1.4268678784    12.9334337928
   93      C       0.5581442464    -1.8183040440    12.1528152257
   94      H       1.1887950881    -2.6322772064    12.4910806869
   95      C       0.7679189283    -1.2368743944    10.9089644160
   96      N      -0.8837778527    -2.2184814390    14.0431919822
   97      C      -1.4079487492    -3.4866979128    13.9052957892
   98      C      -0.9785458036    -1.8417207132    15.3648607003
   99      C      -0.5918454073    -0.6522559833    15.9664639300
  100      H      -0.1549001627     0.1524113270    15.3897029658
  101      C      -0.7849547849    -0.5390170448    17.3312276029
  102      H      -0.4941136319     0.3758117764    17.8305943457
  103      C      -1.5676791913    -4.2511703260    12.7529778691
  104      H      -1.2419263853    -3.8920349562    11.7850391796
  105      C      -2.1466693727    -5.5006588716    12.8859470387
  106      H      -2.2759415462    -6.1166030252    12.0046301825
  107      C      -2.5584420759    -5.9840340143    14.1312160832
  108      H      -3.0031592909    -6.9676250392    14.2017657392
  109      C      -2.3997941913    -5.2159460834    15.2699474765
  110      H      -2.7245567742    -5.5917369000    16.2321265845
  111      C      -1.8249917669    -3.9533315910    15.1620579262
  112      C      -1.3432137452    -1.5796727637    18.0796186919
  113      H      -1.4770792746    -1.4559077977    19.1457621856
  114      C      -1.7240206509    -2.7609494796    17.4708456935
  115      H      -2.1558038118    -3.5654860726    18.0529376193
  116      C      -1.5450098327    -2.8992829685    16.0997754589
  117      C       1.8544442262    -1.7655390335    10.0143697426
  118      H       2.5226887635    -2.4404982448    10.5487239494
  119      H       2.4579397199    -0.9618380825     9.5914336145
  120      H       1.4349456963    -2.3213129389     9.1719038999
  121      C      -2.0464562885     1.3078623746    10.8201986346
  122      H      -2.7056910276     1.6572044789    11.6143776777
  123      H      -1.5064031190     2.1710731890    10.4291000304
  124      H      -2.6772713072     0.9367164288    10.0086233887
 ----------------------------------------------------------------
