 Q-Chem 5.0, Q-Chem, Inc., Pleasanton, CA (2017)
 Q-Chem 5.0.1 for Intel X86 EM64T Linux

User input:
--------------------------------------------------------------
$rem
threads 8
jobtype	sp
method PBEh-3c
basis def2-mSVP
mem_static	1024
mem_total	8000
sym_ignore	true
unrestricted true
scf_convergence	9
solvent_method	pcm
$end

$molecule
read incoords.mol
$end

$solvent
dielectric	2.38
$end

$pcm
theory iefpcm
$end
--------------------------------------------------------------

   17   -2925.5421184373      4.58E-10 Convergence criterion met
 Total energy in the final basis set = -2925.54211844
 Total job time:  3829.44s(wall), 11745.98s(cpu)
        *  Thank you very much for using Q-Chem.  Have a nice day.  *
 Q-Chem 5.0, Q-Chem, Inc., Pleasanton, CA (2017)
 Q-Chem 5.0.1 for Intel X86 EM64T Linux

User input:
--------------------------------------------------------------

$rem
threads 8
jobtype opt
method PBEh-3c
basis def2-mSVP
scf_guess	read
mem_static      1024
mem_total       8000
sym_ignore      true
unrestricted true
mom_start       1
scf_algorithm	diis
scf_max_cycles	250
solvent_method	pcm
geom_opt_tol_energy 25
geom_opt_tol_gradient 75
$end

$solvent
dielectric      2.38
$end

$pcm
theory iefpcm
$end

$occupied
1 2 3 4 5 6 7 8 9 10 11 12 13 14 15 16 17 18 19 20 21 22 23 24 25 26 27 28 29 30 31 32 33 34 35 36 37 38 39 40 41 42 43 44 45 46 47 48 49 50 51 52 53 54 55 56 57 58 59 60 61 62 63 64 65 66 67 68 69 70 71 72 73 74 75 76 77 78 79 80 81 82 83 84 85 86 87 88 89 90 91 92 93 94 95 96 97 98 99 100 101 102 103 104 105 106 107 108 109 110 111 112 113 114 115 116 117 118 119 120 121 122 123 124 125 126 127 128 129 130 131 132 133 134 135 136 137 138 139 140 141 142 143 144 145 146 147 148 149 150 151 152 153 154 155 156 157 158 159 160 161 162 163 164 165 166 167 168 169 170 171 172 173 174 175 176 177 178 179 180 181 182 183 184 185 186 187 188 189 190 191 192 193 194 195 196 197 198 199 200 201 202 203 204 205 206 207 208 209 210 211 212 213 214 215 216 217 218 219 220 221 222 223 224 225 226 227 228 229 230 231 232 233 234 235 236 237 238 239 240 241 242 243 244 245 246 247 248 249 250 251  253
1 2 3 4 5 6 7 8 9 10 11 12 13 14 15 16 17 18 19 20 21 22 23 24 25 26 27 28 29 30 31 32 33 34 35 36 37 38 39 40 41 42 43 44 45 46 47 48 49 50 51 52 53 54 55 56 57 58 59 60 61 62 63 64 65 66 67 68 69 70 71 72 73 74 75 76 77 78 79 80 81 82 83 84 85 86 87 88 89 90 91 92 93 94 95 96 97 98 99 100 101 102 103 104 105 106 107 108 109 110 111 112 113 114 115 116 117 118 119 120 121 122 123 124 125 126 127 128 129 130 131 132 133 134 135 136 137 138 139 140 141 142 143 144 145 146 147 148 149 150 151 152 153 154 155 156 157 158 159 160 161 162 163 164 165 166 167 168 169 170 171 172 173 174 175 176 177 178 179 180 181 182 183 184 185 186 187 188 189 190 191 192 193 194 195 196 197 198 199 200 201 202 203 204 205 206 207 208 209 210 211 212 213 214 215 216 217 218 219 220 221 222 223 224 225 226 227 228 229 230 231 232 233 234 235 236 237 238 239 240 241 242 243 244 245 246 247 248 249 250 251 252
$end

$molecule
read incoords.mol
$end

--------------------------------------------------------------

   20   -2925.4569045679      8.95E-09 Convergence criterion met
 Total energy in the final basis set = -2925.45690457
   16   -2925.4567441033      7.86E-09 Convergence criterion met
 Total energy in the final basis set = -2925.45674410
   16   -2925.4561783191      9.43E-09 Convergence criterion met
 Total energy in the final basis set = -2925.45617832
   16   -2925.4556024028      8.81E-09 Convergence criterion met
 Total energy in the final basis set = -2925.45560240
   17   -2925.4555957040      6.93E-09 Convergence criterion met
 Total energy in the final basis set = -2925.45559570
   16   -2925.4551944051      9.46E-09 Convergence criterion met
 Total energy in the final basis set = -2925.45519441
   16   -2925.4540118904      9.00E-09 Convergence criterion met
 Total energy in the final basis set = -2925.45362298
   17   -2925.4528399009      6.80E-09 Convergence criterion met
 Total energy in the final basis set = -2925.45283990
   17   -2925.4530136824      6.81E-09 Convergence criterion met
 Total energy in the final basis set = -2925.45301368
   17   -2925.4529408002      7.00E-09 Convergence criterion met
 Total energy in the final basis set = -2925.45294080
   17   -2925.4523089478      7.29E-09 Convergence criterion met
 Total energy in the final basis set = -2925.45230895
   17   -2925.4526287962      7.19E-09 Convergence criterion met
 Total energy in the final basis set = -2925.45262880
   17   -2925.4526099715      6.76E-09 Convergence criterion met
 Total energy in the final basis set = -2925.45260997
   16   -2925.4525765307      9.82E-09 Convergence criterion met
 Total energy in the final basis set = -2925.45257653

                    Orbital Energies (a.u.)
 --------------------------------------------------------------

 Alpha MOs
 -- Occupied --
-14.776 -14.678 -10.549 -10.538 -10.537 -10.500 -10.499 -10.496
-10.495 -10.492 -10.491 -10.491 -10.491 -10.487 -10.487 -10.486
-10.486 -10.486 -10.486 -10.477 -10.476 -10.474 -10.469 -10.451
-10.450 -10.449 -10.448 -10.447 -10.447 -10.447 -10.447 -10.446
-10.446 -10.445 -10.445 -10.445 -10.445 -10.445 -10.445 -10.444
-10.444 -10.441 -10.441 -10.441 -10.441 -10.440 -10.440 -10.439
-10.438 -10.438 -10.438 -10.438 -10.437 -10.437 -10.437 -10.437
-10.436 -10.435 -10.434 -10.433 -10.432 -10.432 -10.432 -10.431
-10.431 -10.429 -10.429 -10.413 -10.412 -10.410 -10.409 -10.408
-10.406 -10.405  -6.903  -6.900  -1.168  -1.099  -1.021  -0.998
 -0.998  -0.998  -0.985  -0.962  -0.942  -0.941  -0.939  -0.933
 -0.931  -0.918  -0.918  -0.911  -0.894  -0.891  -0.886  -0.879
 -0.876  -0.861  -0.856  -0.847  -0.843  -0.837  -0.835  -0.834
 -0.832  -0.831  -0.803  -0.801  -0.799  -0.798  -0.794  -0.794
 -0.791  -0.783  -0.772  -0.755  -0.754  -0.741  -0.735  -0.722
 -0.716  -0.712  -0.711  -0.702  -0.699  -0.687  -0.684  -0.678
 -0.674  -0.672  -0.662  -0.659  -0.646  -0.645  -0.635  -0.633
 -0.632  -0.632  -0.627  -0.627  -0.617  -0.591  -0.585  -0.583
 -0.579  -0.578  -0.577  -0.573  -0.572  -0.566  -0.562  -0.561
 -0.559  -0.558  -0.552  -0.548  -0.543  -0.540  -0.534  -0.531
 -0.530  -0.526  -0.520  -0.514  -0.511  -0.510  -0.509  -0.503
 -0.502  -0.497  -0.493  -0.491  -0.489  -0.489  -0.484  -0.481
 -0.480  -0.479  -0.477  -0.475  -0.472  -0.472  -0.470  -0.469
 -0.468  -0.467  -0.464  -0.463  -0.463  -0.458  -0.457  -0.455
 -0.454  -0.453  -0.451  -0.449  -0.449  -0.447  -0.444  -0.439
 -0.438  -0.434  -0.426  -0.425  -0.422  -0.420  -0.416  -0.415
 -0.414  -0.411  -0.410  -0.406  -0.406  -0.398  -0.398  -0.389
 -0.386  -0.383  -0.382  -0.382  -0.382  -0.380  -0.379  -0.376
 -0.371  -0.367  -0.364  -0.356  -0.354  -0.351  -0.333  -0.332
 -0.327  -0.321  -0.320  -0.317  -0.306  -0.301  -0.300  -0.296
 -0.291  -0.284  -0.283  -0.268  -0.267  -0.263  -0.251  -0.246
 -0.241  -0.237  -0.230  -0.149

 Beta MOs
 -- Occupied --
-14.784 -14.678 -10.550 -10.536 -10.536 -10.501 -10.500 -10.498
-10.497 -10.491 -10.491 -10.491 -10.490 -10.489 -10.488 -10.488
-10.488 -10.485 -10.485 -10.477 -10.476 -10.474 -10.474 -10.451
-10.451 -10.449 -10.448 -10.448 -10.447 -10.447 -10.446 -10.446
-10.446 -10.446 -10.445 -10.445 -10.445 -10.444 -10.444 -10.443
-10.443 -10.441 -10.441 -10.441 -10.440 -10.440 -10.440 -10.439
-10.438 -10.438 -10.438 -10.438 -10.437 -10.437 -10.436 -10.436
-10.435 -10.435 -10.434 -10.433 -10.432 -10.432 -10.432 -10.431
-10.431 -10.430 -10.429 -10.413 -10.412 -10.410 -10.409 -10.409
-10.405 -10.404  -6.899  -6.897  -1.181  -1.099  -1.025  -0.999
 -0.997  -0.997  -0.990  -0.962  -0.942  -0.940  -0.938  -0.935
 -0.933  -0.917  -0.917  -0.911  -0.898  -0.893  -0.886  -0.879
 -0.876  -0.861  -0.856  -0.855  -0.842  -0.837  -0.834  -0.834
 -0.831  -0.830  -0.802  -0.801  -0.801  -0.799  -0.794  -0.793
 -0.793  -0.781  -0.777  -0.755  -0.753  -0.742  -0.738  -0.721
 -0.715  -0.710  -0.709  -0.702  -0.700  -0.688  -0.684  -0.678
 -0.676  -0.672  -0.662  -0.656  -0.645  -0.645  -0.637  -0.634
 -0.633  -0.632  -0.627  -0.627  -0.620  -0.596  -0.590  -0.583
 -0.579  -0.577  -0.576  -0.572  -0.571  -0.567  -0.566  -0.561
 -0.559  -0.557  -0.554  -0.552  -0.544  -0.539  -0.535  -0.535
 -0.531  -0.526  -0.521  -0.514  -0.511  -0.510  -0.509  -0.504
 -0.502  -0.501  -0.494  -0.491  -0.489  -0.489  -0.484  -0.481
 -0.480  -0.479  -0.477  -0.475  -0.472  -0.472  -0.470  -0.467
 -0.467  -0.467  -0.465  -0.465  -0.463  -0.463  -0.460  -0.458
 -0.457  -0.455  -0.451  -0.449  -0.449  -0.447  -0.446  -0.439
 -0.438  -0.435  -0.427  -0.424  -0.423  -0.420  -0.417  -0.415
 -0.414  -0.414  -0.410  -0.407  -0.406  -0.403  -0.397  -0.389
 -0.386  -0.383  -0.382  -0.380  -0.380  -0.380  -0.378  -0.376
 -0.375  -0.371  -0.363  -0.356  -0.351  -0.346  -0.344  -0.337
 -0.331  -0.322  -0.321  -0.319  -0.316  -0.300  -0.299  -0.295
 -0.291  -0.287  -0.281  -0.280  -0.267  -0.263  -0.258  -0.246
 -0.244  -0.238  -0.230  -0.230

          Ground-State Mulliken Net Atomic Charges

     Atom                 Charge (a.u.)    Spin (a.u.)
  --------------------------------------------------------
      1 N                    -0.687755      -0.293054
      2 C                     0.376163      -0.074999
      3 C                     0.335774       0.089832
      4 C                    -0.261519      -0.136272
      5 H                     0.290022       0.007242
      6 C                    -0.244085       0.079573
      7 H                     0.264540      -0.003630
      8 C                     0.326601       0.089691
      9 C                    -0.260944      -0.137774
     10 H                     0.291604       0.007446
     11 C                    -0.242765       0.079727
     12 H                     0.264771      -0.003644
     13 C                    -0.219333      -0.131019
     14 H                     0.262829       0.007251
     15 C                    -0.345736       0.043503
     16 H                     0.249245      -0.002262
     17 C                     0.115093      -0.074190
     18 C                    -0.219521      -0.130509
     19 H                     0.262559       0.007229
     20 C                    -0.343982       0.043862
     21 H                     0.249479      -0.002279
     22 C                     0.102710      -0.073987
     23 C                    -0.371893      -0.093816
     24 H                     0.288388       0.005995
     25 C                     0.054776       0.070616
     26 C                    -0.375044      -0.090766
     27 H                     0.284228       0.005960
     28 C                     0.038041       0.072266
     29 C                    -0.132435      -0.350104
     30 C                    -0.751321      -0.004239
     31 H                     0.241108       0.002603
     32 H                     0.271910       0.000649
     33 H                     0.273462      -0.001140
     34 C                    -0.757079      -0.003853
     35 H                     0.242229       0.002662
     36 H                     0.273821      -0.000969
     37 H                     0.277126       0.000245
     38 B                     0.546754       0.373610
     39 C                    -0.128819      -0.010974
     40 C                    -0.403832      -0.011209
     41 H                     0.195820       0.000330
     42 C                     0.066667       0.035173
     43 C                     0.087198       0.097574
     44 C                    -0.414042      -0.061420
     45 H                     0.217451       0.002445
     46 C                    -0.145551       0.066328
     47 C                     0.185413      -0.058954
     48 C                    -0.403502       0.087027
     49 H                     0.228379      -0.005114
     50 C                    -0.075477       0.023631
     51 C                     0.238369      -0.038197
     52 C                     0.186445      -0.044267
     53 C                    -0.397834       0.068847
     54 H                     0.215191      -0.004086
     55 C                    -0.215946      -0.054169
     56 H                     0.233454       0.002631
     57 C                    -0.357263       0.079104
     58 H                     0.227406      -0.004690
     59 C                    -0.219270      -0.045832
     60 H                     0.229445       0.002273
     61 C                    -0.352820       0.064542
     62 H                     0.227305      -0.003783
     63 C                    -0.137925      -0.018080
     64 C                    -0.403469      -0.004693
     65 H                     0.192337       0.000252
     66 C                     0.072902       0.026077
     67 C                     0.082187       0.097156
     68 C                    -0.397327      -0.063470
     69 H                     0.228192       0.002566
     70 C                    -0.136934       0.071732
     71 C                     0.194685      -0.056958
     72 C                    -0.412376       0.083303
     73 H                     0.239404      -0.004979
     74 C                    -0.077436       0.022114
     75 C                     0.235749      -0.035530
     76 C                     0.187183      -0.039569
     77 C                    -0.400068       0.061805
     78 H                     0.211940      -0.003694
     79 C                    -0.218088      -0.041610
     80 H                     0.228799       0.002074
     81 C                    -0.352257       0.057629
     82 H                     0.227979      -0.003366
     83 C                    -0.220648      -0.051296
     84 H                     0.237332       0.002482
     85 C                    -0.355514       0.075124
     86 H                     0.227636      -0.004455
     87 B                     0.566197       0.272903
     88 C                    -0.182651      -0.023941
     89 C                     0.033626       0.003507
     90 C                    -0.324835      -0.000410
     91 H                     0.234887       0.000339
     92 C                     0.264496       0.000388
     93 C                    -0.341417      -0.000221
     94 H                     0.235942       0.000267
     95 C                     0.029661       0.002853
     96 N                    -0.726018      -0.000035
     97 C                     0.334209       0.000022
     98 C                     0.350241       0.000009
     99 C                    -0.295083      -0.000003
    100 H                     0.248082       0.000000
    101 C                    -0.254207       0.000002
    102 H                     0.230208      -0.000000
    103 C                    -0.294444       0.000053
    104 H                     0.257973      -0.000029
    105 C                    -0.258956       0.000009
    106 H                     0.236116       0.000049
    107 C                    -0.244551      -0.000002
    108 H                     0.225711      -0.000000
    109 C                    -0.359591       0.000006
    110 H                     0.219322       0.000000
    111 C                     0.096356      -0.000003
    112 C                    -0.247027      -0.000005
    113 H                     0.225907       0.000000
    114 C                    -0.355955       0.000001
    115 H                     0.219849      -0.000000
    116 C                     0.075476      -0.000004
    117 C                    -0.760100       0.000377
    118 H                     0.236607       0.001618
    119 H                     0.248638      -0.000777
    120 H                     0.249207      -0.000872
    121 C                    -0.750897       0.000503
    122 H                     0.234439       0.001364
    123 H                     0.244254      -0.000643
    124 H                     0.250044      -0.000602
  --------------------------------------------------------
  Sum of atomic charges =    -0.000000

                    Cartesian Multipole Moments
 -----------------------------------------------------------------
    Charge (ESU x 10^10)
                -0.0000
    Dipole Moment (Debye)
         X       1.8026      Y      -0.5158      Z     -27.3769
       Tot      27.4410
    Quadrupole Moments (Debye-Ang)
        XX    -417.7786     XY       2.2560     YY    -443.6704
        XZ      12.8904     YZ      27.6661     ZZ    -649.5130

             Standard Nuclear Orientation (Angstroms)
    I     Atom           X                Y                Z
 ----------------------------------------------------------------
    1      N       0.1595415319    -0.4757996900     0.2258580267
    2      C       0.1109698668    -0.2359289647     1.5779675233
    3      C       1.3084543532    -0.5301313699    -0.5702153640
    4      C       2.6263313495    -0.2548393994    -0.2370677303
    5      H       2.9235341384     0.0296604352     0.7619576313
    6      C       3.5659620431    -0.3330276426    -1.2553501918
    7      H       4.6039066265    -0.1339286023    -1.0279560190
    8      C      -0.9535725054    -0.7317315575    -0.5770520950
    9      C      -2.2853024461    -0.8896722926    -0.2124848915
   10      H      -2.6214489981    -0.8063564331     0.8108757603
   11      C      -3.1915280044    -1.1907871749    -1.2185028331
   12      H      -4.2360500433    -1.3095676108    -0.9652345702
   13      C      -2.7788478552    -1.3605580406    -2.5368201085
   14      H      -3.5091724914    -1.6012682822    -3.2973160178
   15      C      -1.4356824574    -1.2522928515    -2.8816123630
   16      H      -1.1157600352    -1.4223953885    -3.9012694339
   17      C      -0.5220685278    -0.9415422708    -1.8928577491
   18      C       3.1960440097    -0.6436952127    -2.5611326367
   19      H       3.9533585595    -0.6898684625    -3.3317084665
   20      C       1.8644366280    -0.8710482966    -2.8924581974
   21      H       1.5775509865    -1.0783524558    -3.9150969031
   22      C       0.9189347063    -0.8094589535    -1.8893717967
   23      C      -0.8999561849     0.5887002391     2.1036641783
   24      H      -1.5649078186     1.1157967101     1.4308890033
   25      C      -0.9891032423     0.7865607978     3.4605849567
   26      C       1.0474510844    -0.8439062732     2.4291676380
   27      H       1.7836698695    -1.5215095360     2.0164117954
   28      C       0.9439698840    -0.6826456746     3.7901305549
   29      C      -0.0883413120     0.1266281507     4.3352701481
   30      C      -2.0343661881     1.6920742331     4.0321272890
   31      H      -2.6227282398     2.1768731624     3.2539354966
   32      H      -1.5812291308     2.4657385511     4.6533153722
   33      H      -2.7141238998     1.1339707690     4.6787255293
   34      C       1.8885449343    -1.3963108306     4.7057383755
   35      H       2.5971683495    -2.0126348776     4.1536164211
   36      H       2.4505172591    -0.6835618593     5.3108340641
   37      H       1.3470334542    -2.0383894256     5.4019925034
   38      B      -0.2447449265     0.2166167713     5.9016533552
   39      C       0.5761407360     1.2201619708     6.7037722847
   40      C       1.3695877794     2.1847643408     6.0511232138
   41      H       1.3819776608     2.2288920255     4.9654046931
   42      C       2.1278851499     3.0679659814     6.7731050243
   43      C       2.1385503268     3.0196739787     8.1994392602
   44      C       1.3764558668     2.0776602482     8.8539752645
   45      H       1.3850285835     2.0221977981     9.9383289128
   46      C       0.5766966349     1.1667204633     8.1321435033
   47      C       3.0443715078     4.0681307440     8.6688953161
   48      C       3.4740275151     4.5166739611     9.8924375920
   49      H       3.1307932498     4.0700566410    10.8172682311
   50      C       3.5448064681     4.7098702891     7.5146954324
   51      C       4.4459959207     5.7699352113     7.5237806845
   52      C       3.0174669682     4.1377672779     6.3409047836
   53      C       3.4045065299     4.6433171439     5.1251356485
   54      H       3.0282307746     4.2406675992     4.1921798979
   55      C       4.3906757739     5.5937086996     9.9336886077
   56      H       4.7269525345     5.9445076406    10.9010279313
   57      C       4.8699562582     6.2110384590     8.8006791358
   58      H       5.5708571290     7.0323043922     8.8868413533
   59      C       4.3183693633     5.7208604810     5.1056589141
   60      H       4.6251528013     6.1228625668     4.1481206906
   61      C       4.8299928850     6.2758223150     6.2570852914
   62      H       5.5282459482     7.1014353143     6.1926289539
   63      C      -1.1522370951    -0.7925433556     6.5986450824
   64      C      -1.9431018951    -1.7042177003     5.8650570179
   65      H      -1.9234906564    -1.6854238498     4.7790084467
   66      C      -2.7320580394    -2.6204789904     6.5100980622
   67      C      -2.7629607327    -2.6615428661     7.9350816001
   68      C      -1.9921027564    -1.7899491798     8.6642454012
   69      H      -2.0137442729    -1.8399361002     9.7473844576
   70      C      -1.1698803904    -0.8393551731     8.0244071117
   71      C      -3.6656311661    -3.7393470743     8.3357182942
   72      C      -4.0983254519    -4.2657060575     9.5279541936
   73      H      -3.7782551715    -3.8645789583    10.4819269556
   74      C      -4.1427406039    -4.3188582596     7.1413397194
   75      C      -5.0211965764    -5.3993011736     7.0850028536
   76      C      -3.6109832284    -3.6752553046     6.0057584912
   77      C      -3.9787253274    -4.1308436137     4.7632525181
   78      H      -3.6011846504    -3.6795800686     3.8535119724
   79      C      -4.8718185297    -5.2239893335     4.6773660938
   80      H      -5.1592850931    -5.5819570099     3.6965543528
   81      C      -5.3838273953    -5.8485951924     5.7914951622
   82      H      -6.0633878370    -6.6848442353     5.6785085591
   83      C      -4.9911584126    -5.3635682896     9.5008032080
   84      H      -5.3273387909    -5.7742800384    10.4445747401
   85      C      -5.4458169970    -5.9248028879     8.3294027874
   86      H      -6.1276534900    -6.7661780660     8.3593201494
   87      B      -0.2605441440     0.0996934953     8.8461979461
   88      C      -0.1947004728    -0.2287562685    10.3910581882
   89      C      -1.1782663251     0.2252039006    11.2785141285
   90      C      -1.3395297972    -0.3899225324    12.5161142167
   91      H      -2.1539796486    -0.0990001728    13.1703649838
   92      C      -0.5140411991    -1.4427712292    12.8778130034
   93      C       0.5320299845    -1.8251949715    12.0531129946
   94      H       1.1788081119    -2.6398993383    12.3587193412
   95      C       0.6931161034    -1.2307802259    10.8078758051
   96      N      -0.8223437107    -2.2385850790    14.0055731370
   97      C      -1.3728183476    -3.4962442314    13.8967544373
   98      C      -0.7172238901    -1.9144822389    15.3378213011
   99      C      -0.2241787583    -0.7550117548    15.9217607087
  100      H       0.1419434025     0.0653708237    15.3180656957
  101      C      -0.2187264776    -0.6924325350    17.3038385901
  102      H       0.1590771231     0.1980665644    17.7892743456
  103      C      -1.6887439618    -4.2177903621    12.7481949587
  104      H      -1.4980441442    -3.8212044173    11.7590611423
  105      C      -2.2493107317    -5.4714705615    12.9135197667
  106      H      -2.5021721205    -6.0536956081    12.0359842070
  107      C      -2.4914559759    -6.0007760690    14.1860802962
  108      H      -2.9278150988    -6.9865316890    14.2793246901
  109      C      -2.1784701481    -5.2753567949    15.3213058971
  110      H      -2.3710215660    -5.6869101119    16.3044395892
  111      C      -1.6168071715    -4.0086394748    15.1816492032
  112      C      -0.6868522888    -1.7535248511    18.0867925000
  113      H      -0.6654327396    -1.6689574429    19.1651646626
  114      C      -1.1735559929    -2.9055293594    17.4959012612
  115      H      -1.5329219829    -3.7268999898    18.1036735605
  116      C      -1.1933473499    -2.9932222685    16.1083094284
  117      C       1.7530434816    -1.7413257973     9.8719602131
  118      H       2.4270204332    -2.4379525173    10.3707020605
  119      H       2.3515356691    -0.9285366456     9.4590467339
  120      H       1.3048253529    -2.2658264801     9.0243254095
  121      C      -2.1423672259     1.2905496596    10.8377487668
  122      H      -2.7918430633     1.6119908633    11.6518782655
  123      H      -1.6203002270     2.1690287413    10.4558696885
  124      H      -2.7803125869     0.9267291766    10.0286363420
 ----------------------------------------------------------------
