 Q-Chem 5.0, Q-Chem, Inc., Pleasanton, CA (2017)
 Q-Chem 5.0.1 for Intel X86 EM64T Linux

User input:
--------------------------------------------------------------
$rem
threads 8
jobtype	sp
method PBEh-3c
basis def2-mSVP
mem_static	1024
mem_total	8000
sym_ignore	true
unrestricted true
scf_convergence	9
solvent_method	pcm
$end

$molecule
read incoords.mol
$end

$solvent
dielectric	4.33
$end

$pcm
theory iefpcm
$end
--------------------------------------------------------------

   17   -2925.5513034115      4.36E-10 Convergence criterion met
 Total energy in the final basis set = -2925.55130341
 Total job time:  3490.59s(wall), 10980.43s(cpu)
        *  Thank you very much for using Q-Chem.  Have a nice day.  *
 Q-Chem 5.0, Q-Chem, Inc., Pleasanton, CA (2017)
 Q-Chem 5.0.1 for Intel X86 EM64T Linux

User input:
--------------------------------------------------------------

$rem
threads 8
jobtype opt
method PBEh-3c
basis def2-mSVP
scf_guess	read
mem_static      1024
mem_total       8000
sym_ignore      true
unrestricted true
mom_start       1
scf_algorithm	diis
scf_max_cycles	250
solvent_method	pcm
geom_opt_tol_energy 25
geom_opt_tol_gradient 75
$end

$solvent
dielectric      4.33
$end

$pcm
theory iefpcm
$end

$occupied
1 2 3 4 5 6 7 8 9 10 11 12 13 14 15 16 17 18 19 20 21 22 23 24 25 26 27 28 29 30 31 32 33 34 35 36 37 38 39 40 41 42 43 44 45 46 47 48 49 50 51 52 53 54 55 56 57 58 59 60 61 62 63 64 65 66 67 68 69 70 71 72 73 74 75 76 77 78 79 80 81 82 83 84 85 86 87 88 89 90 91 92 93 94 95 96 97 98 99 100 101 102 103 104 105 106 107 108 109 110 111 112 113 114 115 116 117 118 119 120 121 122 123 124 125 126 127 128 129 130 131 132 133 134 135 136 137 138 139 140 141 142 143 144 145 146 147 148 149 150 151 152 153 154 155 156 157 158 159 160 161 162 163 164 165 166 167 168 169 170 171 172 173 174 175 176 177 178 179 180 181 182 183 184 185 186 187 188 189 190 191 192 193 194 195 196 197 198 199 200 201 202 203 204 205 206 207 208 209 210 211 212 213 214 215 216 217 218 219 220 221 222 223 224 225 226 227 228 229 230 231 232 233 234 235 236 237 238 239 240 241 242 243 244 245 246 247 248 249 250 251  253
1 2 3 4 5 6 7 8 9 10 11 12 13 14 15 16 17 18 19 20 21 22 23 24 25 26 27 28 29 30 31 32 33 34 35 36 37 38 39 40 41 42 43 44 45 46 47 48 49 50 51 52 53 54 55 56 57 58 59 60 61 62 63 64 65 66 67 68 69 70 71 72 73 74 75 76 77 78 79 80 81 82 83 84 85 86 87 88 89 90 91 92 93 94 95 96 97 98 99 100 101 102 103 104 105 106 107 108 109 110 111 112 113 114 115 116 117 118 119 120 121 122 123 124 125 126 127 128 129 130 131 132 133 134 135 136 137 138 139 140 141 142 143 144 145 146 147 148 149 150 151 152 153 154 155 156 157 158 159 160 161 162 163 164 165 166 167 168 169 170 171 172 173 174 175 176 177 178 179 180 181 182 183 184 185 186 187 188 189 190 191 192 193 194 195 196 197 198 199 200 201 202 203 204 205 206 207 208 209 210 211 212 213 214 215 216 217 218 219 220 221 222 223 224 225 226 227 228 229 230 231 232 233 234 235 236 237 238 239 240 241 242 243 244 245 246 247 248 249 250 251 252
$end

$molecule
read incoords.mol
$end

--------------------------------------------------------------

   20   -2925.4707157974      8.42E-09 Convergence criterion met
 Total energy in the final basis set = -2925.47071580
   17   -2925.4706823783      9.48E-09 Convergence criterion met
 Total energy in the final basis set = -2925.47068238
   17   -2925.4702360772      9.92E-09 Convergence criterion met
 Total energy in the final basis set = -2925.47023608
   17   -2925.4696080219      9.18E-09 Convergence criterion met
 Total energy in the final basis set = -2925.46960802
   17   -2925.4696541408      9.51E-09 Convergence criterion met
 Total energy in the final basis set = -2925.46965414
   17   -2925.4693717051      9.47E-09 Convergence criterion met
 Total energy in the final basis set = -2925.46937171
   17   -2925.4688367377      9.72E-09 Convergence criterion met
 Total energy in the final basis set = -2925.46883674
   18   -2925.4527791473      7.59E-09 Convergence criterion met
 Total energy in the final basis set = -2925.45277915
   17   -2925.4681092445      9.62E-09 Convergence criterion met
 Total energy in the final basis set = -2925.46810924
   17   -2925.4648187285      9.89E-09 Convergence criterion met
 Total energy in the final basis set = -2925.46481873
   17   -2925.4665619509      7.40E-09 Convergence criterion met
 Total energy in the final basis set = -2925.46656195
   18   -2925.4675915615      7.32E-09 Convergence criterion met
 Total energy in the final basis set = -2925.46759156
   17   -2925.4681426277      8.87E-09 Convergence criterion met
 Total energy in the final basis set = -2925.46814263

                    Orbital Energies (a.u.)
 --------------------------------------------------------------

 Alpha MOs
 -- Occupied --
-14.774 -14.683 -10.540 -10.533 -10.532 -10.496 -10.495 -10.491
-10.491 -10.487 -10.486 -10.484 -10.484 -10.482 -10.482 -10.482
-10.481 -10.481 -10.480 -10.480 -10.480 -10.478 -10.461 -10.454
-10.454 -10.452 -10.451 -10.451 -10.450 -10.450 -10.450 -10.449
-10.449 -10.449 -10.449 -10.448 -10.448 -10.448 -10.448 -10.447
-10.447 -10.446 -10.445 -10.445 -10.445 -10.445 -10.444 -10.443
-10.443 -10.442 -10.442 -10.442 -10.441 -10.440 -10.440 -10.437
-10.437 -10.436 -10.436 -10.436 -10.436 -10.436 -10.435 -10.435
-10.435 -10.434 -10.433 -10.417 -10.416 -10.413 -10.412 -10.412
-10.409 -10.409  -6.905  -6.902  -1.165  -1.104  -1.015  -1.001
 -1.001  -0.993  -0.979  -0.967  -0.947  -0.944  -0.942  -0.937
 -0.926  -0.921  -0.921  -0.904  -0.892  -0.887  -0.886  -0.882
 -0.881  -0.865  -0.852  -0.847  -0.842  -0.841  -0.838  -0.837
 -0.835  -0.835  -0.806  -0.806  -0.802  -0.797  -0.797  -0.792
 -0.787  -0.786  -0.768  -0.759  -0.758  -0.735  -0.731  -0.726
 -0.719  -0.714  -0.714  -0.705  -0.693  -0.689  -0.683  -0.681
 -0.675  -0.668  -0.665  -0.661  -0.649  -0.649  -0.637  -0.637
 -0.631  -0.629  -0.627  -0.627  -0.612  -0.589  -0.587  -0.583
 -0.581  -0.580  -0.579  -0.576  -0.569  -0.568  -0.566  -0.561
 -0.560  -0.557  -0.550  -0.544  -0.543  -0.537  -0.535  -0.529
 -0.528  -0.525  -0.518  -0.515  -0.515  -0.513  -0.512  -0.505
 -0.497  -0.495  -0.494  -0.493  -0.491  -0.489  -0.487  -0.486
 -0.483  -0.480  -0.477  -0.476  -0.475  -0.474  -0.474  -0.473
 -0.472  -0.470  -0.466  -0.461  -0.460  -0.458  -0.457  -0.456
 -0.455  -0.453  -0.451  -0.448  -0.448  -0.446  -0.441  -0.438
 -0.433  -0.429  -0.428  -0.428  -0.426  -0.423  -0.419  -0.418
 -0.415  -0.412  -0.411  -0.411  -0.410  -0.400  -0.394  -0.393
 -0.390  -0.387  -0.386  -0.386  -0.385  -0.384  -0.382  -0.378
 -0.374  -0.368  -0.362  -0.359  -0.358  -0.352  -0.336  -0.329
 -0.327  -0.327  -0.323  -0.310  -0.310  -0.303  -0.297  -0.296
 -0.292  -0.288  -0.286  -0.272  -0.272  -0.268  -0.255  -0.251
 -0.244  -0.241  -0.235  -0.152

 Beta MOs
 -- Occupied --
-14.783 -14.683 -10.540 -10.531 -10.531 -10.497 -10.497 -10.493
-10.493 -10.486 -10.486 -10.484 -10.484 -10.483 -10.483 -10.482
-10.482 -10.481 -10.481 -10.479 -10.479 -10.478 -10.465 -10.455
-10.455 -10.451 -10.450 -10.450 -10.450 -10.450 -10.450 -10.450
-10.449 -10.448 -10.448 -10.448 -10.448 -10.448 -10.447 -10.447
-10.446 -10.446 -10.445 -10.445 -10.445 -10.445 -10.444 -10.443
-10.443 -10.442 -10.442 -10.441 -10.440 -10.439 -10.439 -10.437
-10.437 -10.436 -10.436 -10.436 -10.436 -10.436 -10.436 -10.435
-10.435 -10.434 -10.434 -10.417 -10.416 -10.414 -10.412 -10.412
-10.408 -10.408  -6.901  -6.900  -1.179  -1.104  -1.020  -1.001
 -1.001  -0.995  -0.984  -0.967  -0.947  -0.943  -0.941  -0.937
 -0.930  -0.920  -0.920  -0.904  -0.893  -0.889  -0.888  -0.882
 -0.881  -0.865  -0.852  -0.850  -0.846  -0.841  -0.837  -0.837
 -0.834  -0.834  -0.806  -0.804  -0.801  -0.797  -0.796  -0.795
 -0.789  -0.784  -0.772  -0.759  -0.758  -0.736  -0.734  -0.726
 -0.718  -0.713  -0.712  -0.705  -0.695  -0.688  -0.683  -0.682
 -0.674  -0.670  -0.665  -0.658  -0.649  -0.648  -0.637  -0.637
 -0.631  -0.630  -0.629  -0.629  -0.615  -0.591  -0.588  -0.587
 -0.583  -0.580  -0.579  -0.574  -0.569  -0.568  -0.565  -0.562
 -0.560  -0.560  -0.551  -0.549  -0.544  -0.538  -0.534  -0.531
 -0.530  -0.528  -0.518  -0.515  -0.515  -0.513  -0.512  -0.503
 -0.500  -0.495  -0.494  -0.494  -0.491  -0.490  -0.486  -0.486
 -0.483  -0.480  -0.476  -0.476  -0.475  -0.474  -0.474  -0.471
 -0.471  -0.469  -0.466  -0.461  -0.460  -0.460  -0.459  -0.458
 -0.456  -0.455  -0.454  -0.453  -0.451  -0.446  -0.440  -0.440
 -0.434  -0.430  -0.428  -0.427  -0.425  -0.421  -0.419  -0.418
 -0.416  -0.412  -0.411  -0.411  -0.408  -0.407  -0.399  -0.394
 -0.390  -0.387  -0.385  -0.383  -0.383  -0.383  -0.382  -0.378
 -0.374  -0.372  -0.368  -0.358  -0.352  -0.350  -0.340  -0.335
 -0.335  -0.327  -0.322  -0.314  -0.314  -0.304  -0.299  -0.296
 -0.295  -0.284  -0.284  -0.284  -0.272  -0.268  -0.262  -0.251
 -0.247  -0.242  -0.235  -0.234

          Ground-State Mulliken Net Atomic Charges

     Atom                 Charge (a.u.)    Spin (a.u.)
  --------------------------------------------------------
      1 N                    -0.676775      -0.328505
      2 C                     0.366820      -0.037615
      3 C                     0.337798       0.099812
      4 C                    -0.260002      -0.158292
      5 H                     0.298992       0.008367
      6 C                    -0.249507       0.093116
      7 H                     0.272411      -0.004189
      8 C                     0.328470       0.099753
      9 C                    -0.259518      -0.160429
     10 H                     0.300103       0.008578
     11 C                    -0.247989       0.093434
     12 H                     0.272625      -0.004213
     13 C                    -0.222016      -0.154530
     14 H                     0.271615       0.008497
     15 C                    -0.349279       0.046822
     16 H                     0.260553      -0.002402
     17 C                     0.115076      -0.082373
     18 C                    -0.222648      -0.153776
     19 H                     0.271384       0.008459
     20 C                    -0.347660       0.047219
     21 H                     0.260728      -0.002423
     22 C                     0.103166      -0.082131
     23 C                    -0.373101      -0.104498
     24 H                     0.293682       0.006247
     25 C                     0.045960       0.080513
     26 C                    -0.374590      -0.103614
     27 H                     0.290916       0.006321
     28 C                     0.033285       0.081993
     29 C                    -0.140003      -0.308989
     30 C                    -0.755777      -0.004985
     31 H                     0.246703       0.002402
     32 H                     0.267483       0.001407
     33 H                     0.268155      -0.000510
     34 C                    -0.759746      -0.005009
     35 H                     0.247641       0.002508
     36 H                     0.269044      -0.000592
     37 H                     0.269290       0.001393
     38 B                     0.551929       0.356792
     39 C                    -0.134232       0.002806
     40 C                    -0.404764      -0.019301
     41 H                     0.207576       0.000749
     42 C                     0.059794       0.044424
     43 C                     0.082732       0.089528
     44 C                    -0.417308      -0.055619
     45 H                     0.220826       0.002113
     46 C                    -0.146009       0.059435
     47 C                     0.179211      -0.057115
     48 C                    -0.408090       0.085175
     49 H                     0.236364      -0.004981
     50 C                    -0.076945       0.023827
     51 C                     0.229113      -0.038572
     52 C                     0.179694      -0.046674
     53 C                    -0.401630       0.072236
     54 H                     0.227276      -0.004251
     55 C                    -0.223950      -0.053408
     56 H                     0.241883       0.002582
     57 C                    -0.361780       0.077763
     58 H                     0.236913      -0.004573
     59 C                    -0.227610      -0.047409
     60 H                     0.239254       0.002325
     61 C                    -0.357494       0.067378
     62 H                     0.236749      -0.003932
     63 C                    -0.139758      -0.002746
     64 C                    -0.406957      -0.013622
     65 H                     0.205968       0.000654
     66 C                     0.065453       0.036841
     67 C                     0.076799       0.090946
     68 C                    -0.402097      -0.057992
     69 H                     0.229837       0.002239
     70 C                    -0.140622       0.064368
     71 C                     0.184777      -0.056209
     72 C                    -0.412986       0.083519
     73 H                     0.241929      -0.004968
     74 C                    -0.078047       0.022915
     75 C                     0.226403      -0.036957
     76 C                     0.180350      -0.043193
     77 C                    -0.404630       0.067177
     78 H                     0.225843      -0.003968
     79 C                    -0.226297      -0.044424
     80 H                     0.239195       0.002186
     81 C                    -0.356800       0.062333
     82 H                     0.237449      -0.003627
     83 C                    -0.226301      -0.051872
     84 H                     0.242808       0.002504
     85 C                    -0.359615       0.075819
     86 H                     0.237210      -0.004458
     87 B                     0.560931       0.280071
     88 C                    -0.182907      -0.023965
     89 C                     0.031433       0.003152
     90 C                    -0.336004      -0.000501
     91 H                     0.240129       0.000345
     92 C                     0.268956       0.000419
     93 C                    -0.346118      -0.000442
     94 H                     0.241350       0.000300
     95 C                     0.024723       0.003014
     96 N                    -0.725274      -0.000023
     97 C                     0.336388       0.000010
     98 C                     0.347593       0.000006
     99 C                    -0.300422       0.000001
    100 H                     0.253590      -0.000000
    101 C                    -0.261229       0.000000
    102 H                     0.239069       0.000000
    103 C                    -0.299246       0.000023
    104 H                     0.259406      -0.000009
    105 C                    -0.262862       0.000000
    106 H                     0.240099       0.000021
    107 C                    -0.253767      -0.000002
    108 H                     0.234572      -0.000000
    109 C                    -0.364251       0.000002
    110 H                     0.229584       0.000000
    111 C                     0.088298      -0.000003
    112 C                    -0.255583      -0.000001
    113 H                     0.234644       0.000000
    114 C                    -0.361366       0.000000
    115 H                     0.229946       0.000000
    116 C                     0.070570      -0.000001
    117 C                    -0.760935       0.000492
    118 H                     0.240916       0.001568
    119 H                     0.247163      -0.000737
    120 H                     0.250133      -0.000883
    121 C                    -0.755794       0.000568
    122 H                     0.239235       0.001392
    123 H                     0.245287      -0.000686
    124 H                     0.249034      -0.000661
  --------------------------------------------------------
  Sum of atomic charges =    -0.000000

                    Cartesian Multipole Moments
 -----------------------------------------------------------------
    Charge (ESU x 10^10)
                -0.0000
    Dipole Moment (Debye)
         X       1.8252      Y       0.3516      Z     -30.5786
       Tot      30.6350
    Quadrupole Moments (Debye-Ang)
        XX    -415.3251     XY       2.2301     YY    -441.5368
        XZ      13.7428     YZ      27.0994     ZZ    -665.7129

             Standard Nuclear Orientation (Angstroms)
    I     Atom           X                Y                Z
 ----------------------------------------------------------------
    1      N       0.1522518579    -0.3812221659     0.1899066260
    2      C       0.1050226419    -0.1990880443     1.5559910973
    3      C       1.3033423807    -0.4530367118    -0.6051448110
    4      C       2.6356919299    -0.2560656550    -0.2657229531
    5      H       2.9482715829    -0.0244854076     0.7406275401
    6      C       3.5720038892    -0.3468524001    -1.2867659661
    7      H       4.6186434569    -0.2097208293    -1.0540374458
    8      C      -0.9655574901    -0.5524279831    -0.6314487812
    9      C      -2.3100642853    -0.6600712778    -0.2899961373
   10      H      -2.6573434498    -0.5982135067     0.7301984359
   11      C      -3.2160237950    -0.8869731489    -1.3163789960
   12      H      -4.2678794756    -0.9678548197    -1.0794856521
   13      C      -2.7954125251    -1.0306110896    -2.6349469135
   14      H      -3.5245431275    -1.2132062552    -3.4125793666
   15      C      -1.4457059684    -0.9698419863    -2.9611139295
   16      H      -1.1207638700    -1.1167252495    -3.9835301002
   17      C      -0.5335182236    -0.7353243217    -1.9524841402
   18      C       3.1893361395    -0.5913443503    -2.6018823350
   19      H       3.9433411899    -0.6482491057    -3.3753273929
   20      C       1.8494907773    -0.7391372527    -2.9401444099
   21      H       1.5548817336    -0.8950619330    -3.9699681347
   22      C       0.9077569531    -0.6675621529    -1.9362379955
   23      C      -0.8549577892     0.6626546523     2.1134986324
   24      H      -1.4837149918     1.2581844374     1.4656014419
   25      C      -0.9425608188     0.8050996991     3.4793483622
   26      C       0.9866503790    -0.9073117585     2.3864985643
   27      H       1.6794267329    -1.6179278987     1.9556187903
   28      C       0.8863949612    -0.7904202740     3.7517381651
   29      C      -0.0869755822     0.0611686532     4.3267695557
   30      C      -1.9419752199     1.7463448357     4.0761209714
   31      H      -2.5334738970     2.2443583205     3.3093392791
   32      H      -1.4485020230     2.5110260637     4.6783857738
   33      H      -2.6243431460     1.2155144848     4.7430241193
   34      C       1.7807471480    -1.5992496777     4.6378560052
   35      H       2.4822399613    -2.1965701703     4.0581053418
   36      H       2.3518189397    -0.9534069343     5.3069513772
   37      H       1.2017667911    -2.2734313116     5.2723570245
   38      B      -0.2296480113     0.1259212517     5.8976481762
   39      C       0.5879471757     1.1286127162     6.6986841600
   40      C       1.3848763255     2.0823618206     6.0438554947
   41      H       1.4010230818     2.1129666505     4.9570538828
   42      C       2.1368097887     2.9736197069     6.7605646384
   43      C       2.1364983649     2.9433660354     8.1884373974
   44      C       1.3695976410     2.0062541683     8.8496469980
   45      H       1.3714146124     1.9646018982     9.9343551512
   46      C       0.5748550248     1.0867654821     8.1278617942
   47      C       3.0384852922     3.9992441879     8.6513465562
   48      C       3.4610708949     4.4638777940     9.8726504961
   49      H       3.1140655969     4.0271479080    10.8003672905
   50      C       3.5412104057     4.6296503248     7.4914006104
   51      C       4.4382192250     5.6941731104     7.4922096425
   52      C       3.0227271055     4.0408084547     6.3213580056
   53      C       3.4143889322     4.5330158434     5.1013278910
   54      H       3.0461115333     4.1171518900     4.1705341780
   55      C       4.3735444349     5.5462023712     9.9043538957
   56      H       4.7044206025     5.9123979346    10.8678553646
   57      C       4.8545685047     6.1521497925     8.7652900452
   58      H       5.5512046637     6.9782073209     8.8436722609
   59      C       4.3222381340     5.6153494219     5.0733256929
   60      H       4.6312911310     6.0054165118     4.1116458772
   61      C       4.8257006258     6.1880654535     6.2204120182
   62      H       5.5204052927     7.0159512310     6.1482909145
   63      C      -1.1346638028    -0.8852572843     6.6003653213
   64      C      -1.9172844633    -1.8012982004     5.8661623357
   65      H      -1.8952542741    -1.7819855627     4.7800826201
   66      C      -2.7021057816    -2.7220348731     6.5105591755
   67      C      -2.7357134811    -2.7622946118     7.9362810659
   68      C      -1.9752310623    -1.8835640202     8.6671385851
   69      H      -1.9989845025    -1.9345468057     9.7495959670
   70      C      -1.1582834915    -0.9278964784     8.0277832480
   71      C      -3.6318456933    -3.8460090657     8.3369794206
   72      C      -4.0623448053    -4.3749374213     9.5296000556
   73      H      -3.7407318056    -3.9731579359    10.4835590344
   74      C      -4.1083642473    -4.4242439795     7.1413173584
   75      C      -4.9863148501    -5.5056448364     7.0839442816
   76      C      -3.5783728865    -3.7776169461     6.0054665463
   77      C      -3.9459267209    -4.2312929667     4.7617689469
   78      H      -3.5701181641    -3.7777597040     3.8520084311
   79      C      -4.8381801775    -5.3253863703     4.6754879238
   80      H      -5.1252501519    -5.6811630735     3.6939322172
   81      C      -5.3498026272    -5.9530468182     5.7892668774
   82      H      -6.0285284893    -6.7897343165     5.6751352141
   83      C      -4.9555644296    -5.4736262911     9.5005977334
   84      H      -5.2929291701    -5.8873296390    10.4425330294
   85      C      -5.4104120994    -6.0330957235     8.3276515231
   86      H      -6.0919559695    -6.8748306448     8.3561452172
   87      B      -0.2635923668     0.0273376886     8.8476384362
   88      C      -0.2252441898    -0.2636832481    10.3974304511
   89      C      -1.2444202877     0.1882918354    11.2417911381
   90      C      -1.4087544550    -0.3785777178    12.5031089410
   91      H      -2.2490821665    -0.0962074301    13.1272325112
   92      C      -0.5518903541    -1.3846481769    12.9228408266
   93      C       0.5273044461    -1.7585870136    12.1353297900
   94      H       1.1960511151    -2.5375223530    12.4839746246
   95      C       0.6898611675    -1.2070224357    10.8699820923
   96      N      -0.8616957341    -2.1573073972    14.0684788488
   97      C      -1.3715996267    -3.4333481989    13.9895816369
   98      C      -0.7507501749    -1.8068762264    15.3926949543
   99      C      -0.2794824254    -0.6253717656    15.9494783494
  100      H       0.0664564544     0.1888833417    15.3275061090
  101      C      -0.2653595110    -0.5365728926    17.3307202119
  102      H       0.0983934185     0.3699987312    17.7959435418
  103      C      -1.6650403816    -4.1894580536    12.8572702183
  104      H      -1.4897118243    -3.8081078622    11.8601390572
  105      C      -2.1855335010    -5.4572365205    13.0515781832
  106      H      -2.4191982629    -6.0680107280    12.1886813517
  107      C      -2.4136344226    -5.9651927106    14.3354034892
  108      H      -2.8188998463    -6.9619507563    14.4497639508
  109      C      -2.1282291415    -5.2039126951    15.4544330110
  110      H      -2.3076854528    -5.5998292917    16.4462265682
  111      C      -1.6020517536    -3.9258177944    15.2859070065
  112      C      -0.7105070622    -1.5896579352    18.1386533796
  113      H      -0.6847556209    -1.4826204627    19.2150568611
  114      C      -1.1769572559    -2.7636405732    17.5753621401
  115      H      -1.5146732125    -3.5791110114    18.2026548536
  116      C      -1.1993652599    -2.8808545564    16.1890567323
  117      C       1.7866054777    -1.6999136245     9.9685931139
  118      H       2.4731137974    -2.3642121276    10.4938258048
  119      H       2.3659475675    -0.8750180877     9.5500446857
  120      H       1.3728519221    -2.2534257162     9.1214748977
  121      C      -2.2319660784     1.1993254829    10.7348713676
  122      H      -2.9253364367     1.5138718536    11.5149545429
  123      H      -1.7264691861     2.0879027112    10.3529317207
  124      H      -2.8207887253     0.7922758942     9.9095059690
 ----------------------------------------------------------------
