 Q-Chem 5.0, Q-Chem, Inc., Pleasanton, CA (2017)
 Q-Chem 5.0.1 for Intel X86 EM64T Linux

User input:
--------------------------------------------------------------
$rem
threads 8
jobtype	sp
method PBEh-3c
basis def2-mSVP
mem_static	1024
mem_total	8000
sym_ignore	true
unrestricted true
scf_convergence	9
solvent_method	pcm
$end

$molecule
read moms1opt_eth_opt.mol
$end

$solvent
dielectric	8.93
$end

$pcm
theory iefpcm
$end
--------------------------------------------------------------

   17   -2925.5541761951      4.45E-10 Convergence criterion met
 Total energy in the final basis set = -2925.55417620
 Total job time:  3327.74s(wall), 10523.55s(cpu)
        *  Thank you very much for using Q-Chem.  Have a nice day.  *
 Q-Chem 5.0, Q-Chem, Inc., Pleasanton, CA (2017)
 Q-Chem 5.0.1 for Intel X86 EM64T Linux

User input:
--------------------------------------------------------------

$rem
threads 8
jobtype opt
method PBEh-3c
basis def2-mSVP
scf_guess	read
mem_static      1024
mem_total       8000
sym_ignore      true
unrestricted true
mom_start       1
scf_algorithm	diis
scf_max_cycles	250
solvent_method	pcm
geom_opt_tol_energy 25
geom_opt_tol_gradient 75
$end

$solvent
dielectric      8.93
$end
$pcm
theory iefpcm
$end

$occupied
1 2 3 4 5 6 7 8 9 10 11 12 13 14 15 16 17 18 19 20 21 22 23 24 25 26 27 28 29 30 31 32 33 34 35 36 37 38 39 40 41 42 43 44 45 46 47 48 49 50 51 52 53 54 55 56 57 58 59 60 61 62 63 64 65 66 67 68 69 70 71 72 73 74 75 76 77 78 79 80 81 82 83 84 85 86 87 88 89 90 91 92 93 94 95 96 97 98 99 100 101 102 103 104 105 106 107 108 109 110 111 112 113 114 115 116 117 118 119 120 121 122 123 124 125 126 127 128 129 130 131 132 133 134 135 136 137 138 139 140 141 142 143 144 145 146 147 148 149 150 151 152 153 154 155 156 157 158 159 160 161 162 163 164 165 166 167 168 169 170 171 172 173 174 175 176 177 178 179 180 181 182 183 184 185 186 187 188 189 190 191 192 193 194 195 196 197 198 199 200 201 202 203 204 205 206 207 208 209 210 211 212 213 214 215 216 217 218 219 220 221 222 223 224 225 226 227 228 229 230 231 232 233 234 235 236 237 238 239 240 241 242 243 244 245 246 247 248 249 250 251  253
1 2 3 4 5 6 7 8 9 10 11 12 13 14 15 16 17 18 19 20 21 22 23 24 25 26 27 28 29 30 31 32 33 34 35 36 37 38 39 40 41 42 43 44 45 46 47 48 49 50 51 52 53 54 55 56 57 58 59 60 61 62 63 64 65 66 67 68 69 70 71 72 73 74 75 76 77 78 79 80 81 82 83 84 85 86 87 88 89 90 91 92 93 94 95 96 97 98 99 100 101 102 103 104 105 106 107 108 109 110 111 112 113 114 115 116 117 118 119 120 121 122 123 124 125 126 127 128 129 130 131 132 133 134 135 136 137 138 139 140 141 142 143 144 145 146 147 148 149 150 151 152 153 154 155 156 157 158 159 160 161 162 163 164 165 166 167 168 169 170 171 172 173 174 175 176 177 178 179 180 181 182 183 184 185 186 187 188 189 190 191 192 193 194 195 196 197 198 199 200 201 202 203 204 205 206 207 208 209 210 211 212 213 214 215 216 217 218 219 220 221 222 223 224 225 226 227 228 229 230 231 232 233 234 235 236 237 238 239 240 241 242 243 244 245 246 247 248 249 250 251 252
$end

$molecule
read moms1opt_eth_opt.mol
$end

--------------------------------------------------------------

   20   -2925.4772702268      8.53E-09 Convergence criterion met
 Total energy in the final basis set = -2925.47727023
   18   -2925.4782446382      8.69E-09 Convergence criterion met
 Total energy in the final basis set = -2925.47824464
   19   -2925.4781769764      6.47E-09 Convergence criterion met
 Total energy in the final basis set = -2925.47817698
   19   -2925.4780758720      6.25E-09 Convergence criterion met
 Total energy in the final basis set = -2925.47807587
   19   -2925.4781014142      7.41E-09 Convergence criterion met
 Total energy in the final basis set = -2925.47810141
   19   -2925.4781446318      7.64E-09 Convergence criterion met
 Total energy in the final basis set = -2925.47814463
   19   -2925.4781306922      7.77E-09 Convergence criterion met
 Total energy in the final basis set = -2925.47810793
   18   -2925.4780743243      9.62E-09 Convergence criterion met
 Total energy in the final basis set = -2925.47807432
   18   -2925.4781293045      8.47E-09 Convergence criterion met
 Total energy in the final basis set = -2925.47812930
   19   -2925.4781480489      7.33E-09 Convergence criterion met
 Total energy in the final basis set = -2925.47814805
   19   -2925.4781768600      6.63E-09 Convergence criterion met
 Total energy in the final basis set = -2925.47817686
   19   -2925.4781745747      8.34E-09 Convergence criterion met
 Total energy in the final basis set = -2925.47817457
   19   -2925.4781702682      8.47E-09 Convergence criterion met
 Total energy in the final basis set = -2925.47817027
   19   -2925.4781593822      8.41E-09 Convergence criterion met
 Total energy in the final basis set = -2925.47815938

                    Orbital Energies (a.u.)
 --------------------------------------------------------------

 Alpha MOs
 -- Occupied --
-14.772 -14.687 -10.533 -10.529 -10.529 -10.492 -10.491 -10.488
-10.487 -10.486 -10.485 -10.482 -10.482 -10.482 -10.479 -10.479
-10.478 -10.478 -10.476 -10.476 -10.475 -10.475 -10.458 -10.457
-10.455 -10.454 -10.454 -10.453 -10.453 -10.453 -10.453 -10.452
-10.452 -10.452 -10.451 -10.451 -10.451 -10.451 -10.451 -10.450
-10.450 -10.449 -10.449 -10.449 -10.449 -10.449 -10.448 -10.447
-10.447 -10.446 -10.446 -10.445 -10.445 -10.444 -10.444 -10.441
-10.440 -10.440 -10.440 -10.440 -10.440 -10.439 -10.439 -10.438
-10.437 -10.434 -10.433 -10.421 -10.420 -10.418 -10.415 -10.414
-10.413 -10.413  -6.907  -6.906  -1.161  -1.109  -1.011  -1.005
 -1.005  -0.989  -0.975  -0.971  -0.951  -0.948  -0.945  -0.941
 -0.924  -0.924  -0.922  -0.899  -0.894  -0.885  -0.885  -0.883
 -0.882  -0.869  -0.851  -0.848  -0.845  -0.843  -0.842  -0.838
 -0.837  -0.836  -0.810  -0.809  -0.805  -0.800  -0.800  -0.789
 -0.788  -0.784  -0.764  -0.763  -0.762  -0.731  -0.729  -0.727
 -0.722  -0.717  -0.716  -0.708  -0.692  -0.689  -0.686  -0.679
 -0.677  -0.668  -0.664  -0.663  -0.652  -0.652  -0.642  -0.640
 -0.634  -0.632  -0.623  -0.623  -0.607  -0.591  -0.589  -0.587
 -0.584  -0.582  -0.579  -0.575  -0.572  -0.569  -0.565  -0.563
 -0.562  -0.552  -0.549  -0.549  -0.538  -0.538  -0.532  -0.531
 -0.525  -0.521  -0.520  -0.518  -0.515  -0.515  -0.511  -0.507
 -0.499  -0.497  -0.496  -0.493  -0.491  -0.490  -0.488  -0.487
 -0.487  -0.483  -0.479  -0.478  -0.477  -0.477  -0.476  -0.476
 -0.473  -0.473  -0.469  -0.464  -0.463  -0.459  -0.457  -0.457
 -0.454  -0.454  -0.453  -0.447  -0.445  -0.444  -0.441  -0.434
 -0.432  -0.431  -0.430  -0.428  -0.426  -0.425  -0.422  -0.421
 -0.418  -0.416  -0.414  -0.414  -0.407  -0.403  -0.397  -0.393
 -0.391  -0.390  -0.389  -0.389  -0.388  -0.387  -0.385  -0.381
 -0.377  -0.372  -0.362  -0.362  -0.358  -0.354  -0.340  -0.332
 -0.331  -0.326  -0.321  -0.314  -0.307  -0.305  -0.300  -0.293
 -0.292  -0.290  -0.290  -0.276  -0.276  -0.272  -0.258  -0.255
 -0.248  -0.245  -0.240  -0.155

 Beta MOs
 -- Occupied --
-14.782 -14.687 -10.533 -10.528 -10.527 -10.493 -10.493 -10.490
-10.490 -10.486 -10.485 -10.482 -10.482 -10.481 -10.480 -10.480
-10.478 -10.478 -10.477 -10.476 -10.475 -10.475 -10.459 -10.458
-10.458 -10.455 -10.454 -10.454 -10.453 -10.453 -10.452 -10.452
-10.452 -10.451 -10.451 -10.451 -10.451 -10.450 -10.450 -10.450
-10.449 -10.449 -10.449 -10.449 -10.449 -10.449 -10.448 -10.447
-10.447 -10.446 -10.446 -10.445 -10.444 -10.443 -10.443 -10.440
-10.440 -10.440 -10.440 -10.440 -10.440 -10.439 -10.439 -10.438
-10.438 -10.434 -10.433 -10.421 -10.420 -10.418 -10.415 -10.414
-10.412 -10.412  -6.904  -6.904  -1.175  -1.109  -1.015  -1.004
 -1.004  -0.991  -0.980  -0.971  -0.951  -0.947  -0.944  -0.941
 -0.926  -0.923  -0.923  -0.900  -0.894  -0.887  -0.885  -0.885
 -0.884  -0.869  -0.851  -0.847  -0.846  -0.845  -0.841  -0.840
 -0.837  -0.836  -0.809  -0.808  -0.804  -0.800  -0.799  -0.791
 -0.788  -0.786  -0.768  -0.763  -0.762  -0.732  -0.731  -0.729
 -0.721  -0.716  -0.715  -0.708  -0.692  -0.690  -0.686  -0.679
 -0.677  -0.667  -0.667  -0.661  -0.652  -0.651  -0.641  -0.640
 -0.634  -0.633  -0.626  -0.625  -0.610  -0.591  -0.588  -0.587
 -0.587  -0.582  -0.581  -0.577  -0.571  -0.569  -0.566  -0.562
 -0.562  -0.557  -0.550  -0.548  -0.545  -0.538  -0.533  -0.530
 -0.527  -0.525  -0.521  -0.518  -0.515  -0.515  -0.511  -0.505
 -0.499  -0.497  -0.496  -0.494  -0.491  -0.489  -0.489  -0.488
 -0.487  -0.483  -0.479  -0.478  -0.477  -0.476  -0.475  -0.475
 -0.472  -0.472  -0.469  -0.464  -0.463  -0.459  -0.457  -0.457
 -0.456  -0.456  -0.454  -0.454  -0.451  -0.446  -0.441  -0.437
 -0.431  -0.431  -0.430  -0.428  -0.426  -0.425  -0.422  -0.421
 -0.415  -0.415  -0.413  -0.413  -0.410  -0.405  -0.402  -0.397
 -0.393  -0.390  -0.388  -0.387  -0.387  -0.386  -0.384  -0.381
 -0.377  -0.372  -0.368  -0.361  -0.355  -0.353  -0.338  -0.337
 -0.336  -0.331  -0.325  -0.313  -0.309  -0.307  -0.303  -0.300
 -0.291  -0.288  -0.287  -0.281  -0.276  -0.271  -0.265  -0.255
 -0.251  -0.245  -0.240  -0.238

          Ground-State Mulliken Net Atomic Charges

     Atom                 Charge (a.u.)    Spin (a.u.)
  --------------------------------------------------------
      1 N                    -0.671078      -0.350501
      2 C                     0.357008      -0.013642
      3 C                     0.338587       0.104874
      4 C                    -0.257349      -0.171675
      5 H                     0.302699       0.009037
      6 C                    -0.253619       0.100965
      7 H                     0.277664      -0.004503
      8 C                     0.330020       0.104883
      9 C                    -0.256761      -0.174445
     10 H                     0.304287       0.009286
     11 C                    -0.252203       0.101925
     12 H                     0.277663      -0.004552
     13 C                    -0.223970      -0.169235
     14 H                     0.277846       0.009266
     15 C                    -0.350937       0.047595
     16 H                     0.268840      -0.002417
     17 C                     0.115427      -0.086569
     18 C                    -0.224513      -0.167353
     19 H                     0.277542       0.009172
     20 C                    -0.348960       0.047440
     21 H                     0.268977      -0.002411
     22 C                     0.102299      -0.085582
     23 C                    -0.367946      -0.108264
     24 H                     0.298130       0.006267
     25 C                     0.044941       0.083762
     26 C                    -0.370876      -0.107707
     27 H                     0.294030       0.006352
     28 C                     0.025397       0.085704
     29 C                    -0.143072      -0.280016
     30 C                    -0.756037      -0.005639
     31 H                     0.252106       0.002225
     32 H                     0.261673       0.001549
     33 H                     0.262790       0.000253
     34 C                    -0.761644      -0.005563
     35 H                     0.253650       0.002357
     36 H                     0.263014       0.000388
     37 H                     0.265366       0.001239
     38 B                     0.543920       0.346608
     39 C                    -0.137205       0.012142
     40 C                    -0.407008      -0.026181
     41 H                     0.217546       0.001005
     42 C                     0.054423       0.052622
     43 C                     0.074608       0.084119
     44 C                    -0.419781      -0.051498
     45 H                     0.222947       0.001881
     46 C                    -0.144943       0.054550
     47 C                     0.173512      -0.056457
     48 C                    -0.410917       0.084909
     49 H                     0.242457      -0.004948
     50 C                    -0.078684       0.024388
     51 C                     0.220810      -0.039480
     52 C                     0.174322      -0.049409
     53 C                    -0.404597       0.076128
     54 H                     0.237547      -0.004448
     55 C                    -0.230762      -0.053588
     56 H                     0.248750       0.002582
     57 C                    -0.364462       0.077625
     58 H                     0.244869      -0.004533
     59 C                    -0.233585      -0.049455
     60 H                     0.247528       0.002403
     61 C                    -0.360794       0.070832
     62 H                     0.244646      -0.004117
     63 C                    -0.141399       0.005381
     64 C                    -0.408615      -0.019089
     65 H                     0.215995       0.000817
     66 C                     0.060543       0.043091
     67 C                     0.070099       0.084183
     68 C                    -0.405538      -0.053540
     69 H                     0.233476       0.002008
     70 C                    -0.141441       0.058547
     71 C                     0.181299      -0.054459
     72 C                    -0.416974       0.081431
     73 H                     0.247739      -0.004872
     74 C                    -0.080357       0.022850
     75 C                     0.218299      -0.036868
     76 C                     0.174919      -0.044668
     77 C                    -0.406794       0.068989
     78 H                     0.236171      -0.004048
     79 C                    -0.232513      -0.045182
     80 H                     0.247571       0.002203
     81 C                    -0.359764       0.063807
     82 H                     0.245452      -0.003697
     83 C                    -0.233060      -0.050880
     84 H                     0.249643       0.002449
     85 C                    -0.362512       0.074013
     86 H                     0.245341      -0.004321
     87 B                     0.543669       0.286673
     88 C                    -0.178480      -0.024608
     89 C                     0.029500       0.003250
     90 C                    -0.335642      -0.000364
     91 H                     0.244647       0.000349
     92 C                     0.260535       0.000376
     93 C                    -0.342280      -0.000333
     94 H                     0.245438       0.000284
     95 C                     0.019287       0.003087
     96 N                    -0.722854      -0.000020
     97 C                     0.335413       0.000010
     98 C                     0.347245       0.000004
     99 C                    -0.305915       0.000002
    100 H                     0.257533      -0.000000
    101 C                    -0.267101      -0.000000
    102 H                     0.246022       0.000000
    103 C                    -0.305358       0.000044
    104 H                     0.265038      -0.000019
    105 C                    -0.269265       0.000005
    106 H                     0.247166       0.000040
    107 C                    -0.259495      -0.000004
    108 H                     0.241620       0.000000
    109 C                    -0.368713       0.000003
    110 H                     0.237918       0.000000
    111 C                     0.084157      -0.000003
    112 C                    -0.261893      -0.000000
    113 H                     0.241602       0.000000
    114 C                    -0.365044       0.000000
    115 H                     0.238267       0.000000
    116 C                     0.064285      -0.000001
    117 C                    -0.762932       0.000342
    118 H                     0.245797       0.001723
    119 H                     0.247881      -0.000972
    120 H                     0.248515      -0.000726
    121 C                    -0.756509       0.000549
    122 H                     0.243578       0.001377
    123 H                     0.244487      -0.000637
    124 H                     0.248166      -0.000720
  --------------------------------------------------------
  Sum of atomic charges =    -0.000000

                    Cartesian Multipole Moments
 -----------------------------------------------------------------
    Charge (ESU x 10^10)
                -0.0000
    Dipole Moment (Debye)
         X       2.4420      Y      -0.9574      Z     -32.3509
       Tot      32.4571
    Quadrupole Moments (Debye-Ang)
        XX    -411.8257     XY       7.1019     YY    -439.0064
        XZ      16.0005     YZ      26.3210     ZZ    -674.4688

             Standard Nuclear Orientation (Angstroms)
    I     Atom           X                Y                Z
 ----------------------------------------------------------------
    1      N       0.2302407645    -0.4589998684     0.1887803731
    2      C       0.1515234728    -0.2370186959     1.5511789049
    3      C       1.3903907395    -0.4645473600    -0.5837183596
    4      C       2.6935033298    -0.1584347605    -0.2166504605
    5      H       2.9618758145     0.1143086741     0.7939467818
    6      C       3.6548154539    -0.1938685508    -1.2178274128
    7      H       4.6823477423     0.0300198558    -0.9676159822
    8      C      -0.8594862909    -0.7377715706    -0.6293057209
    9      C      -2.1924306154    -0.9311107180    -0.2819146384
   10      H      -2.5427860446    -0.8639434721     0.7380478198
   11      C      -3.0774891638    -1.2420738012    -1.3045049594
   12      H      -4.1223972667    -1.3889423571    -1.0684348699
   13      C      -2.6411118864    -1.3851634751    -2.6181999253
   14      H      -3.3542898443    -1.6347025688    -3.3921242240
   15      C      -1.2937071079    -1.2371184187    -2.9470277360
   16      H      -0.9576469360    -1.3840397196    -3.9650819735
   17      C      -0.4039234912    -0.9159474251    -1.9437389644
   18      C       3.3177953805    -0.4941151643    -2.5347949018
   19      H       4.0905095033    -0.5064237560    -3.2913417596
   20      C       1.9974120284    -0.7570081854    -2.8991206385
   21      H       1.7377853500    -0.9585264554    -3.9301854277
   22      C       1.0337440947    -0.7384106113    -1.9153128914
   23      C      -0.8661152231     0.5794759179     2.0625318469
   24      H      -1.5216973586     1.1129749861     1.3853563279
   25      C      -0.9851453571     0.7547544012     3.4248290442
   26      C       1.0634199524    -0.8619116956     2.4086696193
   27      H       1.8125550775    -1.5303405223     2.0036182734
   28      C       0.9308375270    -0.7145468808     3.7730959842
   29      C      -0.1049846328     0.0876782580     4.3046151110
   30      C      -2.0525627688     1.6493538101     3.9782264880
   31      H      -2.6291276114     2.1283831143     3.1878080214
   32      H      -1.6215214915     2.4302992705     4.6063343266
   33      H      -2.7435346341     1.0849687255     4.6071223744
   34      C       1.8674083549    -1.4375333181     4.6934207651
   35      H       2.5779491013    -2.0519624882     4.1417450635
   36      H       2.4311782704    -0.7313883553     5.3047643669
   37      H       1.3221689743    -2.0855553252     5.3814389136
   38      B      -0.2819798165     0.1680982178     5.8725063327
   39      C       0.5249379300     1.1705141543     6.6953830470
   40      C       1.3154882728     2.1453810613     6.0552573747
   41      H       1.3380058486     2.1929398233     4.9702631826
   42      C       2.0578875831     3.0340906729     6.7892887551
   43      C       2.0553765672     2.9785896807     8.2164333041
   44      C       1.2987444231     2.0241415283     8.8594434103
   45      H       1.2999786194     1.9663405397     9.9438699209
   46      C       0.5136141375     1.1084788409     8.1249382740
   47      C       2.9441719282     4.0356605846     8.7005547340
   48      C       3.3566310574     4.4829630981     9.9313918711
   49      H       3.0097549293     4.0280994811    10.8509968860
   50      C       3.4481942894     4.6885568066     7.5537729489
   51      C       4.3376355525     5.7591283418     7.5769559979
   52      C       2.9395664015     4.1156769415     6.3713239222
   53      C       3.3337152464     4.6308987039     5.1609464367
   54      H       2.9728932467     4.2274249424     4.2222740428
   55      C       4.2608774987     5.5704915478     9.9865606212
   56      H       4.5838650311     5.9203086306    10.9588169149
   57      C       4.7443556744     6.1989800792     8.8604407351
   58      H       5.4352715210     7.0275894559     8.9569428225
   59      C       4.2358113275     5.7193340038     5.1565258309
   60      H       4.5483314979     6.1282579654     4.2038268774
   61      C       4.7292179103     6.2757366760     6.3161182137
   62      H       5.4188261793     7.1093984850     6.2629356904
   63      C      -1.2010961538    -0.8382683063     6.5639967504
   64      C      -1.9959965977    -1.7353054512     5.8179472225
   65      H      -1.9683451079    -1.7066518336     4.7326841315
   66      C      -2.7995337632    -2.6489729942     6.4508607339
   67      C      -2.8389755287    -2.7041501185     7.8764106653
   68      C      -2.0644205520    -1.8459948794     8.6184245652
   69      H      -2.0928260123    -1.9057945485     9.7012286057
   70      C      -1.2299015215    -0.8964565114     7.9905991739
   71      C      -3.7559057474    -3.7771809668     8.2602886337
   72      C      -4.2003337901    -4.3137960559     9.4444086287
   73      H      -3.8788262066    -3.9278362711    10.4042699580
   74      C      -4.2333524513    -4.3373088110     7.0562886407
   75      C      -5.1245703668    -5.4070790005     6.9827918405
   76      C      -3.6877855270    -3.6873792301     5.9303609037
   77      C      -4.0543350600    -4.1238153265     4.6797628409
   78      H      -3.6675183637    -3.6660997962     3.7772194758
   79      C      -4.9605266894    -5.2055404981     4.5773561203
   80      H      -5.2471149547    -5.5478713441     3.5907655578
   81      C      -5.4862677561    -5.8374805285     5.6818296468
   82      H      -6.1752846665    -6.6641467575     5.5561110454
   83      C      -5.1060602690    -5.4010699977     9.3998510790
   84      H      -5.4514472150    -5.8206046282    10.3364184975
   85      C      -5.5619274591    -5.9427793887     8.2188685035
   86      H      -6.2534666787    -6.7766234275     8.2348011643
   87      B      -0.3222048373     0.0308633584     8.8253002631
   88      C      -0.2536000532    -0.3017317033    10.3699502463
   89      C      -1.1923811814     0.2081048008    11.2755549799
   90      C      -1.3311149428    -0.3652907728    12.5365921322
   91      H      -2.1076022804    -0.0231473024    13.2117462630
   92      C      -0.5280417553    -1.4344313412    12.9007810824
   93      C       0.4683079039    -1.8841029561    12.0485670268
   94      H       1.0925020937    -2.7166684928    12.3533156510
   95      C       0.6074566249    -1.3297576537    10.7820110529
   96      N      -0.8130500848    -2.1790438385    14.0703682316
   97      C      -1.4403418431    -3.4035677535    14.0337905001
   98      C      -0.5216386520    -1.8687135233    15.3776961223
   99      C       0.1186537017    -0.7480392504    15.8916048343
  100      H       0.4623574525     0.0496299063    15.2454561604
  101      C       0.3013293928    -0.6932556160    17.2625490726
  102      H       0.7971179777     0.1668895009    17.6937109870
  103      C      -1.9158669703    -4.1084462169    12.9307332819
  104      H      -1.8165746479    -3.7213962250    11.9243197939
  105      C      -2.5143296656    -5.3338941403    13.1641054784
  106      H      -2.8902332052    -5.9047357383    12.3239942201
  107      C      -2.6400168123    -5.8499292456    14.4595996924
  108      H      -3.1111520908    -6.8130034626    14.6062987313
  109      C      -2.1676403671    -5.1410479247    15.5500039859
  110      H      -2.2680800285    -5.5434918401    16.5505742747
  111      C      -1.5610213886    -3.9039250848    15.3411089065
  112      C      -0.1378202864    -1.7239782935    18.1022195688
  113      H       0.0239784476    -1.6464076339    19.1692008091
  114      C      -0.7724562014    -2.8377827294    17.5809123914
  115      H      -1.1078608830    -3.6364731200    18.2313087306
  116      C      -0.9690427681    -2.9175500018    16.2058292896
  117      C       1.6124929694    -1.9096859009     9.8259002417
  118      H       2.2999828872    -2.5890616229    10.3299228074
  119      H       2.2022288053    -1.1330085317     9.3376448413
  120      H       1.1151280372    -2.4735560419     9.0328177702
  121      C      -2.1259568186     1.3027762333    10.8412071221
  122      H      -2.7648082238     1.6390768548    11.6576145245
  123      H      -1.5782057602     2.1677939858    10.4637767322
  124      H      -2.7748121721     0.9629762325    10.0303431074
 ----------------------------------------------------------------
