 Q-Chem 5.0, Q-Chem, Inc., Pleasanton, CA (2017)
 Q-Chem 5.0.1 for Intel X86 EM64T Linux

User input:
--------------------------------------------------------------
$rem
threads 8
jobtype	sp
method PBEh-3c
basis def2-mSVP
mem_static	1024
mem_total	8000
sym_ignore	true
unrestricted true
scf_convergence	9
solvent_method	pcm
$end

$molecule
read incoords.mol
$end

$solvent
dielectric	2.38
$end

$pcm
theory iefpcm
$end
--------------------------------------------------------------

   17   -2925.5421184372      4.58E-10 Convergence criterion met
 Total energy in the final basis set = -2925.54211844
 Total job time:  3038.92s(wall), 9777.07s(cpu)
        *  Thank you very much for using Q-Chem.  Have a nice day.  *
 Q-Chem 5.0, Q-Chem, Inc., Pleasanton, CA (2017)
 Q-Chem 5.0.1 for Intel X86 EM64T Linux

User input:
--------------------------------------------------------------

$rem
threads 8
jobtype opt
method PBEh-3c
basis def2-mSVP
scf_guess	read
mem_static      1024
mem_total       8000
sym_ignore      true
unrestricted true
mom_start       1
scf_algorithm	diis
scf_max_cycles	250
solvent_method	pcm
geom_opt_tol_energy 25
geom_opt_tol_gradient 75
$end

$solvent
dielectric      2.38
$end

$pcm
theory iefpcm
$end

$occupied
1 2 3 4 5 6 7 8 9 10 11 12 13 14 15 16 17 18 19 20 21 22 23 24 25 26 27 28 29 30 31 32 33 34 35 36 37 38 39 40 41 42 43 44 45 46 47 48 49 50 51 52 53 54 55 56 57 58 59 60 61 62 63 64 65 66 67 68 69 70 71 72 73 74 75 76 77 78 79 80 81 82 83 84 85 86 87 88 89 90 91 92 93 94 95 96 97 98 99 100 101 102 103 104 105 106 107 108 109 110 111 112 113 114 115 116 117 118 119 120 121 122 123 124 125 126 127 128 129 130 131 132 133 134 135 136 137 138 139 140 141 142 143 144 145 146 147 148 149 150 151 152 153 154 155 156 157 158 159 160 161 162 163 164 165 166 167 168 169 170 171 172 173 174 175 176 177 178 179 180 181 182 183 184 185 186 187 188 189 190 191 192 193 194 195 196 197 198 199 200 201 202 203 204 205 206 207 208 209 210 211 212 213 214 215 216 217 218 219 220 221 222 223 224 225 226 227 228 229 230 231 232 233 234 235 236 237 238 239 240 241 242 243 244 245 246 247 248 249 250 251  253
1 2 3 4 5 6 7 8 9 10 11 12 13 14 15 16 17 18 19 20 21 22 23 24 25 26 27 28 29 30 31 32 33 34 35 36 37 38 39 40 41 42 43 44 45 46 47 48 49 50 51 52 53 54 55 56 57 58 59 60 61 62 63 64 65 66 67 68 69 70 71 72 73 74 75 76 77 78 79 80 81 82 83 84 85 86 87 88 89 90 91 92 93 94 95 96 97 98 99 100 101 102 103 104 105 106 107 108 109 110 111 112 113 114 115 116 117 118 119 120 121 122 123 124 125 126 127 128 129 130 131 132 133 134 135 136 137 138 139 140 141 142 143 144 145 146 147 148 149 150 151 152 153 154 155 156 157 158 159 160 161 162 163 164 165 166 167 168 169 170 171 172 173 174 175 176 177 178 179 180 181 182 183 184 185 186 187 188 189 190 191 192 193 194 195 196 197 198 199 200 201 202 203 204 205 206 207 208 209 210 211 212 213 214 215 216 217 218 219 220 221 222 223 224 225 226 227 228 229 230 231 232 233 234 235 236 237 238 239 240 241 242 243 244 245 246 247 248 249 250 251 252
$end

$molecule
read incoords.mol
$end

--------------------------------------------------------------

   20   -2925.4569045680      8.95E-09 Convergence criterion met
 Total energy in the final basis set = -2925.45690457
   16   -2925.4567441035      7.86E-09 Convergence criterion met
 Total energy in the final basis set = -2925.45674410
   16   -2925.4561783192      9.43E-09 Convergence criterion met
 Total energy in the final basis set = -2925.45617832
   16   -2925.4556024028      8.81E-09 Convergence criterion met
 Total energy in the final basis set = -2925.45560240
   17   -2925.4555957040      6.93E-09 Convergence criterion met
 Total energy in the final basis set = -2925.45559570
   16   -2925.4551944050      9.46E-09 Convergence criterion met
 Total energy in the final basis set = -2925.45519441
   16   -2925.4540118900      9.00E-09 Convergence criterion met
 Total energy in the final basis set = -2925.44961520
   16   -2925.4526882509      9.96E-09 Convergence criterion met
 Total energy in the final basis set = -2925.45268825
   16   -2925.4542090794      8.51E-09 Convergence criterion met
 Total energy in the final basis set = -2925.45420908
   17   -2925.4536229791      6.75E-09 Convergence criterion met
 Total energy in the final basis set = -2925.45362298
   17   -2925.4528398992      6.80E-09 Convergence criterion met
 Total energy in the final basis set = -2925.45283990
   17   -2925.4530136817      6.81E-09 Convergence criterion met
 Total energy in the final basis set = -2925.45301368
   17   -2925.4529407957      7.00E-09 Convergence criterion met
 Total energy in the final basis set = -2925.45294080
   17   -2925.4523089554      7.29E-09 Convergence criterion met
 Total energy in the final basis set = -2925.45230896

                    Orbital Energies (a.u.)
 --------------------------------------------------------------

 Alpha MOs
 -- Occupied --
-14.776 -14.678 -10.549 -10.538 -10.537 -10.500 -10.499 -10.496
-10.495 -10.492 -10.491 -10.491 -10.491 -10.487 -10.487 -10.486
-10.486 -10.486 -10.485 -10.477 -10.476 -10.474 -10.469 -10.451
-10.450 -10.449 -10.448 -10.448 -10.447 -10.447 -10.447 -10.446
-10.446 -10.446 -10.445 -10.445 -10.445 -10.445 -10.445 -10.444
-10.444 -10.441 -10.441 -10.441 -10.441 -10.440 -10.440 -10.439
-10.438 -10.438 -10.438 -10.438 -10.437 -10.437 -10.437 -10.437
-10.436 -10.435 -10.434 -10.433 -10.432 -10.432 -10.432 -10.431
-10.431 -10.429 -10.429 -10.413 -10.413 -10.410 -10.409 -10.408
-10.406 -10.405  -6.903  -6.900  -1.168  -1.099  -1.021  -0.998
 -0.998  -0.998  -0.985  -0.962  -0.942  -0.941  -0.939  -0.933
 -0.931  -0.918  -0.918  -0.911  -0.894  -0.891  -0.887  -0.879
 -0.876  -0.861  -0.856  -0.847  -0.843  -0.837  -0.835  -0.834
 -0.832  -0.831  -0.803  -0.801  -0.799  -0.798  -0.794  -0.794
 -0.791  -0.783  -0.772  -0.755  -0.754  -0.741  -0.735  -0.722
 -0.716  -0.712  -0.711  -0.702  -0.699  -0.687  -0.684  -0.678
 -0.674  -0.672  -0.662  -0.659  -0.646  -0.645  -0.635  -0.633
 -0.632  -0.632  -0.627  -0.627  -0.617  -0.591  -0.585  -0.583
 -0.579  -0.579  -0.577  -0.573  -0.572  -0.566  -0.562  -0.561
 -0.559  -0.558  -0.552  -0.548  -0.543  -0.540  -0.534  -0.531
 -0.530  -0.526  -0.520  -0.514  -0.511  -0.510  -0.509  -0.503
 -0.502  -0.497  -0.493  -0.491  -0.489  -0.489  -0.484  -0.481
 -0.480  -0.479  -0.477  -0.475  -0.473  -0.472  -0.470  -0.469
 -0.468  -0.467  -0.464  -0.463  -0.463  -0.459  -0.457  -0.455
 -0.454  -0.453  -0.451  -0.449  -0.449  -0.447  -0.443  -0.439
 -0.438  -0.434  -0.426  -0.425  -0.423  -0.420  -0.416  -0.415
 -0.414  -0.411  -0.410  -0.406  -0.406  -0.398  -0.398  -0.389
 -0.386  -0.383  -0.382  -0.382  -0.382  -0.380  -0.379  -0.376
 -0.371  -0.367  -0.364  -0.357  -0.354  -0.351  -0.333  -0.332
 -0.327  -0.321  -0.320  -0.317  -0.306  -0.301  -0.300  -0.296
 -0.291  -0.284  -0.283  -0.268  -0.267  -0.263  -0.251  -0.246
 -0.241  -0.237  -0.230  -0.149

 Beta MOs
 -- Occupied --
-14.784 -14.678 -10.550 -10.536 -10.536 -10.501 -10.500 -10.498
-10.497 -10.491 -10.491 -10.491 -10.490 -10.489 -10.488 -10.488
-10.488 -10.485 -10.485 -10.477 -10.476 -10.474 -10.474 -10.451
-10.451 -10.449 -10.448 -10.448 -10.447 -10.447 -10.446 -10.446
-10.446 -10.446 -10.445 -10.445 -10.445 -10.444 -10.444 -10.443
-10.443 -10.441 -10.441 -10.441 -10.440 -10.440 -10.440 -10.439
-10.438 -10.438 -10.438 -10.438 -10.437 -10.437 -10.436 -10.436
-10.435 -10.435 -10.434 -10.433 -10.432 -10.432 -10.432 -10.431
-10.431 -10.430 -10.429 -10.413 -10.412 -10.410 -10.409 -10.409
-10.405 -10.404  -6.899  -6.898  -1.181  -1.099  -1.025  -0.999
 -0.997  -0.997  -0.990  -0.962  -0.942  -0.940  -0.938  -0.935
 -0.933  -0.917  -0.917  -0.911  -0.898  -0.893  -0.886  -0.879
 -0.876  -0.861  -0.856  -0.854  -0.842  -0.837  -0.834  -0.834
 -0.831  -0.831  -0.802  -0.801  -0.801  -0.799  -0.794  -0.793
 -0.793  -0.781  -0.776  -0.755  -0.753  -0.742  -0.738  -0.721
 -0.715  -0.710  -0.709  -0.702  -0.700  -0.688  -0.684  -0.678
 -0.676  -0.672  -0.662  -0.656  -0.645  -0.645  -0.636  -0.634
 -0.633  -0.632  -0.627  -0.627  -0.620  -0.596  -0.590  -0.583
 -0.579  -0.577  -0.576  -0.572  -0.571  -0.567  -0.566  -0.561
 -0.559  -0.557  -0.554  -0.552  -0.544  -0.539  -0.535  -0.535
 -0.531  -0.526  -0.521  -0.514  -0.511  -0.510  -0.509  -0.504
 -0.502  -0.501  -0.494  -0.491  -0.489  -0.489  -0.484  -0.481
 -0.480  -0.479  -0.477  -0.475  -0.472  -0.472  -0.470  -0.467
 -0.467  -0.467  -0.465  -0.465  -0.463  -0.463  -0.460  -0.458
 -0.457  -0.455  -0.451  -0.449  -0.449  -0.447  -0.445  -0.439
 -0.438  -0.435  -0.427  -0.424  -0.423  -0.420  -0.417  -0.415
 -0.414  -0.414  -0.410  -0.407  -0.406  -0.403  -0.397  -0.389
 -0.386  -0.383  -0.382  -0.380  -0.380  -0.380  -0.378  -0.376
 -0.376  -0.371  -0.363  -0.357  -0.352  -0.347  -0.344  -0.337
 -0.331  -0.322  -0.321  -0.319  -0.316  -0.300  -0.299  -0.296
 -0.291  -0.287  -0.281  -0.280  -0.267  -0.263  -0.258  -0.246
 -0.244  -0.238  -0.231  -0.230

          Ground-State Mulliken Net Atomic Charges

     Atom                 Charge (a.u.)    Spin (a.u.)
  --------------------------------------------------------
      1 N                    -0.687465      -0.292836
      2 C                     0.374999      -0.074993
      3 C                     0.335907       0.089895
      4 C                    -0.261459      -0.136493
      5 H                     0.289844       0.007252
      6 C                    -0.244127       0.079773
      7 H                     0.264494      -0.003643
      8 C                     0.326401       0.089585
      9 C                    -0.260774      -0.137724
     10 H                     0.291316       0.007449
     11 C                    -0.242760       0.079675
     12 H                     0.264694      -0.003643
     13 C                    -0.219366      -0.130876
     14 H                     0.262795       0.007245
     15 C                    -0.345803       0.043330
     16 H                     0.249194      -0.002255
     17 C                     0.115378      -0.073981
     18 C                    -0.219530      -0.130770
     19 H                     0.262527       0.007245
     20 C                    -0.343924       0.043939
     21 H                     0.249476      -0.002284
     22 C                     0.102633      -0.074104
     23 C                    -0.370529      -0.093427
     24 H                     0.288199       0.005975
     25 C                     0.055570       0.070367
     26 C                    -0.374442      -0.090110
     27 H                     0.284060       0.005927
     28 C                     0.037310       0.072182
     29 C                    -0.132147      -0.349782
     30 C                    -0.750721      -0.004314
     31 H                     0.241201       0.002599
     32 H                     0.271217       0.000668
     33 H                     0.273753      -0.001133
     34 C                    -0.756904      -0.003854
     35 H                     0.242284       0.002644
     36 H                     0.274006      -0.000881
     37 H                     0.277350       0.000168
     38 B                     0.544546       0.373959
     39 C                    -0.129049      -0.011024
     40 C                    -0.404041      -0.011432
     41 H                     0.196011       0.000318
     42 C                     0.066135       0.035316
     43 C                     0.087491       0.097197
     44 C                    -0.414150      -0.061152
     45 H                     0.217397       0.002432
     46 C                    -0.145259       0.065985
     47 C                     0.185283      -0.058796
     48 C                    -0.403503       0.086793
     49 H                     0.228383      -0.005100
     50 C                    -0.075384       0.023591
     51 C                     0.238280      -0.038139
     52 C                     0.186453      -0.044274
     53 C                    -0.397788       0.068818
     54 H                     0.215290      -0.004084
     55 C                    -0.215938      -0.054037
     56 H                     0.233465       0.002625
     57 C                    -0.357252       0.078886
     58 H                     0.227440      -0.004676
     59 C                    -0.219300      -0.045810
     60 H                     0.229486       0.002272
     61 C                    -0.352742       0.064516
     62 H                     0.227326      -0.003782
     63 C                    -0.137157      -0.018018
     64 C                    -0.402746      -0.005277
     65 H                     0.192157       0.000272
     66 C                     0.072858       0.026461
     67 C                     0.082360       0.096693
     68 C                    -0.397649      -0.063513
     69 H                     0.228023       0.002574
     70 C                    -0.137510       0.071686
     71 C                     0.195039      -0.056796
     72 C                    -0.412619       0.083033
     73 H                     0.239538      -0.004965
     74 C                    -0.077479       0.022066
     75 C                     0.235756      -0.035452
     76 C                     0.187269      -0.039601
     77 C                    -0.399788       0.061811
     78 H                     0.211472      -0.003699
     79 C                    -0.218086      -0.041590
     80 H                     0.228719       0.002073
     81 C                    -0.352218       0.057623
     82 H                     0.228024      -0.003367
     83 C                    -0.220625      -0.051131
     84 H                     0.237270       0.002475
     85 C                    -0.355495       0.074815
     86 H                     0.227693      -0.004436
     87 B                     0.565449       0.273321
     88 C                    -0.182508      -0.024018
     89 C                     0.034150       0.003481
     90 C                    -0.323892      -0.000386
     91 H                     0.234866       0.000339
     92 C                     0.263967       0.000361
     93 C                    -0.341248      -0.000194
     94 H                     0.235832       0.000265
     95 C                     0.029245       0.002881
     96 N                    -0.725971      -0.000034
     97 C                     0.334463       0.000021
     98 C                     0.350192       0.000008
     99 C                    -0.295058      -0.000003
    100 H                     0.248131       0.000000
    101 C                    -0.254280       0.000002
    102 H                     0.230209      -0.000000
    103 C                    -0.294761       0.000054
    104 H                     0.257909      -0.000029
    105 C                    -0.259002       0.000007
    106 H                     0.236067       0.000054
    107 C                    -0.244468      -0.000002
    108 H                     0.225702      -0.000000
    109 C                    -0.359592       0.000005
    110 H                     0.219329       0.000001
    111 C                     0.096448      -0.000003
    112 C                    -0.246930      -0.000005
    113 H                     0.225920       0.000000
    114 C                    -0.355884       0.000001
    115 H                     0.219885      -0.000000
    116 C                     0.075361      -0.000004
    117 C                    -0.760134       0.000339
    118 H                     0.236672       0.001628
    119 H                     0.248778      -0.000790
    120 H                     0.249098      -0.000869
    121 C                    -0.750528       0.000504
    122 H                     0.234436       0.001347
    123 H                     0.244180      -0.000637
    124 H                     0.249925      -0.000599
  --------------------------------------------------------
  Sum of atomic charges =    -0.000000

                    Cartesian Multipole Moments
 -----------------------------------------------------------------
    Charge (ESU x 10^10)
                -0.0000
    Dipole Moment (Debye)
         X       1.8695      Y      -0.7008      Z     -27.2715
       Tot      27.3445
    Quadrupole Moments (Debye-Ang)
        XX    -417.6668     XY       2.9866     YY    -443.5221
        XZ      13.1977     YZ      27.6234     ZZ    -648.9730

             Standard Nuclear Orientation (Angstroms)
    I     Atom           X                Y                Z
 ----------------------------------------------------------------
    1      N       0.1615614658    -0.4746054378     0.2240851377
    2      C       0.1117130262    -0.2349992363     1.5762886523
    3      C       1.3115487855    -0.5351686894    -0.5698194997
    4      C       2.6302416679    -0.2670503666    -0.2340741871
    5      H       2.9268413304     0.0156640969     0.7656424908
    6      C       3.5714469324    -0.3502302609    -1.2505032394
    7      H       4.6100260255    -0.1567648769    -1.0211515274
    8      C      -0.9514985999    -0.7242140388    -0.5809092476
    9      C      -2.2846810608    -0.8750390302    -0.2187151787
   10      H      -2.6221314466    -0.7906510067     0.8041381975
   11      C      -3.1907906529    -1.1707027145    -1.2265134361
   12      H      -4.2363912088    -1.2839328070    -0.9751491588
   13      C      -2.7767145161    -1.3420514217    -2.5441634555
   14      H      -3.5070270286    -1.5781643124    -3.3061144190
   15      C      -1.4323254820    -1.2412003096    -2.8865278930
   16      H      -1.1115598805    -1.4124867678    -3.9057221275
   17      C      -0.5187306210    -0.9361500967    -1.8959849386
   18      C       3.2023446971    -0.6588179856    -2.5569786952
   19      H       3.9609134090    -0.7092368130    -3.3260587214
   20      C       1.8701261208    -0.8787415309    -2.8909736791
   21      H       1.5842508273    -1.0845707838    -3.9141875891
   22      C       0.9229614143    -0.8118867442    -1.8898081039
   23      C      -0.8947699293     0.5962181302     2.0999849144
   24      H      -1.5544201921     1.1282232839     1.4258468366
   25      C      -0.9854469610     0.7941580059     3.4567665361
   26      C       1.0425845410    -0.8492615097     2.4290868493
   27      H       1.7749389837    -1.5316683461     2.0173862534
   28      C       0.9380643111    -0.6872235984     3.7898998669
   29      C      -0.0908141357     0.1281257464     4.3331061511
   30      C      -2.0243711707     1.7080070380     4.0265480274
   31      H      -2.6172511983     2.1863219098     3.2478086109
   32      H      -1.5643365491     2.4871000678     4.6359617396
   33      H      -2.7005236573     1.1588979413     4.6844225880
   34      C       1.8764450825    -1.4074866075     4.7067613106
   35      H       2.5854647304    -2.0236664285     4.1550321978
   36      H       2.4380244173    -0.6992790029     5.3174308660
   37      H       1.3298159618    -2.0508966311     5.3978129222
   38      B      -0.2500364988     0.2172035070     5.8994143769
   39      C       0.5695955724     1.2203032034     6.7034004299
   40      C       1.3628312667     2.1862847831     6.0525152964
   41      H       1.3750772286     2.2325923757     4.9668798282
   42      C       2.1210779862     3.0682088924     6.7761187391
   43      C       2.1314601285     3.0175355411     8.2023827972
   44      C       1.3689576863     2.0747032659     8.8551747700
   45      H       1.3763272584     2.0182517688     9.9394916145
   46      C       0.5697771191     1.1645216453     8.1316306047
   47      C       3.0373536673     4.0650954063     8.6737263571
   48      C       3.4667498073     4.5116524783     9.8980840733
   49      H       3.1230830881     4.0637705144    10.8221435798
   50      C       3.5383791383     4.7084488975     7.5206881918
   51      C       4.4398427950     5.7682632803     7.5316495828
   52      C       3.0111043101     4.1384153127     6.3458598354
   53      C       3.3983856579     4.6458896972     5.1309815091
   54      H       3.0221296340     4.2448773680     4.1973130651
   55      C       4.3837389837     5.5883024847     9.9412513460
   56      H       4.7198237414     5.9374915694    10.9092417931
   57      C       4.8635981315     6.2072278743     8.8093516338
   58      H       5.5647398474     7.0281272378     8.8970232341
   59      C       4.3125049327     5.7232596041     5.1134249023
   60      H       4.6194486579     6.1268578925     4.1566100646
   61      C       4.8241655676     6.2761137623     6.2658461476
   62      H       5.5225571381     7.1017236576     6.2028908657
   63      C      -1.1576105340    -0.7933891725     6.5945783945
   64      C      -1.9478866996    -1.7043729922     5.8593718121
   65      H      -1.9291586486    -1.6828946697     4.7733904367
   66      C      -2.7350585505    -2.6233038725     6.5027957883
   67      C      -2.7643205430    -2.6682630845     7.9277389605
   68      C      -1.9944013129    -1.7971365143     8.6583771096
   69      H      -2.0146143447    -1.8498341864     9.7414557565
   70      C      -1.1744074761    -0.8434834646     8.0202550491
   71      C      -3.6648853806    -3.7485886400     8.3264230641
   72      C      -4.0953689305    -4.2790164659     9.5176656823
   73      H      -3.7749615199    -3.8798645992    10.4723650284
   74      C      -4.1421935760    -4.3257373215     7.1309823510
   75      C      -5.0188292951    -5.4075584879     7.0726406363
   76      C      -3.6125869684    -3.6782959195     5.9965859390
   77      C      -3.9807330586    -4.1312987668     4.7532524962
   78      H      -3.6046900000    -3.6771729431     3.8443228837
   79      C      -4.8720316589    -5.2257594366     4.6653576395
   80      H      -5.1597722161    -5.5816900549     3.6838831870
   81      C      -5.3819499938    -5.8541105950     5.7783294860
   82      H      -6.0602288106    -6.6911899492     5.6638279847
   83      C      -4.9863308484    -5.3783299139     9.4884874208
   84      H      -5.3209300655    -5.7922067734    10.4314343298
   85      C      -5.4412263513    -5.9371680825     8.3160438533
   86      H      -6.1216036381    -6.7797789929     8.3444078896
   87      B      -0.2668576047     0.0956756653     8.8437099475
   88      C      -0.2015628221    -0.2327897239    10.3885129634
   89      C      -1.1849827415     0.2220214012    11.2758573357
   90      C      -1.3440984097    -0.3899931038    12.5151791387
   91      H      -2.1572895751    -0.0972878799    13.1701666141
   92      C      -0.5171773749    -1.4410363713    12.8787766046
   93      C       0.5275109001    -1.8254198974    12.0533892818
   94      H       1.1745807812    -2.6396589293    12.3596748076
   95      C       0.6869768863    -1.2336905463    10.8065551893
   96      N      -0.8228078480    -2.2329475616    14.0100546157
   97      C      -1.3763378630    -3.4895560698    13.9074236948
   98      C      -0.7062060859    -1.9070498927    15.3408333578
   99      C      -0.2058638662    -0.7476968499    15.9187626657
  100      H       0.1569890277     0.0708056670    15.3105517846
  101      C      -0.1891518967    -0.6828981876    17.3006382368
  102      H       0.1944785099     0.2075119735    17.7816552314
  103      C      -1.7005011578    -4.2128675651    12.7623579351
  104      H      -1.5154909592    -3.8182012148    11.7713621642
  105      C      -2.2608409739    -5.4658241467    12.9337860603
  106      H      -2.5197530660    -6.0497133167    12.0591335199
  107      C      -2.4948123108    -5.9925378470    14.2089574301
  108      H      -2.9312405078    -6.9777944111    14.3069817752
  109      C      -2.1731548600    -5.2654711656    15.3407388008
  110      H      -2.3588445580    -5.6753546750    16.3258921773
  111      C      -1.6112247756    -3.9995778918    15.1949708076
  112      C      -0.6531832641    -1.7417817313    18.0890129495
  113      H      -0.6227711244    -1.6555342178    19.1670377919
  114      C      -1.1472683346    -2.8936744225    17.5040206483
  115      H      -1.5033618145    -3.7133082156    18.1160470599
  116      C      -1.1785608930    -2.9835896389    16.1167556043
  117      C       1.7458835467    -1.7468216797     9.8707955278
  118      H       2.4209053443    -2.4413047435    10.3710962554
  119      H       2.3435255363    -0.9353626119     9.4541690013
  120      H       1.2968367820    -2.2746235545     9.0256183671
  121      C      -2.1504549960     1.2860352393    10.8343392343
  122      H      -2.8023822943     1.6046370163    11.6475885519
  123      H      -1.6297361368     2.1663614499    10.4548790755
  124      H      -2.7856534147     0.9217490253    10.0233684964
 ----------------------------------------------------------------
