 Q-Chem 5.0, Q-Chem, Inc., Pleasanton, CA (2017)
 Q-Chem 5.0.1 for Intel X86 EM64T Linux

User input:
--------------------------------------------------------------
$rem
threads 8
jobtype	sp
method PBEh-3c
basis def2-mSVP
mem_static	1024
mem_total	8000
sym_ignore	true
unrestricted true
scf_convergence	9
solvent_method	pcm
$end

$molecule
read incoords.mol
$end

$solvent
dielectric	2.03
$end

$pcm
theory iefpcm
$end
--------------------------------------------------------------

   17   -2925.5392034127      4.77E-10 Convergence criterion met
 Total energy in the final basis set = -2925.53920341
 Total job time:  3253.16s(wall), 10407.98s(cpu)
        *  Thank you very much for using Q-Chem.  Have a nice day.  *
 Q-Chem 5.0, Q-Chem, Inc., Pleasanton, CA (2017)
 Q-Chem 5.0.1 for Intel X86 EM64T Linux

User input:
--------------------------------------------------------------

$rem
threads 8
jobtype opt
method PBEh-3c
basis def2-mSVP
scf_guess	read
mem_static      1024
mem_total       8000
sym_ignore      true
unrestricted true
mom_start       1
scf_algorithm	diis
scf_max_cycles	250
solvent_method	pcm
geom_opt_tol_energy 25
geom_opt_tol_gradient 75
$end

$solvent
dielectric      2.03
$end
$pcm
theory iefpcm
$end

$occupied
1 2 3 4 5 6 7 8 9 10 11 12 13 14 15 16 17 18 19 20 21 22 23 24 25 26 27 28 29 30 31 32 33 34 35 36 37 38 39 40 41 42 43 44 45 46 47 48 49 50 51 52 53 54 55 56 57 58 59 60 61 62 63 64 65 66 67 68 69 70 71 72 73 74 75 76 77 78 79 80 81 82 83 84 85 86 87 88 89 90 91 92 93 94 95 96 97 98 99 100 101 102 103 104 105 106 107 108 109 110 111 112 113 114 115 116 117 118 119 120 121 122 123 124 125 126 127 128 129 130 131 132 133 134 135 136 137 138 139 140 141 142 143 144 145 146 147 148 149 150 151 152 153 154 155 156 157 158 159 160 161 162 163 164 165 166 167 168 169 170 171 172 173 174 175 176 177 178 179 180 181 182 183 184 185 186 187 188 189 190 191 192 193 194 195 196 197 198 199 200 201 202 203 204 205 206 207 208 209 210 211 212 213 214 215 216 217 218 219 220 221 222 223 224 225 226 227 228 229 230 231 232 233 234 235 236 237 238 239 240 241 242 243 244 245 246 247 248 249 250 251  253
1 2 3 4 5 6 7 8 9 10 11 12 13 14 15 16 17 18 19 20 21 22 23 24 25 26 27 28 29 30 31 32 33 34 35 36 37 38 39 40 41 42 43 44 45 46 47 48 49 50 51 52 53 54 55 56 57 58 59 60 61 62 63 64 65 66 67 68 69 70 71 72 73 74 75 76 77 78 79 80 81 82 83 84 85 86 87 88 89 90 91 92 93 94 95 96 97 98 99 100 101 102 103 104 105 106 107 108 109 110 111 112 113 114 115 116 117 118 119 120 121 122 123 124 125 126 127 128 129 130 131 132 133 134 135 136 137 138 139 140 141 142 143 144 145 146 147 148 149 150 151 152 153 154 155 156 157 158 159 160 161 162 163 164 165 166 167 168 169 170 171 172 173 174 175 176 177 178 179 180 181 182 183 184 185 186 187 188 189 190 191 192 193 194 195 196 197 198 199 200 201 202 203 204 205 206 207 208 209 210 211 212 213 214 215 216 217 218 219 220 221 222 223 224 225 226 227 228 229 230 231 232 233 234 235 236 237 238 239 240 241 242 243 244 245 246 247 248 249 250 251 252
$end

$molecule
read incoords.mol
$end

--------------------------------------------------------------

   20   -2925.4525102766      9.51E-09 Convergence criterion met
 Total energy in the final basis set = -2925.45251028
   15   -2925.4523346991      9.55E-09 Convergence criterion met
 Total energy in the final basis set = -2925.45233470
   16   -2925.4517283998      7.82E-09 Convergence criterion met
 Total energy in the final basis set = -2925.45172840
   16   -2925.4511863707      7.72E-09 Convergence criterion met
 Total energy in the final basis set = -2925.45118637
   16   -2925.4511722571      9.38E-09 Convergence criterion met
 Total energy in the final basis set = -2925.45117226
   16   -2925.4507517307      8.47E-09 Convergence criterion met
 Total energy in the final basis set = -2925.45075173
   16   -2925.4492490832      8.19E-09 Convergence criterion met
   16   -2925.4482891100      9.55E-09 Convergence criterion met
 Total energy in the final basis set = -2925.44828911
   16   -2925.4482073638      9.73E-09 Convergence criterion met
 Total energy in the final basis set = -2925.44820736
   16   -2925.4481311169      9.22E-09 Convergence criterion met
 Total energy in the final basis set = -2925.44813112
   16   -2925.4481726306      9.16E-09 Convergence criterion met
 Total energy in the final basis set = -2925.44817263
   16   -2925.4481757363      9.08E-09 Convergence criterion met
 Total energy in the final basis set = -2925.44817574
   16   -2925.4481576894      8.90E-09 Convergence criterion met
 Total energy in the final basis set = -2925.44815769

             Standard Nuclear Orientation (Angstroms)
    I     Atom           X                Y                Z
 ----------------------------------------------------------------
    1      N       0.1565380772    -0.4801067181     0.2310472529
    2      C       0.1091321347    -0.2374116775     1.5817373303
    3      C       1.3050171331    -0.5352745416    -0.5665721283
    4      C       2.6229067237    -0.2571131672    -0.2364235420
    5      H       2.9211133632     0.0307881177     0.7613156469
    6      C       3.5612193801    -0.3363980744    -1.2556474538
    7      H       4.5991227261    -0.1349858179    -1.0300750427
    8      C      -0.9571887815    -0.7392638401    -0.5710107601
    9      C      -2.2884347532    -0.8988009738    -0.2058547923
   10      H      -2.6243451739    -0.8140387510     0.8174513384
   11      C      -3.1945778074    -1.2039524781    -1.2105292064
   12      H      -4.2387153446    -1.3240996753    -0.9562838911
   13      C      -2.7825755685    -1.3760687352    -2.5288009978
   14      H      -3.5129602138    -1.6197468915    -3.2882683113
   15      C      -1.4402716797    -1.2663646128    -2.8740097559
   16      H      -1.1204007190    -1.4383263002    -3.8933795344
   17      C      -0.5262105523    -0.9517767529    -1.8862871909
   18      C       3.1902909160    -0.6510628907    -2.5602241065
   19      H       3.9467224266    -0.6981546078    -3.3315922890
   20      C       1.8590358071    -0.8809674314    -2.8886823180
   21      H       1.5709044639    -1.0912849485    -3.9103602916
   22      C       0.9143253374    -0.8181001673    -1.8843574679
   23      C      -0.9047046509     0.5847665512     2.1074112325
   24      H      -1.5720038721     1.1078382910     1.4338469618
   25      C      -0.9923662950     0.7864035580     3.4631907208
   26      C       1.0501861614    -0.8389122976     2.4334999894
   27      H       1.7878710493    -1.5149544649     2.0208581204
   28      C       0.9485795511    -0.6751483134     3.7936674494
   29      C      -0.0872092267     0.1316080937     4.3390106119
   30      C      -2.0390489638     1.6891775507     4.0354765552
   31      H      -2.6267534522     2.1759299846     3.2579935824
   32      H      -1.5874442807     2.4606423588     4.6604468090
   33      H      -2.7187452594     1.1279339523     4.6795131743
   34      C       1.8959723476    -1.3829488556     4.7102748142
   35      H       2.6064475579    -1.9983190466     4.1594747374
   36      H       2.4551643932    -0.6664262538     5.3134978054
   37      H       1.3565513982    -2.0244696821     5.4086374038
   38      B      -0.2433715793     0.2232920245     5.9045290994
   39      C       0.5792332670     1.2262863350     6.7047392834
   40      C       1.3732530807     2.1900764031     6.0514696408
   41      H       1.3845832161     2.2348940349     4.9656866984
   42      C       2.1332002232     3.0720022385     6.7728793846
   43      C       2.1448865632     3.0236305773     8.1990341322
   44      C       1.3819605701     2.0826150755     8.8540539626
   45      H       1.3909403754     2.0267286145     9.9383538501
   46      C       0.5808471530     1.1726692384     8.1328365064
   47      C       3.0524623918     4.0707912991     8.6677413509
   48      C       3.4836302647     4.5187207591     9.8908073580
   49      H       3.1404343519     4.0725163578    10.8158196419
   50      C       3.5528855781     4.7119563478     7.5132912848
   51      C       4.4554047466     5.7707557233     7.5217132021
   52      C       3.0237599931     4.1407802852     6.3400069374
   53      C       3.4102547757     4.6460315416     5.1241231053
   54      H       3.0324276413     4.2441212429     4.1914740074
   55      C       4.4016731030     5.5944852002     9.9314515986
   56      H       4.7391116696     5.9448256013    10.8985351406
   57      C       4.8809104836     6.2111425390     8.7982408216
   58      H       5.5829277249     7.0314794060     8.8839640836
   59      C       4.3254292777     5.7223012706     5.1038489231
   60      H       4.6317944413     6.1241694596     4.1461263785
   61      C       4.8388450743     6.2762170979     6.2548190400
   62      H       5.5380905004     7.1009305710     6.1897912644
   63      C      -1.1503451107    -0.7862852444     6.6007787338
   64      C      -1.9411771815    -1.6986297795     5.8677063114
   65      H      -1.9227076435    -1.6800412470     4.7815565444
   66      C      -2.7287861968    -2.6153345863     6.5133257674
   67      C      -2.7585176612    -2.6562653431     7.9381620945
   68      C      -1.9876968493    -1.7840951565     8.6666647189
   69      H      -2.0084630710    -1.8339244451     9.7497907551
   70      C      -1.1664776318    -0.8332375986     8.0263397011
   71      C      -3.6599768885    -3.7346123047     8.3396544143
   72      C      -4.0911003771    -4.2611692472     9.5322438847
   73      H      -3.7705557015    -3.8599281399    10.4859875968
   74      C      -4.1375846418    -4.3147139509     7.1458325258
   75      C      -5.0149970175    -5.3959184356     7.0903731355
   76      C      -3.6072395760    -3.6709719805     6.0098136571
   77      C      -3.9753304097    -4.1272709763     4.7678365270
   78      H      -3.5985446252    -3.6760535114     3.8577541926
   79      C      -4.8674087293    -5.2211600926     4.6827105074
   80      H      -5.1551772447    -5.5797877865     3.7022321245
   81      C      -5.3780556277    -5.8457542568     5.7973146717
   82      H      -6.0569205958    -6.6826414984     5.6849675201
   83      C      -4.9828742527    -5.3598096658     9.5059767060
   84      H      -5.3177778679    -5.7706019922    10.4501478591
   85      C      -5.4380429072    -5.9215293777     8.3351614329
   86      H      -6.1191044915    -6.7634880624     8.3658520594
   87      B      -0.2565193930     0.1061147624     8.8474731871
   88      C      -0.1909494189    -0.2227040040    10.3919931003
   89      C      -1.1763637243     0.2288812770    11.2784336526
   90      C      -1.3399550521    -0.3893760832    12.5140579476
   91      H      -2.1561787138    -0.1008866652    13.1671513883
   92      C      -0.5149825468    -1.4428864898    12.8748779533
   93      C       0.5333200750    -1.8223339595    12.0516635112
   94      H       1.1798414655    -2.6373364474    12.3569399309
   95      C       0.6966739473    -1.2249687342    10.8082675547
   96      N      -0.8258182192    -2.2420630170    13.9993489686
   97      C      -1.3722789809    -3.5010544038    13.8853167912
   98      C      -0.7320991774    -1.9186229877    15.3326392759
   99      C      -0.2472498375    -0.7580972994    15.9210947210
  100      H       0.1212438232     0.0634805472    15.3205335077
  101      C      -0.2529558689    -0.6963544389    17.3030989249
  102      H       0.1183320432     0.1949093407    17.7921038730
  103      C      -1.6780331441    -4.2224029858    12.7339709939
  104      H      -1.4800352272    -3.8248181773    11.7466849047
  105      C      -2.2376558215    -5.4771123810    12.8940506130
  106      H      -2.4826563663    -6.0590566414    12.0141178805
  107      C      -2.4885476391    -6.0077102936    14.1642232801
  108      H      -2.9238725641    -6.9942653656    14.2534826415
  109      C      -2.1853156115    -5.2825962591    15.3021735961
  110      H      -2.3845447423    -5.6952708440    16.2834846567
  111      C      -1.6250206396    -4.0148513443    15.1678819719
  112      C      -0.7240867024    -1.7592254606    18.0815671948
  113      H      -0.7114538302    -1.6753151899    19.1601094396
  114      C      -1.2026558613    -2.9121781055    17.4861464814
  115      H      -1.5644243191    -3.7348958155    18.0906155330
  116      C      -1.2112848138    -2.9991597199    16.0985264967
  117      C       1.7584240071    -1.7326376825     9.8728975487
  118      H       2.4310140652    -2.4313217281    10.3706346480
  119      H       2.3581504557    -0.9186020547     9.4642703148
  120      H       1.3117030711    -2.2539644718     9.0224882962
  121      C      -2.1408200715     1.2937759892    10.8373890562
  122      H      -2.7888448931     1.6168905495    11.6520170602
  123      H      -1.6191648882     2.1713732204    10.4530391803
  124      H      -2.7802541772     0.9285136697    10.0300949025
 ----------------------------------------------------------------

   16   -2925.4481671809      9.12E-09 Convergence criterion met
 Total energy in the final basis set = -2925.44816718
 Final energy is   -2925.44816718086
 **  OPTIMIZATION CONVERGED  **

                    Orbital Energies (a.u.)
 --------------------------------------------------------------

 Alpha MOs
 -- Occupied --
-14.777 -14.676 -10.552 -10.539 -10.539 -10.501 -10.501 -10.497
-10.497 -10.494 -10.494 -10.493 -10.493 -10.490 -10.489 -10.488
-10.488 -10.487 -10.487 -10.475 -10.474 -10.472 -10.472 -10.450
-10.449 -10.449 -10.447 -10.447 -10.446 -10.446 -10.446 -10.445
-10.445 -10.444 -10.444 -10.444 -10.444 -10.444 -10.443 -10.443
-10.443 -10.442 -10.440 -10.439 -10.439 -10.439 -10.439 -10.438
-10.438 -10.437 -10.437 -10.437 -10.436 -10.436 -10.436 -10.436
-10.435 -10.434 -10.433 -10.432 -10.431 -10.431 -10.430 -10.430
-10.430 -10.428 -10.428 -10.412 -10.411 -10.409 -10.408 -10.407
-10.405 -10.404  -6.902  -6.899  -1.170  -1.098  -1.023  -0.999
 -0.997  -0.997  -0.987  -0.961  -0.940  -0.940  -0.938  -0.933
 -0.931  -0.917  -0.917  -0.913  -0.896  -0.893  -0.886  -0.878
 -0.875  -0.860  -0.858  -0.849  -0.841  -0.835  -0.834  -0.833
 -0.831  -0.830  -0.802  -0.800  -0.799  -0.798  -0.793  -0.793
 -0.792  -0.782  -0.774  -0.754  -0.752  -0.742  -0.737  -0.720
 -0.715  -0.711  -0.710  -0.701  -0.701  -0.688  -0.683  -0.676
 -0.675  -0.671  -0.661  -0.659  -0.645  -0.643  -0.636  -0.634
 -0.632  -0.631  -0.626  -0.626  -0.619  -0.592  -0.587  -0.582
 -0.578  -0.577  -0.576  -0.573  -0.572  -0.566  -0.564  -0.560
 -0.558  -0.557  -0.552  -0.550  -0.545  -0.539  -0.536  -0.532
 -0.530  -0.525  -0.522  -0.513  -0.510  -0.509  -0.508  -0.504
 -0.503  -0.498  -0.494  -0.490  -0.488  -0.488  -0.483  -0.481
 -0.480  -0.477  -0.476  -0.475  -0.472  -0.471  -0.469  -0.468
 -0.467  -0.466  -0.465  -0.465  -0.462  -0.459  -0.456  -0.456
 -0.455  -0.454  -0.450  -0.448  -0.448  -0.447  -0.445  -0.440
 -0.439  -0.436  -0.425  -0.424  -0.422  -0.419  -0.417  -0.414
 -0.413  -0.410  -0.409  -0.405  -0.404  -0.400  -0.397  -0.388
 -0.385  -0.382  -0.381  -0.381  -0.380  -0.379  -0.377  -0.375
 -0.370  -0.369  -0.362  -0.356  -0.353  -0.351  -0.336  -0.331
 -0.326  -0.320  -0.319  -0.318  -0.305  -0.303  -0.299  -0.297
 -0.289  -0.283  -0.282  -0.267  -0.266  -0.262  -0.250  -0.244
 -0.240  -0.236  -0.228  -0.148

 Beta MOs
 -- Occupied --
-14.785 -14.676 -10.553 -10.538 -10.537 -10.502 -10.502 -10.499
-10.499 -10.493 -10.493 -10.492 -10.492 -10.491 -10.490 -10.489
-10.489 -10.487 -10.487 -10.477 -10.475 -10.474 -10.472 -10.450
-10.450 -10.448 -10.447 -10.447 -10.447 -10.446 -10.445 -10.445
-10.445 -10.445 -10.444 -10.444 -10.444 -10.443 -10.442 -10.442
-10.442 -10.442 -10.440 -10.439 -10.439 -10.439 -10.439 -10.438
-10.438 -10.437 -10.437 -10.437 -10.436 -10.436 -10.436 -10.434
-10.434 -10.434 -10.433 -10.432 -10.431 -10.431 -10.430 -10.430
-10.430 -10.429 -10.428 -10.412 -10.411 -10.410 -10.409 -10.407
-10.404 -10.403  -6.898  -6.896  -1.182  -1.098  -1.027  -1.001
 -0.996  -0.996  -0.992  -0.961  -0.940  -0.940  -0.937  -0.936
 -0.931  -0.916  -0.916  -0.914  -0.900  -0.895  -0.885  -0.878
 -0.875  -0.859  -0.858  -0.856  -0.841  -0.835  -0.833  -0.833
 -0.830  -0.830  -0.803  -0.800  -0.799  -0.798  -0.795  -0.792
 -0.792  -0.780  -0.778  -0.754  -0.752  -0.744  -0.740  -0.720
 -0.714  -0.709  -0.709  -0.702  -0.701  -0.690  -0.682  -0.678
 -0.676  -0.671  -0.661  -0.656  -0.644  -0.643  -0.638  -0.635
 -0.632  -0.631  -0.626  -0.626  -0.622  -0.597  -0.591  -0.581
 -0.578  -0.577  -0.575  -0.574  -0.570  -0.569  -0.566  -0.560
 -0.559  -0.557  -0.556  -0.552  -0.546  -0.538  -0.537  -0.536
 -0.529  -0.525  -0.522  -0.513  -0.510  -0.509  -0.508  -0.506
 -0.502  -0.502  -0.495  -0.490  -0.488  -0.488  -0.483  -0.481
 -0.479  -0.477  -0.476  -0.475  -0.472  -0.471  -0.469  -0.467
 -0.467  -0.466  -0.466  -0.465  -0.465  -0.462  -0.461  -0.458
 -0.456  -0.455  -0.450  -0.448  -0.448  -0.448  -0.447  -0.441
 -0.438  -0.436  -0.427  -0.423  -0.423  -0.421  -0.417  -0.415
 -0.414  -0.413  -0.409  -0.406  -0.404  -0.402  -0.396  -0.388
 -0.385  -0.382  -0.380  -0.379  -0.379  -0.378  -0.377  -0.377
 -0.375  -0.371  -0.362  -0.356  -0.351  -0.346  -0.345  -0.338
 -0.330  -0.324  -0.320  -0.318  -0.316  -0.301  -0.299  -0.294
 -0.289  -0.289  -0.280  -0.279  -0.266  -0.262  -0.257  -0.244
 -0.242  -0.237  -0.229  -0.228

          Ground-State Mulliken Net Atomic Charges

     Atom                 Charge (a.u.)    Spin (a.u.)
  --------------------------------------------------------
      1 N                    -0.690755      -0.282064
      2 C                     0.378894      -0.086106
      3 C                     0.335536       0.086802
      4 C                    -0.261961      -0.130341
      5 H                     0.287482       0.006937
      6 C                    -0.242285       0.076025
      7 H                     0.261974      -0.003484
      8 C                     0.326285       0.086657
      9 C                    -0.261358      -0.131729
     10 H                     0.289157       0.007135
     11 C                    -0.240977       0.076143
     12 H                     0.262260      -0.003496
     13 C                    -0.218271      -0.124929
     14 H                     0.260025       0.006929
     15 C                    -0.344646       0.042571
     16 H                     0.245746      -0.002224
     17 C                     0.115150      -0.071878
     18 C                    -0.218441      -0.124480
     19 H                     0.259754       0.006910
     20 C                    -0.342906       0.042935
     21 H                     0.246001      -0.002241
     22 C                     0.102860      -0.071700
     23 C                    -0.372211      -0.089137
     24 H                     0.286390       0.005842
     25 C                     0.056590       0.066202
     26 C                    -0.375572      -0.085489
     27 H                     0.282244       0.005776
     28 C                     0.039959       0.067653
     29 C                    -0.130230      -0.359299
     30 C                    -0.750390      -0.003871
     31 H                     0.239411       0.002684
     32 H                     0.273455       0.000380
     33 H                     0.274722      -0.001417
     34 C                    -0.756087      -0.003362
     35 H                     0.240394       0.002702
     36 H                     0.275336      -0.001251
     37 H                     0.278725      -0.000051
     38 B                     0.545349       0.378948
     39 C                    -0.127587      -0.015525
     40 C                    -0.403371      -0.008127
     41 H                     0.192327       0.000176
     42 C                     0.068613       0.031823
     43 C                     0.089245       0.099876
     44 C                    -0.412981      -0.063062
     45 H                     0.216522       0.002539
     46 C                    -0.145358       0.068394
     47 C                     0.187362      -0.059354
     48 C                    -0.402037       0.087244
     49 H                     0.225850      -0.005135
     50 C                    -0.075016       0.023449
     51 C                     0.241218      -0.037880
     52 C                     0.188385      -0.043288
     53 C                    -0.396295       0.067375
     54 H                     0.211494      -0.004009
     55 C                    -0.213280      -0.054183
     56 H                     0.230827       0.002635
     57 C                    -0.355699       0.079191
     58 H                     0.224490      -0.004706
     59 C                    -0.216659      -0.045086
     60 H                     0.226410       0.002244
     61 C                    -0.351152       0.063232
     62 H                     0.224398      -0.003711
     63 C                    -0.136911      -0.022977
     64 C                    -0.402548      -0.001795
     65 H                     0.188540       0.000112
     66 C                     0.074845       0.022888
     67 C                     0.083965       0.099353
     68 C                    -0.396137      -0.065267
     69 H                     0.227671       0.002667
     70 C                    -0.136688       0.074068
     71 C                     0.196682      -0.057380
     72 C                    -0.411658       0.083419
     73 H                     0.238528      -0.004986
     74 C                    -0.076934       0.021911
     75 C                     0.238534      -0.035174
     76 C                     0.189162      -0.038617
     77 C                    -0.398495       0.060358
     78 H                     0.207893      -0.003619
     79 C                    -0.215456      -0.040866
     80 H                     0.225628       0.002045
     81 C                    -0.350621       0.056335
     82 H                     0.225038      -0.003295
     83 C                    -0.218456      -0.051244
     84 H                     0.235262       0.002483
     85 C                    -0.353923       0.075020
     86 H                     0.224694      -0.004460
     87 B                     0.569692       0.270398
     88 C                    -0.183407      -0.023834
     89 C                     0.034750       0.003462
     90 C                    -0.323256      -0.000375
     91 H                     0.233119       0.000336
     92 C                     0.265359       0.000332
     93 C                    -0.340598      -0.000182
     94 H                     0.234202       0.000263
     95 C                     0.031374       0.002808
     96 N                    -0.726567      -0.000041
     97 C                     0.334392       0.000024
     98 C                     0.350648       0.000011
     99 C                    -0.293105      -0.000008
    100 H                     0.246184       0.000000
    101 C                    -0.251775       0.000006
    102 H                     0.227387      -0.000000
    103 C                    -0.293143       0.000048
    104 H                     0.256748      -0.000028
    105 C                    -0.257180       0.000011
    106 H                     0.234140       0.000048
    107 C                    -0.241806      -0.000004
    108 H                     0.222941       0.000000
    109 C                    -0.357898       0.000006
    110 H                     0.216170       0.000000
    111 C                     0.098372      -0.000004
    112 C                    -0.244250      -0.000010
    113 H                     0.223163       0.000001
    114 C                    -0.354204       0.000003
    115 H                     0.216702      -0.000000
    116 C                     0.077421      -0.000007
    117 C                    -0.759338       0.000382
    118 H                     0.235272       0.001605
    119 H                     0.248550      -0.000764
    120 H                     0.248882      -0.000879
    121 C                    -0.749991       0.000498
    122 H                     0.233120       0.001359
    123 H                     0.244076      -0.000649
    124 H                     0.249923      -0.000587
  --------------------------------------------------------
  Sum of atomic charges =    -0.000000

                    Cartesian Multipole Moments
 -----------------------------------------------------------------
    Charge (ESU x 10^10)
                -0.0000
    Dipole Moment (Debye)
         X       1.7354      Y      -0.4622      Z     -26.4889
       Tot      26.5497
    Quadrupole Moments (Debye-Ang)
        XX    -418.4960     XY       2.0741     YY    -443.9967
        XZ      12.5062     YZ      27.5460     ZZ    -644.3455

 Total job time:  61369.80s(wall), 193914.88s(cpu)
        *  Thank you very much for using Q-Chem.  Have a nice day.  *
