 Q-Chem 5.0, Q-Chem, Inc., Pleasanton, CA (2017)
 Q-Chem 5.0.1 for Intel X86 EM64T Linux

User input:
--------------------------------------------------------------
$rem
threads 8
jobtype sp
method PBEh-3c
basis def2-mSVP
mem_static      1024
mem_total       8000
sym_ignore      true
unrestricted true
scf_algorithm	diis
scf_max_cycles	250
solvent_method  pcm
$end

$pcm
theory  iefpcm
$end

$solvent
dielectric      1.0001
$end

$molecule
read uincoords.mol
$end

--------------------------------------------------------------

   14   -2925.4408204240      9.07E-06 Convergence criterion met
 Total energy in the final basis set = -2925.44082042
 Total job time:  2139.58s(wall), 6183.16s(cpu)
        *  Thank you very much for using Q-Chem.  Have a nice day.  *
 Q-Chem 5.0, Q-Chem, Inc., Pleasanton, CA (2017)
 Q-Chem 5.0.1 for Intel X86 EM64T Linux

User input:
--------------------------------------------------------------

$rem
threads 8
jobtype opt
method PBEh-3c
basis def2-mSVP
mem_static      1024
mem_total       8000
sym_ignore      true
unrestricted true
scf_algorithm   diis
scf_max_cycles  250
solvent_method  pcm
geom_opt_tol_energy 25
geom_opt_tol_gradient 75
scf_guess	read
mom_start	1
$end

$pcm
theory  iefpcm
$end

$solvent
dielectric      1.0001
$end

$molecule
read uincoords.mol
$end

--------------------------------------------------------------

   22   -2925.4401179332      7.13E-09 Convergence criterion met
 Total energy in the final basis set = -2925.44011793
   22   -2925.4477269813      7.66E-09 Convergence criterion met
 Total energy in the final basis set = -2925.44772698
   22   -2925.4482751042      8.00E-09 Convergence criterion met
 Total energy in the final basis set = -2925.44827510
   19   -2925.4479457526      9.35E-09 Convergence criterion met
 Total energy in the final basis set = -2925.44794575
   18   -2925.4475318788      7.16E-09 Convergence criterion met
 Total energy in the final basis set = -2925.44753188
   18   -2925.4469131597      7.33E-09 Convergence criterion met
 Total energy in the final basis set = -2925.44691316
   20   -2925.4451217040      7.84E-09 Convergence criterion met
 Total energy in the final basis set = -2925.44512170
   20   -2925.4428126219      7.61E-09 Convergence criterion met
 Total energy in the final basis set = -2925.44281262
   19   -2925.4457580331      6.64E-09 Convergence criterion met
 Total energy in the final basis set = -2925.44575803

                    Orbital Energies (a.u.)
 --------------------------------------------------------------

 Alpha MOs
 -- Occupied --
-14.686 -14.685 -10.488 -10.488 -10.484 -10.483 -10.483 -10.483
-10.482 -10.482 -10.481 -10.481 -10.474 -10.474 -10.474 -10.474
-10.473 -10.473 -10.472 -10.472 -10.472 -10.472 -10.472 -10.471
-10.471 -10.471 -10.468 -10.468 -10.468 -10.467 -10.467 -10.466
-10.463 -10.461 -10.460 -10.460 -10.458 -10.457 -10.457 -10.457
-10.455 -10.454 -10.453 -10.452 -10.447 -10.446 -10.446 -10.445
-10.445 -10.445 -10.444 -10.444 -10.444 -10.444 -10.443 -10.443
-10.443 -10.443 -10.443 -10.443 -10.443 -10.443 -10.443 -10.442
-10.438 -10.436 -10.436 -10.436 -10.432 -10.431 -10.430 -10.430
-10.426 -10.426  -6.929  -6.926  -1.107  -1.105  -1.030  -1.029
 -0.976  -0.973  -0.971  -0.971  -0.948  -0.947  -0.944  -0.944
 -0.943  -0.943  -0.920  -0.911  -0.886  -0.884  -0.878  -0.877
 -0.871  -0.870  -0.858  -0.857  -0.851  -0.850  -0.843  -0.842
 -0.834  -0.825  -0.823  -0.816  -0.807  -0.806  -0.806  -0.805
 -0.773  -0.772  -0.770  -0.769  -0.745  -0.745  -0.741  -0.731
 -0.729  -0.728  -0.700  -0.699  -0.692  -0.690  -0.685  -0.684
 -0.683  -0.680  -0.657  -0.655  -0.653  -0.653  -0.648  -0.645
 -0.642  -0.641  -0.608  -0.603  -0.602  -0.599  -0.593  -0.592
 -0.591  -0.587  -0.586  -0.585  -0.584  -0.571  -0.570  -0.555
 -0.554  -0.553  -0.553  -0.546  -0.538  -0.535  -0.529  -0.521
 -0.520  -0.518  -0.517  -0.516  -0.513  -0.511  -0.505  -0.504
 -0.501  -0.500  -0.499  -0.497  -0.497  -0.497  -0.494  -0.493
 -0.489  -0.488  -0.487  -0.485  -0.483  -0.481  -0.478  -0.478
 -0.477  -0.476  -0.475  -0.473  -0.470  -0.469  -0.466  -0.465
 -0.464  -0.463  -0.452  -0.450  -0.449  -0.444  -0.442  -0.438
 -0.436  -0.431  -0.429  -0.423  -0.422  -0.421  -0.420  -0.416
 -0.411  -0.409  -0.409  -0.407  -0.407  -0.405  -0.405  -0.404
 -0.402  -0.399  -0.396  -0.395  -0.392  -0.391  -0.390  -0.389
 -0.387  -0.386  -0.373  -0.371  -0.364  -0.363  -0.357  -0.344
 -0.340  -0.333  -0.326  -0.325  -0.311  -0.308  -0.300  -0.296
 -0.294  -0.284  -0.282  -0.282  -0.281  -0.279  -0.278  -0.267
 -0.250  -0.249  -0.236  -0.234  -0.181

 Beta MOs
 -- Occupied --
-14.686 -14.685 -10.488 -10.488 -10.483 -10.482 -10.482 -10.481
-10.480 -10.480 -10.480 -10.478 -10.475 -10.475 -10.475 -10.474
-10.474 -10.472 -10.471 -10.471 -10.471 -10.470 -10.470 -10.470
-10.469 -10.469 -10.469 -10.469 -10.469 -10.468 -10.465 -10.464
-10.464 -10.463 -10.462 -10.462 -10.458 -10.457 -10.457 -10.456
-10.452 -10.451 -10.450 -10.449 -10.447 -10.446 -10.446 -10.445
-10.445 -10.445 -10.444 -10.444 -10.444 -10.444 -10.443 -10.443
-10.443 -10.443 -10.443 -10.443 -10.443 -10.443 -10.443 -10.442
-10.438 -10.436 -10.436 -10.436 -10.432 -10.431 -10.430 -10.430
-10.427 -10.426  -6.927  -6.924  -1.107  -1.105  -1.026  -1.026
 -0.974  -0.973  -0.968  -0.966  -0.948  -0.947  -0.943  -0.943
 -0.942  -0.942  -0.915  -0.907  -0.886  -0.884  -0.877  -0.877
 -0.869  -0.868  -0.856  -0.855  -0.851  -0.850  -0.843  -0.842
 -0.824  -0.823  -0.821  -0.807  -0.806  -0.806  -0.805  -0.805
 -0.772  -0.772  -0.770  -0.769  -0.743  -0.741  -0.737  -0.729
 -0.728  -0.728  -0.698  -0.697  -0.692  -0.687  -0.685  -0.684
 -0.680  -0.675  -0.656  -0.654  -0.653  -0.652  -0.647  -0.645
 -0.642  -0.640  -0.606  -0.601  -0.600  -0.597  -0.593  -0.592
 -0.591  -0.586  -0.585  -0.584  -0.583  -0.571  -0.570  -0.554
 -0.553  -0.552  -0.551  -0.545  -0.537  -0.534  -0.527  -0.520
 -0.519  -0.518  -0.517  -0.516  -0.511  -0.510  -0.504  -0.502
 -0.498  -0.497  -0.497  -0.497  -0.492  -0.492  -0.490  -0.490
 -0.488  -0.488  -0.487  -0.485  -0.483  -0.480  -0.478  -0.477
 -0.476  -0.475  -0.475  -0.472  -0.469  -0.469  -0.465  -0.465
 -0.464  -0.461  -0.452  -0.447  -0.444  -0.442  -0.436  -0.434
 -0.431  -0.425  -0.422  -0.422  -0.422  -0.421  -0.420  -0.415
 -0.411  -0.409  -0.409  -0.405  -0.404  -0.403  -0.403  -0.402
 -0.401  -0.398  -0.395  -0.395  -0.392  -0.391  -0.389  -0.387
 -0.385  -0.373  -0.371  -0.364  -0.361  -0.354  -0.346  -0.341
 -0.332  -0.327  -0.326  -0.325  -0.303  -0.302  -0.296  -0.294
 -0.283  -0.282  -0.282  -0.280  -0.268  -0.263  -0.257  -0.250
 -0.249  -0.236  -0.234

          Ground-State Mulliken Net Atomic Charges

     Atom                 Charge (a.u.)    Spin (a.u.)
  --------------------------------------------------------
      1 N                    -0.739780       0.000019
      2 C                     0.312336      -0.000142
      3 C                     0.346179      -0.000007
      4 C                    -0.280154       0.000002
      5 H                     0.233033       0.000000
      6 C                    -0.236765      -0.000000
      7 H                     0.215398      -0.000000
      8 C                     0.338769      -0.000004
      9 C                    -0.279867      -0.000000
     10 H                     0.233569       0.000000
     11 C                    -0.235487       0.000001
     12 H                     0.214356      -0.000000
     13 C                    -0.228124      -0.000002
     14 H                     0.213807       0.000000
     15 C                    -0.345166       0.000003
     16 H                     0.204614      -0.000000
     17 C                     0.102000      -0.000004
     18 C                    -0.228643       0.000001
     19 H                     0.213887      -0.000000
     20 C                    -0.342716       0.000001
     21 H                     0.204927      -0.000000
     22 C                     0.088238      -0.000001
     23 C                    -0.349291      -0.000218
     24 H                     0.233714       0.000288
     25 C                     0.049215       0.001902
     26 C                    -0.349876      -0.000171
     27 H                     0.232603       0.000258
     28 C                     0.046190       0.001800
     29 C                    -0.206422      -0.018329
     30 C                    -0.749346       0.001011
     31 H                     0.236049       0.001115
     32 H                     0.243422      -0.000490
     33 H                     0.243508      -0.000710
     34 C                    -0.754192       0.001136
     35 H                     0.237421       0.001188
     36 H                     0.244311      -0.000718
     37 H                     0.244777      -0.000627
     38 B                     0.608622       0.210331
     39 C                    -0.121363       0.213492
     40 C                    -0.384458      -0.142679
     41 H                     0.235758       0.005599
     42 C                     0.093307       0.236502
     43 C                     0.113677       0.236646
     44 C                    -0.399256      -0.144468
     45 H                     0.227604       0.005726
     46 C                    -0.124373       0.222685
     47 C                     0.199870      -0.114922
     48 C                    -0.379551       0.136592
     49 H                     0.222059      -0.008143
     50 C                    -0.060693       0.139937
     51 C                     0.253102      -0.093164
     52 C                     0.200557      -0.115186
     53 C                    -0.372687       0.139812
     54 H                     0.224204      -0.008318
     55 C                    -0.202757      -0.097923
     56 H                     0.231001       0.004809
     57 C                    -0.336370       0.144118
     58 H                     0.224602      -0.008444
     59 C                    -0.205115      -0.098889
     60 H                     0.232137       0.004833
     61 C                    -0.332906       0.148297
     62 H                     0.224376      -0.008702
     63 C                    -0.130103       0.216711
     64 C                    -0.386779      -0.143710
     65 H                     0.236699       0.005614
     66 C                     0.099481       0.239445
     67 C                     0.107041       0.236577
     68 C                    -0.383064      -0.144868
     69 H                     0.240648       0.005757
     70 C                    -0.116964       0.229796
     71 C                     0.208696      -0.113576
     72 C                    -0.389916       0.133275
     73 H                     0.240268      -0.008038
     74 C                    -0.061058       0.143181
     75 C                     0.249762      -0.092514
     76 C                     0.200670      -0.113680
     77 C                    -0.374318       0.135409
     78 H                     0.224125      -0.008072
     79 C                    -0.204489      -0.096532
     80 H                     0.232696       0.004717
     81 C                    -0.331846       0.144509
     82 H                     0.225119      -0.008458
     83 C                    -0.208827      -0.095839
     84 H                     0.235553       0.004695
     85 C                    -0.333867       0.141373
     86 H                     0.224774      -0.008271
     87 B                     0.595798       0.208991
     88 C                    -0.202026      -0.018451
     89 C                     0.045633       0.002025
     90 C                    -0.321820       0.000049
     91 H                     0.230676       0.000271
     92 C                     0.280687      -0.000320
     93 C                    -0.338094       0.000105
     94 H                     0.232452       0.000227
     95 C                     0.042017       0.001663
     96 N                    -0.733574       0.000028
     97 C                     0.338700      -0.000018
     98 C                     0.351416      -0.000011
     99 C                    -0.282158       0.000001
    100 H                     0.233466      -0.000000
    101 C                    -0.237398       0.000001
    102 H                     0.216383      -0.000000
    103 C                    -0.285486       0.000072
    104 H                     0.236417      -0.000020
    105 C                    -0.243302      -0.000008
    106 H                     0.217549       0.000023
    107 C                    -0.227238       0.000012
    108 H                     0.213657      -0.000001
    109 C                    -0.346511      -0.000009
    110 H                     0.205346       0.000001
    111 C                     0.107096       0.000007
    112 C                    -0.228874      -0.000001
    113 H                     0.214232       0.000000
    114 C                    -0.343532       0.000004
    115 H                     0.204854      -0.000000
    116 C                     0.088663      -0.000005
    117 C                    -0.751971       0.001327
    118 H                     0.238268       0.001255
    119 H                     0.244313      -0.000646
    120 H                     0.246443      -0.000847
    121 C                    -0.745621       0.000980
    122 H                     0.235979       0.001079
    123 H                     0.239976      -0.000533
    124 H                     0.245443      -0.000595
  --------------------------------------------------------
  Sum of atomic charges =    -0.000000

                    Cartesian Multipole Moments
 -----------------------------------------------------------------
    Charge (ESU x 10^10)
                -0.0000
    Dipole Moment (Debye)
         X       0.1797      Y       1.1274      Z       0.2913
       Tot       1.1782
    Quadrupole Moments (Debye-Ang)
        XX    -404.0363     XY      43.9857     YY    -395.6152
        XZ       4.2323     YZ      19.1633     ZZ    -445.8638

             Standard Nuclear Orientation (Angstroms)
    I     Atom           X                Y                Z
 ----------------------------------------------------------------
    1      N       0.1266441654    -0.3131835561     0.1249182420
    2      C       0.0912092985    -0.1970326947     1.5304083881
    3      C       1.2034444287    -0.0513756233    -0.6967709356
    4      C       2.4725875722     0.4086863049    -0.3716834459
    5      H       2.7533386925     0.6079033064     0.6540009263
    6      C       3.3644179772     0.6040407631    -1.4112860963
    7      H       4.3614715118     0.9611061896    -1.1893565150
    8      C      -0.9296440628    -0.7420685019    -0.6480430363
    9      C      -2.2069588272    -1.1302316686    -0.2567743363
   10      H      -2.5030007345    -1.1292024012     0.7837066409
   11      C      -3.0907992915    -1.5169038620    -1.2474589956
   12      H      -4.0921202213    -1.8211821647    -0.9713858267
   13      C      -2.7209851890    -1.5237866840    -2.5956435924
   14      H      -3.4387887514    -1.8313241542    -3.3443192862
   15      C      -1.4476991223    -1.1443810054    -2.9753817670
   16      H      -1.1622562103    -1.1549163930    -4.0199267897
   17      C      -0.5393628605    -0.7504133853    -1.9975038403
   18      C       3.0088249291     0.3524449859    -2.7398248689
   19      H       3.7333583212     0.5180734553    -3.5257640716
   20      C       1.7423033414    -0.1019339818    -3.0550050666
   21      H       1.4660047097    -0.2932129281    -4.0845688073
   22      C       0.8274792518    -0.3073441671    -2.0291224582
   23      C      -0.7920046317     0.6879991100     2.1282498826
   24      H      -1.4227932272     1.3115284045     1.5050752923
   25      C      -0.8765623878     0.7610217371     3.5135853137
   26      C       0.9080614067    -1.0004809020     2.3075641108
   27      H       1.5782146381    -1.7011478997     1.8228404103
   28      C       0.8527051725    -0.9201702935     3.6931414206
   29      C      -0.0494669240    -0.0427540896     4.3086713850
   30      C      -1.8538962814     1.7036873510     4.1573302703
   31      H      -2.4520355153     2.2331089801     3.4161520861
   32      H      -1.3448787513     2.4519216419     4.7679233340
   33      H      -2.5409797571     1.1725847652     4.8191515687
   34      C       1.7414379004    -1.8004035784     4.5254481399
   35      H       2.3966631679    -2.4105414895     3.9044023241
   36      H       2.3729197937    -1.2128806480     5.1950061203
   37      H       1.1589461539    -2.4773307633     5.1539272352
   38      B      -0.1327340927     0.0130383107     5.8806886249
   39      C       0.7153213456     1.0067690769     6.6738866654
   40      C       1.5182458139     1.9296228647     5.9869520622
   41      H       1.5232681694     1.9260953058     4.9025598894
   42      C       2.2906800027     2.8232061870     6.6786920670
   43      C       2.3047583026     2.8249171786     8.1353646412
   44      C       1.5346344152     1.9215701236     8.8241059540
   45      H       1.5430937641     1.8982024892     9.9086273742
   46      C       0.7211996377     1.0030473376     8.1304387798
   47      C       3.2168730990     3.8716516691     8.5560191410
   48      C       3.6524033274     4.3600870775     9.7646666453
   49      H       3.3065700949     3.9494283289    10.7044777280
   50      C       3.7181381401     4.4640627320     7.3744754501
   51      C       4.6275138855     5.5160943849     7.3435512570
   52      C       3.1835250954     3.8578605929     6.2183240248
   53      C       3.5709174193     4.3164036217     4.9808782203
   54      H       3.1873703949     3.8833394962     4.0655729404
   55      C       4.5749415021     5.4269585406     9.7626192851
   56      H       4.9183296932     5.8124116369    10.7134214363
   57      C       5.0552699371     5.9967092496     8.6031752676
   58      H       5.7627232634     6.8144767347     8.6590103646
   59      C       4.4911914779     5.3811625478     4.9248730309
   60      H       4.8008605769     5.7483054828     3.9551642382
   61      C       5.0098183474     5.9707428156     6.0582022726
   62      H       5.7145968566     6.7870734181     5.9616338140
   63      C      -1.0429983307    -0.9473147281     6.6429071440
   64      C      -1.8613621776    -1.8504567957     5.9429547756
   65      H      -1.8415172141    -1.8532755170     4.8587231732
   66      C      -2.6679814145    -2.7231278346     6.6253070105
   67      C      -2.6912902673    -2.7157792889     8.0819239228
   68      C      -1.8970278133    -1.8461605322     8.7782476900
   69      H      -1.9134657424    -1.8513552113     9.8617899299
   70      C      -1.0509375338    -0.9504352992     8.0967259955
   71      C      -3.6158199412    -3.7444172619     8.5144119983
   72      C      -4.0545007904    -4.2174609157     9.7294485496
   73      H      -3.7155203122    -3.7951072221    10.6674873373
   74      C      -4.1150728669    -4.3453448697     7.3381823902
   75      C      -5.0249611974    -5.4002855706     7.3226363204
   76      C      -3.5727166264    -3.7583370473     6.1739101576
   77      C      -3.9602716436    -4.2442684811     4.9456463313
   78      H      -3.5735010666    -3.8343341103     4.0213498499
   79      C      -4.8826245682    -5.3092781051     4.9052698010
   80      H      -5.1878455111    -5.6937880908     3.9408572410
   81      C      -5.4057474222    -5.8787471208     6.0460891804
   82      H      -6.1101470658    -6.6972902571     5.9633812982
   83      C      -4.9777286696    -5.2843487726     9.7402707922
   84      H      -5.3231478655    -5.6552158959    10.6963854595
   85      C      -5.4549377801    -5.8678069176     8.5865534386
   86      H      -6.1616178132    -6.6861210573     8.6489353619
   87      B      -0.1288565393    -0.0127029135     8.8879407248
   88      C      -0.1209642852    -0.2500865973    10.4454762680
   89      C      -1.1686191083     0.2183785891    11.2466168912
   90      C      -1.4007266248    -0.3566989602    12.4913615173
   91      H      -2.2670557893    -0.0698175631    13.0764157138
   92      C      -0.5792935403    -1.3764258470    12.9461931369
   93      C       0.5344822363    -1.7551520709    12.2139015532
   94      H       1.1756624248    -2.5400696004    12.5976021372
   95      C       0.7611958719    -1.2117500351    10.9566931989
   96      N      -0.9562975058    -2.1536653124    14.0614527764
   97      C      -1.3697265838    -3.4629050797    13.9457202083
   98      C      -1.0706506119    -1.7659410244    15.3778086566
   99      C      -0.7726360390    -0.5422896448    15.9605750593
  100      H      -0.3992908177     0.2847797361    15.3705590162
  101      C      -0.9696723252    -0.4242134826    17.3243605982
  102      H      -0.7470191540     0.5172354433    17.8091689308
  103      C      -1.4498287672    -4.2589509418    12.8070957125
  104      H      -1.1462955779    -3.8884628512    11.8360515168
  105      C      -1.9090605532    -5.5543479732    12.9616123293
  106      H      -1.9711626729    -6.1980429876    12.0929665599
  107      C      -2.2843934867    -6.0495309188    14.2139444315
  108      H      -2.6361662479    -7.0687806353    14.3011618883
  109      C      -2.2050632194    -5.2494921786    15.3388716158
  110      H      -2.4982054704    -5.6362234811    16.3068111569
  111      C      -1.7452379252    -3.9422852567    15.2101442698
  112      C      -1.4443834073    -1.4935164463    18.0901024677
  113      H      -1.5838712478    -1.3649446525    19.1549426905
  114      C      -1.7349953468    -2.7094369930    17.4998800068
  115      H      -2.1011932666    -3.5364616201    18.0953996987
  116      C      -1.5515644529    -2.8535295854    16.1300251785
  117      C       1.8911613861    -1.7271645135    10.1106545272
  118      H       2.5417448951    -2.3978410480    10.6714569684
  119      H       2.5050885120    -0.9141839521     9.7205874472
  120      H       1.5169650889    -2.2831609324     9.2474251049
  121      C      -2.1287771738     1.2324284600    10.6916215883
  122      H      -2.8585978458     1.5517353591    11.4349768830
  123      H      -1.6090556836     2.1207312414    10.3295519640
  124      H      -2.6816700177     0.8223771712     9.8427835007
 ----------------------------------------------------------------
