 Q-Chem 5.0, Q-Chem, Inc., Pleasanton, CA (2017)
 Q-Chem 5.0.1 for Intel X86 EM64T Linux

User input:
--------------------------------------------------------------
$rem
threads 8
jobtype sp
method PBEh-3c
basis def2-mSVP
mem_static      1024
mem_total       8000
sym_ignore      true
unrestricted true
scf_algorithm	diis
scf_max_cycles	250
solvent_method  pcm
$end

$pcm
theory  iefpcm
$end

$solvent
dielectric      1.0001
$end

$molecule
read uincoords.mol
$end

--------------------------------------------------------------

   14   -2925.4408204240      9.07E-06 Convergence criterion met
 Total energy in the final basis set = -2925.44082042
 Total job time:  1657.65s(wall), 5229.06s(cpu)
        *  Thank you very much for using Q-Chem.  Have a nice day.  *
 Q-Chem 5.0, Q-Chem, Inc., Pleasanton, CA (2017)
 Q-Chem 5.0.1 for Intel X86 EM64T Linux

User input:
--------------------------------------------------------------

$rem
threads 8
jobtype opt
method PBEh-3c
basis def2-mSVP
mem_static      1024
mem_total       8000
sym_ignore      true
unrestricted true
scf_algorithm   diis
scf_max_cycles  250
solvent_method  pcm
geom_opt_tol_energy 25
geom_opt_tol_gradient 75
scf_guess	read
mom_start	1
$end

$pcm
theory  iefpcm
$end

$solvent
dielectric      1.0001
$end

$molecule
read uincoords.mol
$end

--------------------------------------------------------------

   22   -2925.4401179334      7.13E-09 Convergence criterion met
 Total energy in the final basis set = -2925.44011793
   22   -2925.4477269813      7.66E-09 Convergence criterion met
 Total energy in the final basis set = -2925.44772698
   22   -2925.4482751046      8.00E-09 Convergence criterion met
 Total energy in the final basis set = -2925.44827510
   19   -2925.4479457527      9.35E-09 Convergence criterion met
 Total energy in the final basis set = -2925.44794575
   18   -2925.4475318790      7.16E-09 Convergence criterion met
 Total energy in the final basis set = -2925.44753188
   18   -2925.4469131608      7.33E-09 Convergence criterion met
 Total energy in the final basis set = -2925.44691316
   20   -2925.4451217042      7.84E-09 Convergence criterion met
   16   -2925.4448689288      7.27E-09 Convergence criterion met
 Total energy in the final basis set = -2925.44486893
   14   -2925.4448208040      6.16E-09 Convergence criterion met
 Total energy in the final basis set = -2925.44482080
   13   -2925.4447953170      9.53E-09 Convergence criterion met
 Total energy in the final basis set = -2925.44479532
   10   -2925.4447647926      4.77E-09 Convergence criterion met
 Total energy in the final basis set = -2925.44476479
   10   -2925.4447595931      7.72E-09 Convergence criterion met
 Total energy in the final basis set = -2925.44475959
   12   -2925.4447599356      4.70E-09 Convergence criterion met
 Total energy in the final basis set = -2925.44475994

             Standard Nuclear Orientation (Angstroms)
    I     Atom           X                Y                Z
 ----------------------------------------------------------------
    1      N       0.1065781818    -0.3462018630     0.1365280214
    2      C       0.0841748738    -0.1935772911     1.5371972069
    3      C       1.1952542723    -0.1730607201    -0.6955537489
    4      C       2.4863610090     0.2385443123    -0.3919002584
    5      H       2.7818894730     0.4646375884     0.6238452255
    6      C       3.3821849959     0.3536573162    -1.4402179797
    7      H       4.3956342201     0.6713129923    -1.2331211402
    8      C      -0.9731567360    -0.7462555339    -0.6222510136
    9      C      -2.2664258687    -1.0658227156    -0.2206325433
   10      H      -2.5644382753    -1.0200742145     0.8181622881
   11      C      -3.1674858976    -1.4474042933    -1.1979469493
   12      H      -4.1804781064    -1.6980143176    -0.9106128664
   13      C      -2.8003060991    -1.5178988674    -2.5444767571
   14      H      -3.5313657979    -1.8186075239    -3.2829709306
   15      C      -1.5107438164    -1.2105764743    -2.9346347189
   16      H      -1.2248486641    -1.2728615127    -3.9772791447
   17      C      -0.5857825455    -0.8233738652    -1.9699768139
   18      C       3.0098182954     0.0722574560    -2.7578078675
   19      H       3.7382054103     0.1735561512    -3.5510422036
   20      C       1.7210274184    -0.3301549183    -3.0527227598
   21      H       1.4297652214    -0.5425022797    -4.0739829922
   22      C       0.8026449832    -0.4549477386    -2.0174303238
   23      C      -0.8049808554     0.6950924007     2.1224331637
   24      H      -1.4439039574     1.3020801661     1.4913947465
   25      C      -0.8835431837     0.7967379115     3.5059691139
   26      C       0.9194351887    -0.9644160735     2.3288215526
   27      H       1.5941264915    -1.6704909327     1.8586333833
   28      C       0.8703129353    -0.8537618566     3.7121114127
   29      C      -0.0437601659     0.0206005969     4.3146464617
   30      C      -1.8745663740     1.7357969525     4.1339422774
   31      H      -2.4536157193     2.2737698817     3.3837530339
   32      H      -1.3797187283     2.4765472458     4.7647076043
   33      H      -2.5788819548     1.1992672917     4.7731678495
   34      C       1.7776425638    -1.7014032250     4.5582552860
   35      H       2.4384858614    -2.3163055049     3.9477936296
   36      H       2.4034885275    -1.0883962836     5.2098174594
   37      H       1.2093283458    -2.3723847752     5.2059737197
   38      B      -0.1375848391     0.0819198172     5.8858421990
   39      C       0.7004341472     1.0731953679     6.6901609482
   40      C       1.4975518746     2.0087307552     6.0132355460
   41      H       1.5027795082     2.0155343331     4.9288038516
   42      C       2.2630361337     2.9004802040     6.7147821295
   43      C       2.2755888788     2.8866772515     8.1711765660
   44      C       1.5120382420     1.9699582043     8.8500275796
   45      H       1.5192678330     1.9361924749     9.9341727805
   46      C       0.7064809850     1.0521357829     8.1465458423
   47      C       3.1799621989     3.9350850370     8.6042271229
   48      C       3.6103635841     4.4136551403     9.8186828502
   49      H       3.2650388528     3.9913154984    10.7534607994
   50      C       3.6798135513     4.5425989168     7.4297890960
   51      C       4.5838604454     5.5995573483     7.4115551784
   52      C       3.1506260404     3.9452494022     6.2665951601
   53      C       3.5382951958     4.4184229484     5.0349267085
   54      H       3.1592227932     3.9926174707     4.1143937610
   55      C       4.5267304793     5.4858065172     9.8294732876
   56      H       4.8659768331     5.8636746406    10.7847984546
   57      C       5.0064108437     6.0697305765     8.6768092059
   58      H       5.7092279560     6.8908022855     8.7422500177
   59      C       4.4535315239     5.4883232719     4.9915962530
   60      H       4.7632958495     5.8664966648     4.0261626409
   61      C       4.9669077138     6.0691173783     6.1316986630
   62      H       5.6679043828     6.8898081499     6.0449465214
   63      C      -1.0436234028    -0.8928863976     6.6359005859
   64      C      -1.8485969672    -1.7972888582     5.9223013669
   65      H      -1.8288176379    -1.7840004653     4.8382398127
   66      C      -2.6365845197    -2.6967516091     6.5908822403
   67      C      -2.6524782116    -2.7180985969     8.0468527437
   68      C      -1.8737891354    -1.8451594474     8.7571187323
   69      H      -1.8842575217    -1.8767898121     9.8400013885
   70      C      -1.0503266992    -0.9167977120     8.0902456809
   71      C      -3.5492899846    -3.7773410896     8.4635820147
   72      C      -3.9660098284    -4.2871205839     9.6713607229
   73      H      -3.6280977106    -3.8795144664    10.6159473169
   74      C      -4.0407033900    -4.3668178554     7.2782312853
   75      C      -4.9231331904    -5.4444002189     7.2466498549
   76      C      -3.5195629442    -3.7438459683     6.1230640659
   77      C      -3.9010645991    -4.2156362654     4.8876017332
   78      H      -3.5290486863    -3.7789378815     3.9695063576
   79      C      -4.7966874880    -5.3027302704     4.8309141377
   80      H      -5.0969686138    -5.6761157119     3.8605962693
   81      C      -5.2988696607    -5.9074113259     5.9628941276
   82      H      -5.9822412928    -6.7422750871     5.8677688150
   83      C      -4.8605958864    -5.3782453535     9.6658914239
   84      H      -5.1860807573    -5.7790943059    10.6169339916
   85      C      -5.3317557020    -5.9491150857     8.5033999567
   86      H      -6.0159777591    -6.7871912182     8.5531553794
   87      B      -0.1365994673     0.0227517167     8.8936067825
   88      C      -0.0975608049    -0.2532374141    10.4452740265
   89      C      -1.1008155652     0.2338473642    11.2919296224
   90      C      -1.3115717931    -0.3586788708    12.5318338772
   91      H      -2.1422948732    -0.0461768835    13.1545564794
   92      C      -0.5192113348    -1.4230117725    12.9343375925
   93      C       0.5526270568    -1.8278258162    12.1546064625
   94      H       1.1786527337    -2.6429583273    12.4984644681
   95      C       0.7639636570    -1.2576344111    10.9059776287
   96      N      -0.8861132736    -2.2025222078    14.0519764608
   97      C      -1.4164130477    -3.4698212773    13.9274246023
   98      C      -0.9729584216    -1.8139059610    15.3708336678
   99      C      -0.5779849114    -0.6212449543    15.9605665914
  100      H      -0.1402433711     0.1767998932    15.3752298772
  101      C      -0.7637571550    -0.4957912064    17.3253237018
  102      H      -0.4663496991     0.4218725364    17.8155385100
  103      C      -1.5854389908    -4.2433611016    12.7824886393
  104      H      -1.2636331587    -3.8940343657    11.8096600448
  105      C      -2.1693665535    -5.4889570514    12.9292125612
  106      H      -2.3064219378    -6.1116769307    12.0538588256
  107      C      -2.5767020910    -5.9598081420    14.1806943127
  108      H      -3.0255961283    -6.9406699011    14.2618815388
  109      C      -2.4089601424    -5.1827116511    15.3119368491
  110      H      -2.7305270305    -5.5486901983    16.2789430949
  111      C      -1.8292335636    -3.9236295558    15.1901440526
  112      C      -1.3227738740    -1.5276617122    18.0851327963
  113      H      -1.4507091373    -1.3944386290    19.1508565793
  114      C      -1.7118480780    -2.7122446303    17.4880930889
  115      H      -2.1443021406    -3.5099838911    18.0789824635
  116      C      -1.5403092451    -2.8627544678    16.1173777304
  117      C       1.8447551206    -1.7990326489    10.0121500019
  118      H       2.5116321398    -2.4727562790    10.5495860407
  119      H       2.4511335852    -1.0019672401     9.5806702847
  120      H       1.4194719521    -2.3602463955     9.1761182339
  121      C      -2.0352307481     1.3033698049    10.8001384575
  122      H      -2.6944343781     1.6614143372    11.5903376166
  123      H      -1.4903370906     2.1616777893    10.4047314091
  124      H      -2.6665555305     0.9294904791     9.9901530093
 ----------------------------------------------------------------

   13   -2925.4447622811      5.48E-09 Convergence criterion met
 Total energy in the final basis set = -2925.44476228
 Final energy is   -2925.44476228110
 **  OPTIMIZATION CONVERGED  **

                    Orbital Energies (a.u.)
 --------------------------------------------------------------

 Alpha MOs
 -- Occupied --
-14.686 -14.686 -10.488 -10.488 -10.483 -10.483 -10.483 -10.482
-10.482 -10.482 -10.481 -10.481 -10.474 -10.474 -10.473 -10.473
-10.472 -10.472 -10.472 -10.471 -10.471 -10.471 -10.471 -10.471
-10.470 -10.470 -10.467 -10.467 -10.467 -10.466 -10.466 -10.466
-10.463 -10.460 -10.459 -10.459 -10.458 -10.457 -10.457 -10.456
-10.455 -10.454 -10.453 -10.451 -10.447 -10.446 -10.446 -10.446
-10.445 -10.445 -10.445 -10.444 -10.444 -10.444 -10.444 -10.443
-10.443 -10.443 -10.443 -10.443 -10.443 -10.443 -10.443 -10.443
-10.439 -10.436 -10.436 -10.436 -10.431 -10.431 -10.430 -10.430
-10.426 -10.425  -6.929  -6.926  -1.107  -1.106  -1.029  -1.029
 -0.976  -0.974  -0.971  -0.970  -0.948  -0.947  -0.944  -0.944
 -0.943  -0.942  -0.919  -0.910  -0.886  -0.884  -0.878  -0.877
 -0.871  -0.869  -0.858  -0.857  -0.852  -0.850  -0.843  -0.842
 -0.833  -0.824  -0.822  -0.815  -0.807  -0.807  -0.806  -0.805
 -0.773  -0.772  -0.770  -0.769  -0.745  -0.745  -0.740  -0.730
 -0.729  -0.728  -0.700  -0.699  -0.692  -0.690  -0.685  -0.684
 -0.683  -0.680  -0.657  -0.655  -0.653  -0.653  -0.648  -0.645
 -0.642  -0.641  -0.608  -0.603  -0.602  -0.599  -0.593  -0.592
 -0.591  -0.586  -0.586  -0.585  -0.585  -0.571  -0.571  -0.555
 -0.554  -0.553  -0.553  -0.546  -0.538  -0.535  -0.529  -0.521
 -0.520  -0.518  -0.517  -0.516  -0.512  -0.510  -0.505  -0.503
 -0.500  -0.499  -0.499  -0.498  -0.498  -0.497  -0.494  -0.492
 -0.489  -0.488  -0.487  -0.485  -0.483  -0.480  -0.478  -0.478
 -0.477  -0.475  -0.475  -0.472  -0.470  -0.469  -0.466  -0.465
 -0.464  -0.462  -0.452  -0.450  -0.449  -0.444  -0.442  -0.438
 -0.436  -0.431  -0.429  -0.423  -0.423  -0.421  -0.420  -0.416
 -0.411  -0.409  -0.409  -0.407  -0.406  -0.405  -0.405  -0.404
 -0.402  -0.399  -0.396  -0.395  -0.393  -0.391  -0.390  -0.388
 -0.387  -0.386  -0.373  -0.372  -0.364  -0.362  -0.357  -0.343
 -0.340  -0.333  -0.327  -0.325  -0.310  -0.308  -0.300  -0.297
 -0.294  -0.284  -0.282  -0.282  -0.281  -0.278  -0.277  -0.267
 -0.251  -0.249  -0.236  -0.233  -0.180

 Beta MOs
 -- Occupied --
-14.686 -14.686 -10.488 -10.488 -10.483 -10.482 -10.482 -10.481
-10.480 -10.480 -10.479 -10.477 -10.475 -10.475 -10.474 -10.474
-10.473 -10.472 -10.471 -10.471 -10.470 -10.469 -10.469 -10.469
-10.469 -10.469 -10.468 -10.468 -10.468 -10.467 -10.465 -10.464
-10.464 -10.462 -10.461 -10.461 -10.458 -10.457 -10.457 -10.456
-10.451 -10.451 -10.450 -10.448 -10.447 -10.446 -10.446 -10.446
-10.445 -10.445 -10.445 -10.444 -10.444 -10.444 -10.444 -10.443
-10.443 -10.443 -10.443 -10.443 -10.443 -10.443 -10.443 -10.443
-10.439 -10.436 -10.436 -10.436 -10.431 -10.431 -10.430 -10.430
-10.426 -10.425  -6.927  -6.924  -1.107  -1.106  -1.025  -1.025
 -0.975  -0.973  -0.967  -0.965  -0.948  -0.947  -0.944  -0.943
 -0.942  -0.941  -0.914  -0.907  -0.886  -0.884  -0.878  -0.877
 -0.869  -0.867  -0.856  -0.855  -0.851  -0.850  -0.843  -0.842
 -0.824  -0.822  -0.821  -0.807  -0.806  -0.806  -0.805  -0.805
 -0.772  -0.772  -0.770  -0.769  -0.743  -0.740  -0.737  -0.729
 -0.728  -0.727  -0.698  -0.697  -0.692  -0.687  -0.685  -0.684
 -0.680  -0.675  -0.655  -0.654  -0.653  -0.653  -0.647  -0.645
 -0.642  -0.640  -0.606  -0.601  -0.600  -0.597  -0.593  -0.592
 -0.591  -0.586  -0.585  -0.585  -0.583  -0.571  -0.571  -0.554
 -0.552  -0.551  -0.551  -0.545  -0.536  -0.534  -0.527  -0.521
 -0.518  -0.518  -0.517  -0.516  -0.511  -0.510  -0.504  -0.502
 -0.498  -0.498  -0.498  -0.497  -0.492  -0.492  -0.490  -0.489
 -0.488  -0.488  -0.487  -0.485  -0.483  -0.480  -0.478  -0.477
 -0.476  -0.475  -0.474  -0.472  -0.469  -0.469  -0.465  -0.465
 -0.464  -0.461  -0.451  -0.447  -0.443  -0.441  -0.436  -0.434
 -0.431  -0.425  -0.422  -0.422  -0.421  -0.421  -0.420  -0.415
 -0.411  -0.409  -0.408  -0.405  -0.404  -0.403  -0.402  -0.402
 -0.400  -0.398  -0.395  -0.395  -0.392  -0.391  -0.389  -0.387
 -0.385  -0.373  -0.372  -0.363  -0.361  -0.354  -0.346  -0.341
 -0.331  -0.327  -0.326  -0.325  -0.303  -0.302  -0.296  -0.294
 -0.283  -0.282  -0.282  -0.280  -0.268  -0.262  -0.256  -0.251
 -0.249  -0.236  -0.233

          Ground-State Mulliken Net Atomic Charges

     Atom                 Charge (a.u.)    Spin (a.u.)
  --------------------------------------------------------
      1 N                    -0.740072       0.000024
      2 C                     0.319822      -0.000177
      3 C                     0.345699      -0.000008
      4 C                    -0.280486       0.000004
      5 H                     0.234350      -0.000000
      6 C                    -0.236352      -0.000001
      7 H                     0.215656      -0.000000
      8 C                     0.337581      -0.000005
      9 C                    -0.280273      -0.000000
     10 H                     0.234571       0.000000
     11 C                    -0.234841       0.000002
     12 H                     0.214509      -0.000000
     13 C                    -0.228694      -0.000002
     14 H                     0.213882       0.000000
     15 C                    -0.344101       0.000004
     16 H                     0.204638      -0.000000
     17 C                     0.100811      -0.000004
     18 C                    -0.229094       0.000002
     19 H                     0.213972      -0.000000
     20 C                    -0.341895       0.000002
     21 H                     0.204960      -0.000000
     22 C                     0.086402       0.000000
     23 C                    -0.353536      -0.000187
     24 H                     0.235409       0.000287
     25 C                     0.049550       0.001914
     26 C                    -0.354388      -0.000129
     27 H                     0.234277       0.000253
     28 C                     0.045885       0.001754
     29 C                    -0.206035      -0.018343
     30 C                    -0.749178       0.000954
     31 H                     0.235870       0.001111
     32 H                     0.243917      -0.000552
     33 H                     0.242910      -0.000627
     34 C                    -0.755009       0.001177
     35 H                     0.237506       0.001207
     36 H                     0.244490      -0.000712
     37 H                     0.245138      -0.000679
     38 B                     0.608569       0.210732
     39 C                    -0.121328       0.212524
     40 C                    -0.384829      -0.143914
     41 H                     0.235502       0.005668
     42 C                     0.092428       0.237679
     43 C                     0.114367       0.235373
     44 C                    -0.400957      -0.143954
     45 H                     0.227144       0.005717
     46 C                    -0.124703       0.223249
     47 C                     0.199732      -0.115305
     48 C                    -0.380042       0.136979
     49 H                     0.221897      -0.008166
     50 C                    -0.060171       0.139937
     51 C                     0.253690      -0.093561
     52 C                     0.199251      -0.116052
     53 C                    -0.372146       0.141314
     54 H                     0.224224      -0.008403
     55 C                    -0.202412      -0.098313
     56 H                     0.230806       0.004834
     57 C                    -0.336871       0.144389
     58 H                     0.224470      -0.008461
     59 C                    -0.205240      -0.099781
     60 H                     0.232005       0.004876
     61 C                    -0.333044       0.149871
     62 H                     0.224215      -0.008800
     63 C                    -0.131639       0.216529
     64 C                    -0.387597      -0.144504
     65 H                     0.236311       0.005666
     66 C                     0.099636       0.240900
     67 C                     0.106292       0.235749
     68 C                    -0.383430      -0.144428
     69 H                     0.242187       0.005735
     70 C                    -0.112112       0.229687
     71 C                     0.208510      -0.113583
     72 C                    -0.392467       0.133082
     73 H                     0.246695      -0.008002
     74 C                    -0.060442       0.143990
     75 C                     0.249722      -0.092777
     76 C                     0.199389      -0.114239
     77 C                    -0.374137       0.135929
     78 H                     0.224263      -0.008102
     79 C                    -0.204604      -0.096982
     80 H                     0.232557       0.004740
     81 C                    -0.332046       0.145300
     82 H                     0.224989      -0.008506
     83 C                    -0.210691      -0.095952
     84 H                     0.237647       0.004700
     85 C                    -0.334228       0.141303
     86 H                     0.224453      -0.008271
     87 B                     0.589807       0.208280
     88 C                    -0.202730      -0.018536
     89 C                     0.043207       0.002386
     90 C                    -0.316668       0.000073
     91 H                     0.231508       0.000267
     92 C                     0.277218      -0.000213
     93 C                    -0.339256       0.000165
     94 H                     0.233101       0.000219
     95 C                     0.041962       0.001568
     96 N                    -0.730567       0.000020
     97 C                     0.332927      -0.000013
     98 C                     0.351506      -0.000006
     99 C                    -0.282231       0.000002
    100 H                     0.234247      -0.000001
    101 C                    -0.237575       0.000003
    102 H                     0.216858      -0.000000
    103 C                    -0.287733       0.000086
    104 H                     0.242817      -0.000023
    105 C                    -0.247018      -0.000011
    106 H                     0.222229       0.000029
    107 C                    -0.226976       0.000027
    108 H                     0.213821      -0.000002
    109 C                    -0.348084      -0.000011
    110 H                     0.205535       0.000001
    111 C                     0.110488       0.000023
    112 C                    -0.228909      -0.000002
    113 H                     0.214494       0.000000
    114 C                    -0.343533       0.000006
    115 H                     0.204990      -0.000000
    116 C                     0.086522      -0.000008
    117 C                    -0.752673       0.001237
    118 H                     0.238505       0.001265
    119 H                     0.245454      -0.000696
    120 H                     0.245348      -0.000763
    121 C                    -0.743966       0.000942
    122 H                     0.235764       0.001118
    123 H                     0.240241      -0.000565
    124 H                     0.245710      -0.000534
  --------------------------------------------------------
  Sum of atomic charges =    -0.000000

                    Cartesian Multipole Moments
 -----------------------------------------------------------------
    Charge (ESU x 10^10)
                -0.0000
    Dipole Moment (Debye)
         X       0.1231      Y       1.2074      Z       0.4266
       Tot       1.2864
    Quadrupole Moments (Debye-Ang)
        XX    -403.1057     XY      43.3140     YY    -396.7017
        XZ       2.0120     YZ      19.1878     ZZ    -441.8618

 Total job time:  60519.84s(wall), 190110.03s(cpu)
        *  Thank you very much for using Q-Chem.  Have a nice day.  *
