 Q-Chem 5.0, Q-Chem, Inc., Pleasanton, CA (2017)
 Q-Chem 5.0.1 for Intel X86 EM64T Linux

User input:
--------------------------------------------------------------
$rem
threads 8
jobtype opt
method PBEh-3c
basis def2-mSVP
mem_static      1024
mem_total       8000
sym_ignore      true
unrestricted true
scf_algorithm	diis
scf_max_cycles	250
solvent_method  pcm
geom_opt_tol_energy 25
geom_opt_tol_gradient 75
$end

$pcm
theory  iefpcm
$end
$solvent
dielectric      4.33
$end

$molecule
read uincoords.mol
$end
--------------------------------------------------------------

   21   -2925.4707021505      6.91E-09 Convergence criterion met
 Total energy in the final basis set = -2925.47070215
   17   -2925.4706660409      9.38E-09 Convergence criterion met
 Total energy in the final basis set = -2925.47066604
   18   -2925.4702188683      7.26E-09 Convergence criterion met
 Total energy in the final basis set = -2925.47021887
   17   -2925.4695829955      9.23E-09 Convergence criterion met
 Total energy in the final basis set = -2925.46958300
   18   -2925.4696279904      8.64E-09 Convergence criterion met
 Total energy in the final basis set = -2925.46962799
   17   -2925.4693466960      9.91E-09 Convergence criterion met
 Total energy in the final basis set = -2925.46934670
   17   -2925.4687972363      9.90E-09 Convergence criterion met
 Total energy in the final basis set = -2925.46879724
   18   -2925.4526908229      9.16E-09 Convergence criterion met
   18   -2925.4665681424      9.57E-09 Convergence criterion met
 Total energy in the final basis set = -2925.46656814
   18   -2925.4665420801      9.05E-09 Convergence criterion met
 Total energy in the final basis set = -2925.46654208
   18   -2925.4665191337      8.62E-09 Convergence criterion met
 Total energy in the final basis set = -2925.46651913
   18   -2925.4665134656      9.36E-09 Convergence criterion met
 Total energy in the final basis set = -2925.46651347
   18   -2925.4665233441      9.30E-09 Convergence criterion met
 Total energy in the final basis set = -2925.46652334
   19   -2925.4665343211      5.94E-09 Convergence criterion met
 Total energy in the final basis set = -2925.46653432

             Standard Nuclear Orientation (Angstroms)
    I     Atom           X                Y                Z
 ----------------------------------------------------------------
    1      N       0.2033740769    -0.4805237300     0.2130503480
    2      C       0.1355642573    -0.2428393504     1.5688094547
    3      C       1.3602295260    -0.5113302898    -0.5685237010
    4      C       2.6692725893    -0.2150491626    -0.2168721314
    5      H       2.9490868026     0.0697653527     0.7871654482
    6      C       3.6224663838    -0.2744428027    -1.2242875405
    7      H       4.6541935835    -0.0588100198    -0.9841519921
    8      C      -0.8955487763    -0.7549624691    -0.5988723653
    9      C      -2.2283779625    -0.9325380564    -0.2451382667
   10      H      -2.5743987956    -0.8532340373     0.7753479802
   11      C      -3.1207995733    -1.2461648430    -1.2601488791
   12      H      -4.1658828938    -1.3805725013    -1.0173509306
   13      C      -2.6924457080    -1.4083344772    -2.5743157911
   14      H      -3.4116833785    -1.6595110622    -3.3420295531
   15      C      -1.3464470359    -1.2783341483    -2.9085943831
   16      H      -1.0154269443    -1.4414967914    -3.9258339873
   17      C      -0.4481555577    -0.9545834020    -1.9119757813
   18      C       3.2728568804    -0.5875407043    -2.5349958546
   19      H       4.0398381760    -0.6184298991    -3.2967808377
   20      C       1.9480398401    -0.8381354197    -2.8846355297
   21      H       1.6776529841    -1.0484000793    -3.9111729954
   22      C       0.9909900512    -0.7957208670    -1.8934323989
   23      C      -0.8840768721     0.5751218181     2.0809966168
   24      H      -1.5445804025     1.1001235871     1.4020952425
   25      C      -0.9930834791     0.7669918396     3.4396712162
   26      C       1.0604042716    -0.8504631965     2.4289412050
   27      H       1.8070813674    -1.5224496060     2.0256328264
   28      C       0.9380503751    -0.6900025885     3.7907118849
   29      C      -0.1013836179     0.1128760302     4.3221736182
   30      C      -2.0560861771     1.6641332812     3.9947664918
   31      H      -2.6358865257     2.1423694527     3.2062060814
   32      H      -1.6207455044     2.4444427051     4.6205281479
   33      H      -2.7434293833     1.1017384170     4.6294205018
   34      C       1.8794672697    -1.4005928197     4.7141552060
   35      H       2.5896029068    -2.0191762919     4.1665815170
   36      H       2.4419321770    -0.6864948829     5.3172165415
   37      H       1.3370001470    -2.0415042673     5.4108322663
   38      B      -0.2719726604     0.2044557514     5.8885086165
   39      C       0.5443172680     1.2069535922     6.6995949875
   40      C       1.3360034022     2.1758393483     6.0516485252
   41      H       1.3515531126     2.2213353685     4.9662690815
   42      C       2.0876269877     3.0620144793     6.7782626583
   43      C       2.0936721257     3.0108302543     8.2050656583
   44      C       1.3349039312     2.0631420115     8.8553279338
   45      H       1.3412034512     2.0070393423     9.9397485293
   46      C       0.5407189057     1.1501147490     8.1285829596
   47      C       2.9914596754     4.0640457777     8.6801615002
   48      C       3.4139635146     4.5127424583     9.9066451482
   49      H       3.0703547381     4.0622511182    10.8295483037
   50      C       3.4917804086     4.7111229162     7.5286684212
   51      C       4.3864722910     5.7770733726     7.5431304418
   52      C       2.9723642246     4.1378142976     6.3514754469
   53      C       3.3609881796     4.6479881245     5.1376041410
   54      H       2.9912852535     4.2444178254     4.2024269674
   55      C       4.3238789951     5.5956298985     9.9531368016
   56      H       4.6545972590     5.9466061838    10.9223604832
   57      C       4.8032766946     6.2184370202     8.8226012949
   58      H       5.4987310816     7.0439548253     8.9126363881
   59      C       4.2683696381     5.7315567248     5.1239697086
   60      H       4.5763798952     6.1368560698     4.1682256336
   61      C       4.7721668878     6.2881307785     6.2785744763
   62      H       5.4654701678     7.1182521808     6.2184395173
   63      C      -1.1890681071    -0.7984673790     6.5848591817
   64      C      -1.9846416312    -1.7020078737     5.8468207662
   65      H      -1.9609702456    -1.6804359546     4.7611477185
   66      C      -2.7830809481    -2.6139208605     6.4874918151
   67      C      -2.8177703625    -2.6597078041     7.9129158859
   68      C      -2.0418432859    -1.7963407700     8.6468246220
   69      H      -2.0662064639    -1.8502612367     9.7298751294
   70      C      -1.2109263081    -0.8495548926     8.0112473731
   71      C      -3.7301773815    -3.7321443009     8.3073022998
   72      C      -4.1700867947    -4.2601932826     9.4966069296
   73      H      -3.8486712002    -3.8650264646    10.4526790912
   74      C      -4.2090333393    -4.3030941432     7.1092021808
   75      C      -5.0963915618    -5.3763516769     7.0464213620
   76      C      -3.6693696973    -3.6592733684     5.9771312771
   77      C      -4.0381551502    -4.1065173701     4.7313992093
   78      H      -3.6554961266    -3.6542973933     3.8242986924
   79      C      -4.9402089653    -5.1922362493     4.6394487622
   80      H      -5.2284160398    -5.5433997345     3.6564063369
   81      C      -5.4599709442    -5.8177008000     5.7500051709
   82      H      -6.1461094985    -6.6479226043     5.6322586383
   83      C      -5.0719416009    -5.3507827164     9.4629288430
   84      H      -5.4139173230    -5.7631856082    10.4039087957
   85      C      -5.5284210134    -5.9036750039     8.2877622495
   86      H      -6.2170697058    -6.7396879780     8.3123644962
   87      B      -0.2964355216     0.0796192117     8.8374484495
   88      C      -0.2232773545    -0.2567210447    10.3807648371
   89      C      -1.1818219684     0.2199911874    11.2836209133
   90      C      -1.3294072090    -0.3827725579    12.5295362500
   91      H      -2.1234538898    -0.0701609771    13.1986478859
   92      C      -0.5146549089    -1.4466300774    12.8831054100
   93      C       0.5049218054    -1.8573013973    12.0388329038
   94      H       1.1412121242    -2.6832149772    12.3364938687
   95      C       0.6523752118    -1.2746127701    10.7862256642
   96      N      -0.8088631938    -2.2250962738    14.0273742114
   97      C      -1.3949406437    -3.4682258042    13.9468584077
   98      C      -0.6085895844    -1.9140730567    15.3516152973
   99      C      -0.0428897928    -0.7745304132    15.9089752424
  100      H       0.3088363948     0.0394570154    15.2881259707
  101      C       0.0544722956    -0.7230316471    17.2884364504
  102      H       0.4906304248     0.1517126661    17.7532775050
  103      C      -1.7911513765    -4.1768375127    12.8151461485
  104      H      -1.6489089164    -3.7790908483    11.8182580875
  105      C      -2.3671844504    -5.4198279929    13.0075499128
  106      H      -2.6817172501    -5.9930611908    12.1441251055
  107      C      -2.5471711423    -5.9504241247    14.2903112514
  108      H      -2.9980753386    -6.9274573565    14.4045122452
  109      C      -2.1539645489    -5.2379417822    15.4090669951
  110      H      -2.2972963470    -5.6510626513    16.3999736775
  111      C      -1.5735078665    -3.9825187980    15.2419450351
  112      C      -0.3949196645    -1.7755645477    18.0943964238
  113      H      -0.3006782801    -1.7000884952    19.1695755123
  114      C      -0.9546262639    -2.9079313827    17.5298658720
  115      H      -1.2984382847    -3.7231450224    18.1548125690
  116      C      -1.0661905347    -2.9843651721    16.1454843660
  117      C       1.6845371019    -1.8124764275     9.8345377942
  118      H       2.3535856549    -2.5187442701    10.3262454229
  119      H       2.2916628246    -1.0149940152     9.4044936310
  120      H       1.2111177793    -2.3339012939     8.9988366714
  121      C      -2.1309550453     1.3041905403    10.8566697450
  122      H      -2.7710140247     1.6291868507    11.6767754365
  123      H      -1.5962261047     2.1774532596    10.4799356327
  124      H      -2.7787412739     0.9585247897    10.0474066432
 ----------------------------------------------------------------

   19   -2925.4665322552      6.38E-09 Convergence criterion met
 Total energy in the final basis set = -2925.46653226
 Final energy is   -2925.46653225520
 **  OPTIMIZATION CONVERGED  **

                    Orbital Energies (a.u.)
 --------------------------------------------------------------

 Alpha MOs
 -- Occupied --
-14.783 -14.683 -10.541 -10.531 -10.531 -10.496 -10.496 -10.493
-10.493 -10.485 -10.485 -10.484 -10.484 -10.483 -10.483 -10.482
-10.482 -10.482 -10.481 -10.479 -10.479 -10.478 -10.466 -10.455
-10.454 -10.452 -10.451 -10.451 -10.450 -10.450 -10.450 -10.449
-10.449 -10.449 -10.449 -10.449 -10.448 -10.448 -10.448 -10.447
-10.447 -10.446 -10.445 -10.445 -10.445 -10.445 -10.445 -10.443
-10.443 -10.442 -10.442 -10.442 -10.441 -10.440 -10.440 -10.438
-10.437 -10.437 -10.436 -10.436 -10.436 -10.436 -10.436 -10.436
-10.435 -10.434 -10.433 -10.417 -10.416 -10.413 -10.413 -10.412
-10.409 -10.409  -6.905  -6.903  -1.177  -1.105  -1.020  -1.001
 -1.001  -0.995  -0.985  -0.967  -0.947  -0.945  -0.942  -0.938
 -0.930  -0.921  -0.921  -0.905  -0.894  -0.889  -0.888  -0.882
 -0.881  -0.865  -0.851  -0.850  -0.847  -0.841  -0.839  -0.838
 -0.835  -0.835  -0.807  -0.806  -0.803  -0.798  -0.797  -0.796
 -0.790  -0.786  -0.772  -0.759  -0.758  -0.736  -0.734  -0.726
 -0.719  -0.715  -0.714  -0.706  -0.695  -0.689  -0.683  -0.683
 -0.675  -0.671  -0.665  -0.662  -0.650  -0.649  -0.638  -0.637
 -0.631  -0.630  -0.629  -0.628  -0.614  -0.591  -0.590  -0.587
 -0.583  -0.581  -0.580  -0.576  -0.569  -0.568  -0.566  -0.562
 -0.561  -0.561  -0.552  -0.549  -0.545  -0.537  -0.535  -0.530
 -0.529  -0.529  -0.518  -0.515  -0.515  -0.513  -0.512  -0.505
 -0.500  -0.495  -0.494  -0.494  -0.492  -0.491  -0.487  -0.486
 -0.483  -0.481  -0.477  -0.476  -0.475  -0.474  -0.474  -0.473
 -0.472  -0.470  -0.466  -0.461  -0.461  -0.460  -0.460  -0.458
 -0.457  -0.455  -0.454  -0.454  -0.451  -0.446  -0.441  -0.441
 -0.434  -0.430  -0.429  -0.428  -0.426  -0.423  -0.419  -0.418
 -0.417  -0.415  -0.413  -0.411  -0.410  -0.409  -0.401  -0.393
 -0.390  -0.387  -0.386  -0.386  -0.385  -0.384  -0.382  -0.379
 -0.375  -0.371  -0.369  -0.360  -0.358  -0.354  -0.340  -0.337
 -0.336  -0.327  -0.324  -0.315  -0.315  -0.310  -0.304  -0.296
 -0.294  -0.288  -0.287  -0.284  -0.272  -0.272  -0.268  -0.255
 -0.251  -0.245  -0.242  -0.236  -0.152

 Beta MOs
 -- Occupied --
-14.774 -14.683 -10.540 -10.533 -10.532 -10.495 -10.495 -10.491
-10.491 -10.486 -10.486 -10.484 -10.484 -10.482 -10.481 -10.481
-10.481 -10.480 -10.480 -10.480 -10.480 -10.478 -10.462 -10.455
-10.455 -10.452 -10.451 -10.451 -10.450 -10.450 -10.450 -10.450
-10.449 -10.448 -10.448 -10.448 -10.448 -10.448 -10.447 -10.447
-10.446 -10.446 -10.445 -10.445 -10.445 -10.445 -10.445 -10.443
-10.443 -10.442 -10.442 -10.441 -10.440 -10.440 -10.439 -10.438
-10.437 -10.437 -10.437 -10.436 -10.436 -10.436 -10.436 -10.436
-10.435 -10.434 -10.434 -10.417 -10.416 -10.414 -10.412 -10.412
-10.409 -10.408  -6.902  -6.901  -1.164  -1.105  -1.015  -1.001
 -1.001  -0.992  -0.979  -0.967  -0.947  -0.943  -0.941  -0.937
 -0.926  -0.920  -0.920  -0.904  -0.891  -0.887  -0.885  -0.882
 -0.881  -0.865  -0.851  -0.847  -0.842  -0.841  -0.837  -0.836
 -0.834  -0.834  -0.806  -0.805  -0.801  -0.797  -0.796  -0.792
 -0.787  -0.784  -0.767  -0.759  -0.758  -0.735  -0.730  -0.726
 -0.718  -0.713  -0.712  -0.705  -0.693  -0.688  -0.683  -0.681
 -0.675  -0.668  -0.665  -0.658  -0.649  -0.647  -0.637  -0.637
 -0.631  -0.630  -0.627  -0.626  -0.611  -0.588  -0.587  -0.583
 -0.580  -0.579  -0.578  -0.574  -0.569  -0.567  -0.565  -0.560
 -0.560  -0.557  -0.550  -0.544  -0.542  -0.537  -0.534  -0.529
 -0.528  -0.524  -0.518  -0.515  -0.515  -0.513  -0.512  -0.503
 -0.497  -0.495  -0.494  -0.493  -0.491  -0.489  -0.487  -0.486
 -0.483  -0.480  -0.477  -0.476  -0.474  -0.474  -0.473  -0.471
 -0.471  -0.470  -0.466  -0.461  -0.460  -0.458  -0.457  -0.456
 -0.455  -0.453  -0.451  -0.448  -0.448  -0.445  -0.439  -0.438
 -0.432  -0.429  -0.428  -0.428  -0.425  -0.421  -0.419  -0.418
 -0.412  -0.411  -0.411  -0.409  -0.407  -0.399  -0.393  -0.393
 -0.390  -0.387  -0.385  -0.384  -0.383  -0.383  -0.382  -0.378
 -0.374  -0.368  -0.362  -0.358  -0.351  -0.350  -0.335  -0.328
 -0.327  -0.326  -0.322  -0.310  -0.304  -0.299  -0.296  -0.296
 -0.292  -0.284  -0.284  -0.272  -0.267  -0.261  -0.251  -0.247
 -0.242  -0.236  -0.234

          Ground-State Mulliken Net Atomic Charges

     Atom                 Charge (a.u.)    Spin (a.u.)
  --------------------------------------------------------
      1 N                    -0.678617       0.324987
      2 C                     0.366617       0.042422
      3 C                     0.337015      -0.098382
      4 C                    -0.259684       0.155099
      5 H                     0.297354      -0.008208
      6 C                    -0.249527      -0.090879
      7 H                     0.272048       0.004095
      8 C                     0.328121      -0.098376
      9 C                    -0.258994       0.157279
     10 H                     0.298720      -0.008441
     11 C                    -0.248162      -0.091463
     12 H                     0.272086       0.004128
     13 C                    -0.222287       0.151179
     14 H                     0.271264      -0.008318
     15 C                    -0.348932      -0.046076
     16 H                     0.260124       0.002366
     17 C                     0.115058       0.081234
     18 C                    -0.222664       0.149935
     19 H                     0.270983      -0.008257
     20 C                    -0.347054      -0.046126
     21 H                     0.260286       0.002370
     22 C                     0.102282       0.080558
     23 C                    -0.369958       0.102207
     24 H                     0.294237      -0.005421
     25 C                     0.049342      -0.073882
     26 C                    -0.373083       0.100897
     27 H                     0.290000      -0.005540
     28 C                     0.030745      -0.076397
     29 C                    -0.138676       0.270818
     30 C                    -0.753861       0.007204
     31 H                     0.247056       0.001109
     32 H                     0.266846      -0.003180
     33 H                     0.267869      -0.001438
     34 C                    -0.759631       0.006884
     35 H                     0.248404       0.001318
     36 H                     0.268243      -0.001546
     37 H                     0.271241      -0.003514
     38 B                     0.548027       0.336314
     39 C                    -0.133716       0.024230
     40 C                    -0.405698      -0.017712
     41 H                     0.207709      -0.000735
     42 C                     0.060074       0.045172
     43 C                     0.080482       0.089187
     44 C                    -0.417262      -0.053437
     45 H                     0.220267       0.002099
     46 C                    -0.145109       0.057778
     47 C                     0.178992      -0.057171
     48 C                    -0.407779       0.085372
     49 H                     0.236243      -0.004993
     50 C                    -0.077118       0.023916
     51 C                     0.228942      -0.038800
     52 C                     0.179999      -0.046801
     53 C                    -0.401994       0.072968
     54 H                     0.227388      -0.004293
     55 C                    -0.224257      -0.053555
     56 H                     0.241896       0.002590
     57 C                    -0.361600       0.077889
     58 H                     0.236944      -0.004577
     59 C                    -0.227321      -0.047823
     60 H                     0.239357       0.002347
     61 C                    -0.357561       0.068103
     62 H                     0.236792      -0.003976
     63 C                    -0.140274       0.018576
     64 C                    -0.406208      -0.010142
     65 H                     0.205043      -0.001297
     66 C                     0.066182       0.035372
     67 C                     0.076152       0.090685
     68 C                    -0.401387      -0.055624
     69 H                     0.230411       0.002259
     70 C                    -0.138709       0.063499
     71 C                     0.187946      -0.055814
     72 C                    -0.414632       0.083039
     73 H                     0.242652      -0.004964
     74 C                    -0.079156       0.022730
     75 C                     0.226486      -0.036678
     76 C                     0.180672      -0.042338
     77 C                    -0.404243       0.066425
     78 H                     0.224998      -0.003907
     79 C                    -0.226177      -0.044020
     80 H                     0.239057       0.002169
     81 C                    -0.356829       0.061737
     82 H                     0.237532      -0.003592
     83 C                    -0.227389      -0.051527
     84 H                     0.244022       0.002484
     85 C                    -0.359872       0.075486
     86 H                     0.237292      -0.004434
     87 B                     0.553592       0.281538
     88 C                    -0.180235      -0.024405
     89 C                     0.030997       0.003567
     90 C                    -0.330403      -0.000495
     91 H                     0.240326       0.000351
     92 C                     0.262291       0.000543
     93 C                    -0.342869      -0.000375
     94 H                     0.241434       0.000279
     95 C                     0.024464       0.003127
     96 N                    -0.724308      -0.000026
     97 C                     0.334201       0.000016
     98 C                     0.348772       0.000005
     99 C                    -0.301095       0.000005
    100 H                     0.253548      -0.000000
    101 C                    -0.261563      -0.000003
    102 H                     0.239014       0.000000
    103 C                    -0.299328       0.000062
    104 H                     0.261513      -0.000027
    105 C                    -0.264439       0.000005
    106 H                     0.242102       0.000048
    107 C                    -0.252979       0.000000
    108 H                     0.234524      -0.000000
    109 C                    -0.364743       0.000003
    110 H                     0.229487       0.000000
    111 C                     0.089687      -0.000002
    112 C                    -0.255439       0.000004
    113 H                     0.234593      -0.000000
    114 C                    -0.361258      -0.000002
    115 H                     0.229916       0.000000
    116 C                     0.069450       0.000002
    117 C                    -0.761948       0.000341
    118 H                     0.241436       0.001666
    119 H                     0.248061      -0.000819
    120 H                     0.249797      -0.000855
    121 C                    -0.753813       0.000499
    122 H                     0.239164       0.001368
    123 H                     0.244509      -0.000636
    124 H                     0.249464      -0.000645
  --------------------------------------------------------
  Sum of atomic charges =    -0.000000

                    Cartesian Multipole Moments
 -----------------------------------------------------------------
    Charge (ESU x 10^10)
                -0.0000
    Dipole Moment (Debye)
         X       2.1824      Y      -0.8058      Z     -30.0537
       Tot      30.1436
    Quadrupole Moments (Debye-Ang)
        XX    -414.9367     XY       4.4677     YY    -441.5459
        XZ      14.7010     YZ      27.4386     ZZ    -663.7267

 Total job time:  115086.01s(wall), 366366.93s(cpu)
        *  Thank you very much for using Q-Chem.  Have a nice day.  *
