 Q-Chem 5.0, Q-Chem, Inc., Pleasanton, CA (2017)
 Q-Chem 5.0.1 for Intel X86 EM64T Linux

User input:
--------------------------------------------------------------
$rem
threads 8
jobtype opt
method PBEh-3c
basis def2-mSVP
mem_static      1024
mem_total       8000
sym_ignore      true
unrestricted true
scf_algorithm	diis
scf_max_cycles	2500
solvent_method  pcm
geom_opt_tol_energy 25
geom_opt_tol_gradient 75
$end

$pcm
theory  iefpcm
$end

$solvent
dielectric      8.93
$end

$molecule
read uincoords.mol
$end
--------------------------------------------------------------

   21   -2925.4817869793      7.09E-09 Convergence criterion met
 Total energy in the final basis set = -2925.48178698
   20   -2925.4819479453      7.02E-09 Convergence criterion met
 Total energy in the final basis set = -2925.48194795
   20   -2925.4815800968      6.11E-09 Convergence criterion met
 Total energy in the final basis set = -2925.48158010
   20   -2925.4809043489      6.03E-09 Convergence criterion met
 Total energy in the final basis set = -2925.48090435
   18   -2925.4810044657      8.41E-09 Convergence criterion met
 Total energy in the final basis set = -2925.48100447
   19   -2925.4808169387      8.06E-09 Convergence criterion met
 Total energy in the final basis set = -2925.48081694
   18   -2925.4805637960      8.26E-09 Convergence criterion met
 Total energy in the final basis set = -2925.48056380
   20   -2925.4791458821      5.96E-09 Convergence criterion met
   19   -2925.4782030121      9.57E-09 Convergence criterion met
 Total energy in the final basis set = -2925.47820301
   19   -2925.4781534656      8.93E-09 Convergence criterion met
 Total energy in the final basis set = -2925.47815347
   19   -2925.4781418063      9.62E-09 Convergence criterion met
 Total energy in the final basis set = -2925.47814181
   20   -2925.4781701906      7.42E-09 Convergence criterion met
 Total energy in the final basis set = -2925.47817019
   20   -2925.4782021784      7.40E-09 Convergence criterion met
 Total energy in the final basis set = -2925.47820218
   20   -2925.4782138008      7.51E-09 Convergence criterion met
 Total energy in the final basis set = -2925.47821380

             Standard Nuclear Orientation (Angstroms)
    I     Atom           X                Y                Z
 ----------------------------------------------------------------
    1      N       0.2301833535    -0.4531639234     0.1875013900
    2      C       0.1482247646    -0.2350441355     1.5504670118
    3      C       1.3905040533    -0.4405214275    -0.5843694581
    4      C       2.6889474780    -0.1170630372    -0.2155812933
    5      H       2.9528634264     0.1563417435     0.7960250205
    6      C       3.6510764700    -0.1353709770    -1.2164350713
    7      H       4.6752021972     0.1024208580    -0.9650858034
    8      C      -0.8553382148    -0.7437224666    -0.6317498983
    9      C      -2.1860162412    -0.9541615052    -0.2854676224
   10      H      -2.5374802232    -0.8938571675     0.7345706508
   11      C      -3.0667222465    -1.2729745072    -1.3093813620
   12      H      -4.1098978257    -1.4333148783    -1.0744106524
   13      C      -2.6279432150    -1.4068079085    -2.6232424282
   14      H      -3.3376544250    -1.6627366840    -3.3982696430
   15      C      -1.2823289636    -1.2410761367    -2.9511236678
   16      H      -0.9442511712    -1.3804360876    -3.9695716066
   17      C      -0.3969296012    -0.9119570678    -1.9465682466
   18      C       3.3189024488    -0.4360996822    -2.5345104375
   19      H       4.0919848002    -0.4348943708    -3.2907759221
   20      C       2.0025524181    -0.7166711056    -2.9003712454
   21      H       1.7464159798    -0.9183138855    -3.9322926161
   22      C       1.0382398076    -0.7151024078    -1.9170331553
   23      C      -0.8790773145     0.5684299124     2.0627641051
   24      H      -1.5407716830     1.0952308616     1.3862737895
   25      C      -1.0000919866     0.7408164538     3.4252633665
   26      C       1.0671530643    -0.8504119737     2.4071427386
   27      H       1.8237369568    -1.5099556930     2.0012773622
   28      C       0.9334591243    -0.7055307282     3.7717824748
   29      C      -0.1111053723     0.0846347943     4.3042846692
   30      C      -2.0780930525     1.6223417564     3.9792118732
   31      H      -2.6564376467     2.0994811761     3.1889448310
   32      H      -1.6569557058     2.4044728285     4.6125699115
   33      H      -2.7660478032     1.0484384287     4.6027806521
   34      C       1.8782728368    -1.4197674191     4.6906886837
   35      H       2.5898297233    -2.0319745964     4.1378713059
   36      H       2.4408956030    -0.7084284874     5.2970077074
   37      H       1.3399362158    -2.0685606365     5.3833791418
   38      B      -0.2868057611     0.1645669184     5.8720029613
   39      C       0.5217949101     1.1668857879     6.6936043170
   40      C       1.3098864014     2.1429322452     6.0522276921
   41      H       1.3291966979     2.1917976213     4.9672365061
   42      C       2.0536346041     3.0314766219     6.7850622895
   43      C       2.0545270708     2.9751765114     8.2121565710
   44      C       1.2998052429     2.0200471742     8.8563442357
   45      H       1.3033407424     1.9617783822     9.9407376030
   46      C       0.5136406612     1.1041817331     8.1230888788
   47      C       2.9439380951     4.0324753732     8.6947336677
   48      C       3.3590391190     4.4793606168     9.9248146831
   49      H       3.0145040900     4.0238823198    10.8449947259
   50      C       3.4449184569     4.6862334878     7.5471140614
   51      C       4.3339097396     5.7572046894     7.5687664654
   52      C       2.9337395388     4.1137649518     6.3655713910
   53      C       3.3248040212     4.6298011172     5.1545465379
   54      H       2.9619215967     4.2266985721     4.2165075561
   55      C       4.2628571120     5.5673302381     9.9784382970
   56      H       4.5879024868     5.9168409283    10.9501170494
   57      C       4.7434057114     6.1966071927     8.8515158004
   58      H       5.4341286503     7.0255164122     8.9468200955
   59      C       4.2264112418     5.7186348567     5.1485698534
   60      H       4.5364888356     6.1282063990     4.1953498142
   61      C       4.7223175581     6.2746327002     6.3072818722
   62      H       5.4114444081     7.1086159736     6.2529067816
   63      C      -1.2049109946    -0.8415284017     6.5650775085
   64      C      -2.0008998780    -1.7388657320     5.8204260131
   65      H      -1.9752588641    -1.7103239325     4.7351084330
   66      C      -2.8025952533    -2.6531366201     6.4547135475
   67      C      -2.8386930222    -2.7089588334     7.8803291788
   68      C      -2.0626880901    -1.8509758911     8.6209696881
   69      H      -2.0883433521    -1.9117929539     9.7037722763
   70      C      -1.2299958714    -0.9006860518     7.9917824622
   71      C      -3.7540801049    -3.7826565425     8.2658999001
   72      C      -4.1955855031    -4.3197972958     9.4508757128
   73      H      -3.8721235621    -3.9338583384    10.4100838936
   74      C      -4.2338506161    -4.3426986688     7.0627860184
   75      C      -5.1244801658    -5.4130649495     6.9909468334
   76      C      -3.6913381482    -3.6919446079     5.9358445020
   77      C      -4.0604081210    -4.1282260824     4.6859329022
   78      H      -3.6759535608    -3.6699300622     3.7826740776
   79      C      -4.9659771119    -5.2106269705     4.5852150962
   80      H      -5.2544971830    -5.5528973969     3.5991649540
   81      C      -5.4887353901    -5.8433365320     5.6906605919
   82      H      -6.1773736979    -6.6705078500     5.5662006249
   83      C      -5.1006744360    -5.4076615811     9.4079892971
   84      H      -5.4437495417    -5.8276740103    10.3451934673
   85      C      -5.5587292261    -5.9493840604     8.2278538579
   86      H      -6.2496555933    -6.7837112006     8.2450992951
   87      B      -0.3201568109     0.0260067220     8.8249138463
   88      C      -0.2490713609    -0.3070083277    10.3694215926
   89      C      -1.1847952808     0.2049124617    11.2771255237
   90      C      -1.3228641683    -0.3687775831    12.5380305615
   91      H      -2.0972008117    -0.0248633685    13.2147560841
   92      C      -0.5217803531    -1.4401288608    12.9003532633
   93      C       0.4719275230    -1.8917944746    12.0461882904
   94      H       1.0950877041    -2.7256185365    12.3496272721
   95      C       0.6100082790    -1.3374186023    10.7794551998
   96      N      -0.8056323895    -2.1837847408    14.0707322792
   97      C      -1.4322402931    -3.4087769263    14.0364994762
   98      C      -0.5210558239    -1.8674027947    15.3781334479
   99      C       0.1152018298    -0.7435991638    15.8902195875
  100      H       0.4603265480     0.0520257055    15.2423144915
  101      C       0.2917500412    -0.6828731659    17.2617051346
  102      H       0.7842500922     0.1798370692    17.6915085379
  103      C      -1.9037553993    -4.1181616694    12.9345665581
  104      H      -1.8017388289    -3.7349371410    11.9269670808
  105      C      -2.5024723081    -5.3429793488    13.1706343080
  106      H      -2.8753707552    -5.9171378275    12.3314520907
  107      C      -2.6321766106    -5.8542096878    14.4676179102
  108      H      -3.1033100731    -6.8169625946    14.6163999419
  109      C      -2.1639951776    -5.1408291459    15.5568888263
  110      H      -2.2679091053    -5.5393282432    16.5586825775
  111      C      -1.5577129496    -3.9039950677    15.3453622950
  112      C      -0.1494128324    -1.7108690579    18.1036650427
  113      H       0.0076332729    -1.6286723101    19.1710092360
  114      C      -0.7800766337    -2.8277677418    17.5841819954
  115      H      -1.1172500828    -3.6242183119    18.2364019923
  116      C      -0.9705382818    -2.9134667109    16.2085892649
  117      C       1.6110934258    -1.9206997529     9.8212019947
  118      H       2.3028728984    -2.5955974162    10.3253974962
  119      H       2.1963942973    -1.1459131087     9.3247424445
  120      H       1.1101746548    -2.4905285416     9.0346248442
  121      C      -2.1161638820     1.3023756276    10.8450969071
  122      H      -2.7507693092     1.6418039358    11.6635229946
  123      H      -1.5668375830     2.1650355327    10.4645987558
  124      H      -2.7692877857     0.9639043535    10.0371080328
 ----------------------------------------------------------------

   20   -2925.4782074900      7.98E-09 Convergence criterion met
 Total energy in the final basis set = -2925.47820749
 Final energy is   -2925.47820748999
 **  OPTIMIZATION CONVERGED  **

                    Orbital Energies (a.u.)
 --------------------------------------------------------------

 Alpha MOs
 -- Occupied --
-14.781 -14.687 -10.533 -10.528 -10.527 -10.493 -10.493 -10.490
-10.490 -10.486 -10.485 -10.482 -10.482 -10.481 -10.480 -10.480
-10.478 -10.478 -10.477 -10.476 -10.475 -10.475 -10.459 -10.458
-10.457 -10.454 -10.454 -10.453 -10.453 -10.453 -10.453 -10.452
-10.452 -10.452 -10.451 -10.451 -10.451 -10.451 -10.451 -10.450
-10.450 -10.449 -10.449 -10.449 -10.449 -10.449 -10.448 -10.447
-10.447 -10.446 -10.446 -10.445 -10.445 -10.444 -10.444 -10.441
-10.440 -10.440 -10.440 -10.440 -10.440 -10.439 -10.439 -10.438
-10.437 -10.434 -10.433 -10.421 -10.420 -10.418 -10.415 -10.415
-10.413 -10.413  -6.907  -6.906  -1.175  -1.109  -1.015  -1.005
 -1.005  -0.991  -0.980  -0.971  -0.951  -0.948  -0.945  -0.941
 -0.926  -0.924  -0.924  -0.900  -0.895  -0.887  -0.885  -0.885
 -0.884  -0.869  -0.851  -0.848  -0.847  -0.845  -0.842  -0.840
 -0.838  -0.837  -0.810  -0.809  -0.806  -0.800  -0.800  -0.792
 -0.789  -0.787  -0.768  -0.763  -0.762  -0.733  -0.731  -0.729
 -0.722  -0.717  -0.716  -0.708  -0.692  -0.691  -0.686  -0.680
 -0.678  -0.668  -0.667  -0.664  -0.653  -0.652  -0.642  -0.640
 -0.634  -0.633  -0.626  -0.625  -0.610  -0.591  -0.590  -0.588
 -0.587  -0.584  -0.582  -0.579  -0.572  -0.569  -0.566  -0.563
 -0.563  -0.557  -0.551  -0.549  -0.545  -0.538  -0.533  -0.531
 -0.527  -0.525  -0.521  -0.518  -0.516  -0.515  -0.511  -0.507
 -0.500  -0.497  -0.497  -0.494  -0.491  -0.490  -0.490  -0.488
 -0.487  -0.484  -0.479  -0.478  -0.477  -0.477  -0.476  -0.476
 -0.473  -0.472  -0.469  -0.464  -0.463  -0.459  -0.458  -0.457
 -0.457  -0.456  -0.454  -0.454  -0.451  -0.447  -0.442  -0.437
 -0.432  -0.431  -0.430  -0.429  -0.426  -0.426  -0.422  -0.421
 -0.418  -0.416  -0.415  -0.414  -0.413  -0.405  -0.403  -0.397
 -0.393  -0.390  -0.389  -0.389  -0.388  -0.387  -0.385  -0.381
 -0.377  -0.373  -0.368  -0.363  -0.362  -0.356  -0.340  -0.337
 -0.337  -0.331  -0.326  -0.314  -0.313  -0.310  -0.307  -0.300
 -0.292  -0.291  -0.290  -0.281  -0.276  -0.276  -0.272  -0.258
 -0.255  -0.248  -0.245  -0.240  -0.155

 Beta MOs
 -- Occupied --
-14.772 -14.687 -10.533 -10.529 -10.529 -10.492 -10.492 -10.488
-10.487 -10.486 -10.485 -10.482 -10.482 -10.482 -10.479 -10.479
-10.478 -10.478 -10.476 -10.476 -10.475 -10.475 -10.458 -10.458
-10.456 -10.455 -10.454 -10.454 -10.453 -10.453 -10.452 -10.452
-10.452 -10.451 -10.451 -10.451 -10.451 -10.451 -10.450 -10.450
-10.449 -10.449 -10.449 -10.449 -10.449 -10.449 -10.448 -10.447
-10.447 -10.446 -10.446 -10.445 -10.444 -10.443 -10.443 -10.440
-10.440 -10.440 -10.440 -10.440 -10.440 -10.439 -10.439 -10.438
-10.438 -10.434 -10.433 -10.421 -10.420 -10.418 -10.415 -10.414
-10.412 -10.412  -6.904  -6.904  -1.161  -1.109  -1.011  -1.004
 -1.004  -0.989  -0.975  -0.971  -0.951  -0.947  -0.944  -0.941
 -0.923  -0.923  -0.922  -0.899  -0.893  -0.885  -0.885  -0.883
 -0.882  -0.869  -0.851  -0.848  -0.845  -0.842  -0.841  -0.837
 -0.836  -0.835  -0.809  -0.808  -0.804  -0.800  -0.799  -0.788
 -0.787  -0.784  -0.764  -0.763  -0.762  -0.731  -0.729  -0.727
 -0.721  -0.716  -0.715  -0.708  -0.692  -0.689  -0.686  -0.678
 -0.676  -0.667  -0.664  -0.660  -0.653  -0.650  -0.641  -0.640
 -0.634  -0.632  -0.623  -0.623  -0.607  -0.591  -0.587  -0.586
 -0.582  -0.581  -0.577  -0.574  -0.571  -0.569  -0.565  -0.562
 -0.561  -0.552  -0.549  -0.548  -0.538  -0.538  -0.532  -0.530
 -0.525  -0.521  -0.520  -0.518  -0.515  -0.514  -0.511  -0.505
 -0.499  -0.497  -0.496  -0.492  -0.491  -0.489  -0.488  -0.487
 -0.487  -0.483  -0.479  -0.478  -0.476  -0.476  -0.475  -0.475
 -0.473  -0.472  -0.469  -0.464  -0.463  -0.459  -0.457  -0.456
 -0.454  -0.454  -0.453  -0.446  -0.444  -0.444  -0.440  -0.434
 -0.431  -0.430  -0.429  -0.428  -0.425  -0.425  -0.422  -0.421
 -0.415  -0.415  -0.413  -0.410  -0.407  -0.401  -0.397  -0.393
 -0.390  -0.390  -0.388  -0.387  -0.387  -0.386  -0.384  -0.380
 -0.376  -0.372  -0.361  -0.358  -0.354  -0.352  -0.338  -0.331
 -0.330  -0.325  -0.321  -0.307  -0.305  -0.303  -0.300  -0.293
 -0.290  -0.288  -0.287  -0.276  -0.271  -0.265  -0.255  -0.251
 -0.245  -0.240  -0.238

          Ground-State Mulliken Net Atomic Charges

     Atom                 Charge (a.u.)    Spin (a.u.)
  --------------------------------------------------------
      1 N                    -0.670924       0.350341
      2 C                     0.356660       0.015228
      3 C                     0.338394      -0.104843
      4 C                    -0.257322       0.172015
      5 H                     0.302707      -0.009058
      6 C                    -0.253625      -0.101111
      7 H                     0.277680       0.004508
      8 C                     0.330315      -0.104900
      9 C                    -0.256729       0.174858
     10 H                     0.304246      -0.009307
     11 C                    -0.252240      -0.102187
     12 H                     0.277671       0.004561
     13 C                    -0.223879       0.169813
     14 H                     0.277882      -0.009300
     15 C                    -0.351112      -0.047656
     16 H                     0.268865       0.002420
     17 C                     0.115479       0.086800
     18 C                    -0.224473       0.167704
     19 H                     0.277572      -0.009193
     20 C                    -0.349108      -0.047344
     21 H                     0.269004       0.002407
     22 C                     0.102727       0.085620
     23 C                    -0.367623       0.105831
     24 H                     0.298027      -0.005434
     25 C                     0.044730      -0.076774
     26 C                    -0.370855       0.105239
     27 H                     0.294044      -0.005593
     28 C                     0.024918      -0.079065
     29 C                    -0.143104       0.232542
     30 C                    -0.755955       0.007232
     31 H                     0.252122       0.001098
     32 H                     0.261675      -0.003350
     33 H                     0.262716      -0.001851
     34 C                    -0.761448       0.007114
     35 H                     0.253628       0.001302
     36 H                     0.262994      -0.001947
     37 H                     0.265330      -0.003720
     38 B                     0.544572       0.327481
     39 C                    -0.137768       0.029721
     40 C                    -0.407058      -0.024407
     41 H                     0.217654      -0.000272
     42 C                     0.054319       0.052780
     43 C                     0.074819       0.083246
     44 C                    -0.419869      -0.049437
     45 H                     0.222960       0.001857
     46 C                    -0.144469       0.052966
     47 C                     0.173488      -0.056049
     48 C                    -0.410904       0.084316
     49 H                     0.242474      -0.004912
     50 C                    -0.078681       0.024189
     51 C                     0.220820      -0.039266
     52 C                     0.174376      -0.049085
     53 C                    -0.404595       0.076013
     54 H                     0.237531      -0.004439
     55 C                    -0.230764      -0.053217
     56 H                     0.248769       0.002564
     57 C                    -0.364453       0.077071
     58 H                     0.244885      -0.004498
     59 C                    -0.233571      -0.049303
     60 H                     0.247530       0.002396
     61 C                    -0.360774       0.070680
     62 H                     0.244660      -0.004108
     63 C                    -0.141424       0.023666
     64 C                    -0.408741      -0.016850
     65 H                     0.216076      -0.000772
     66 C                     0.060496       0.042947
     67 C                     0.070034       0.084543
     68 C                    -0.405384      -0.051702
     69 H                     0.233358       0.002016
     70 C                    -0.141656       0.057669
     71 C                     0.181245      -0.054572
     72 C                    -0.416880       0.081730
     73 H                     0.247701      -0.004888
     74 C                    -0.080399       0.022868
     75 C                     0.218323      -0.037005
     76 C                     0.174921      -0.044548
     77 C                    -0.406837       0.069276
     78 H                     0.236129      -0.004044
     79 C                    -0.232498      -0.045352
     80 H                     0.247553       0.002211
     81 C                    -0.359809       0.064089
     82 H                     0.245435      -0.003713
     83 C                    -0.233073      -0.051039
     84 H                     0.249633       0.002455
     85 C                    -0.362527       0.074370
     86 H                     0.245321      -0.004338
     87 B                     0.543330       0.287590
     88 C                    -0.178762      -0.024696
     89 C                     0.029610       0.003306
     90 C                    -0.335589      -0.000389
     91 H                     0.244697       0.000351
     92 C                     0.261099       0.000440
     93 C                    -0.342528      -0.000367
     94 H                     0.245444       0.000285
     95 C                     0.019207       0.003177
     96 N                    -0.722926      -0.000022
     97 C                     0.335184       0.000011
     98 C                     0.347106       0.000005
     99 C                    -0.305822       0.000003
    100 H                     0.257565      -0.000000
    101 C                    -0.267076      -0.000001
    102 H                     0.246029       0.000000
    103 C                    -0.305160       0.000047
    104 H                     0.264907      -0.000018
    105 C                    -0.269114       0.000004
    106 H                     0.247162       0.000039
    107 C                    -0.259512      -0.000003
    108 H                     0.241630      -0.000000
    109 C                    -0.368664       0.000002
    110 H                     0.237919       0.000000
    111 C                     0.084026      -0.000002
    112 C                    -0.261905       0.000001
    113 H                     0.241613      -0.000000
    114 C                    -0.365026      -0.000001
    115 H                     0.238274       0.000000
    116 C                     0.064342      -0.000000
    117 C                    -0.762827       0.000333
    118 H                     0.245761       0.001730
    119 H                     0.248048      -0.001000
    120 H                     0.248344      -0.000697
    121 C                    -0.756501       0.000541
    122 H                     0.243547       0.001377
    123 H                     0.244501      -0.000637
    124 H                     0.248131      -0.000716
  --------------------------------------------------------
  Sum of atomic charges =    -0.000000

                    Cartesian Multipole Moments
 -----------------------------------------------------------------
    Charge (ESU x 10^10)
                -0.0000
    Dipole Moment (Debye)
         X       2.4547      Y      -0.8891      Z     -32.3651
       Tot      32.4702
    Quadrupole Moments (Debye-Ang)
        XX    -411.9022     XY       7.5833     YY    -439.0307
        XZ      15.9163     YZ      26.3729     ZZ    -674.2900

 Total job time:  129707.89s(wall), 418359.25s(cpu)
        *  Thank you very much for using Q-Chem.  Have a nice day.  *
