 Q-Chem 5.0, Q-Chem, Inc., Pleasanton, CA (2017)
 Q-Chem 5.0.1 for Intel X86 EM64T Linux

User input:
--------------------------------------------------------------
$rem
threads 8
jobtype opt
method PBEh-3c
basis def2-mSVP
mem_static      1024
mem_total       8000
sym_ignore      true
unrestricted true
scf_algorithm	diis
scf_max_cycles	250
solvent_method  pcm
geom_opt_tol_energy 25
geom_opt_tol_gradient 75
$end

$pcm
theory  iefpcm
$end
$solvent
dielectric      4.33
$end

$molecule
read utLEincoords.mol
$end
--------------------------------------------------------------

   25   -2925.4751796663      9.11E-09 Convergence criterion met
 Total energy in the final basis set = -2925.47517967
   19   -2925.4758862263      8.87E-09 Convergence criterion met
 Total energy in the final basis set = -2925.47588623
   19   -2925.4754659888      8.38E-09 Convergence criterion met
 Total energy in the final basis set = -2925.47546599
   18   -2925.4756213888      9.14E-09 Convergence criterion met
 Total energy in the final basis set = -2925.47562139
   17   -2925.4756409290      8.96E-09 Convergence criterion met
 Total energy in the final basis set = -2925.47564093
   17   -2925.4756779806      7.10E-09 Convergence criterion met
 Total energy in the final basis set = -2925.47567798
   19   -2925.4756445396      8.47E-09 Convergence criterion met
 Total energy in the final basis set = -2925.47564454
   17   -2925.4756808357      7.32E-09 Convergence criterion met
 Total energy in the final basis set = -2925.47568084
   17   -2925.4756772626      7.61E-09 Convergence criterion met
 Total energy in the final basis set = -2925.47567726
   17   -2925.4756913034      9.50E-09 Convergence criterion met
 Total energy in the final basis set = -2925.47569130
   17   -2925.4757075365      8.77E-09 Convergence criterion met
 Total energy in the final basis set = -2925.47570754
   17   -2925.4757090535      8.80E-09 Convergence criterion met
 Total energy in the final basis set = -2925.47570905
   18   -2925.4757078471      6.72E-09 Convergence criterion met
 Total energy in the final basis set = -2925.47570785

             Standard Nuclear Orientation (Angstroms)
    I     Atom           X                Y                Z
 ----------------------------------------------------------------
    1      N      -0.1843934380    -0.0989522037     0.2305512585
    2      C      -0.4959611337     0.1503505710     1.5514359698
    3      C       1.1877261959    -0.0613388320     0.0897231625
    4      C      -1.7488327657     0.2469085380     2.1481932133
    5      H      -2.6589518870     0.1097320286     1.5789429935
    6      C      -1.7910016142     0.5292174335     3.5014889218
    7      H      -2.7518199091     0.6101332051     3.9934685491
    8      C       1.9530350377    -0.2593291836    -1.0541911345
    9      H       1.4947450928    -0.4739454351    -2.0109377903
   10      C       3.3273445119    -0.1690749138    -0.9256133751
   11      H       3.9491231778    -0.3155635841    -1.7993605151
   12      C       3.9281321938     0.1064048150     0.3076174437
   13      H       5.0061058575     0.1720515095     0.3720927187
   14      C       3.1583190172     0.2927197811     1.4418099878
   15      H       3.6272500157     0.5020316057     2.3952287952
   16      C       1.7730824865     0.2086599131     1.3389979656
   17      C      -0.6203979714     0.7147107442     4.2447715010
   18      H      -0.6900541823     0.9331199175     5.3020974502
   19      C       0.6203700861     0.6264895211     3.6395881523
   20      H       1.5242051652     0.7791107201     4.2159251640
   21      C       0.6900898146     0.3446381264     2.2782441262
   22      C      -1.1267815878    -0.2902739163    -0.8072344945
   23      C      -1.2017622058     0.6141852801    -1.8566034778
   24      H      -0.5297052501     1.4642559947    -1.8815972080
   25      C      -1.9919904183    -1.3737807217    -0.7641238445
   26      H      -1.9165191927    -2.0861538320     0.0490752972
   27      C      -2.9538936895    -1.5451269367    -1.7535498035
   28      C      -2.1459282457     0.4430346728    -2.8644551211
   29      C      -3.0430051236    -0.6313120389    -2.8130469608
   30      C      -3.8969876819    -2.7141784576    -1.6849107657
   31      H      -3.7176975281    -3.3273960700    -0.8021008554
   32      H      -4.9379703066    -2.3856353887    -1.6533576130
   33      H      -3.7962019933    -3.3582675489    -2.5606133971
   34      C      -2.2232312627     1.4290996965    -3.9960272172
   35      H      -1.4472016462     2.1903575557    -3.9229014671
   36      H      -3.1880242044     1.9406029715    -4.0127373896
   37      H      -2.1128797512     0.9333214916    -4.9626226405
   38      B      -4.1920730476    -0.8000379184    -3.8850409738
   39      C      -5.5383687196    -0.1011145922    -3.6640103531
   40      C      -5.7132051637     0.7522940788    -2.5565298265
   41      H      -4.8843858068     0.9229944417    -1.8790081023
   42      C      -6.9212948058     1.3583916500    -2.3302072669
   43      C      -7.3831321635     2.2586319980    -1.2912138634
   44      C      -6.8154198141     2.8468108801    -0.1852958505
   45      H      -5.7790686199     2.6815406836     0.0801906184
   46      C      -7.6205417643     3.6859424087     0.6148080236
   47      H      -7.1751748911     4.1507755617     1.4846199215
   48      C      -8.9476549305     3.9344239922     0.3338391249
   49      H      -9.5229291106     4.5841857891     0.9817158023
   50      C      -8.7417220846     2.5231850771    -1.5719630638
   51      C      -9.5593713699     3.3410649457    -0.7969851917
   52      C      -9.1807186965     1.8473872701    -2.7319719477
   53      C     -10.4894573346     1.9928283001    -3.1330802131
   54      H     -10.8763021077     1.4927243337    -4.0120759142
   55      C     -11.3364755271     2.8161512626    -2.3632456275
   56      H     -12.3668531823     2.9327358240    -2.6731442691
   57      C     -10.9011288945     3.4748867333    -1.2321083626
   58      H     -11.5908303534     4.0957899172    -0.6737396738
   59      C      -8.0420971873     1.1086911651    -3.2279233738
   60      C      -7.8937406771     0.2836064392    -4.3131075794
   61      H      -8.7299178886     0.0971427694    -4.9785108785
   62      C      -6.6570412696    -0.3316253954    -4.5701677292
   63      B      -6.4968153814    -1.2434926556    -5.7846873007
   64      C      -5.1262588763    -1.8707536973    -6.0496261396
   65      C      -4.9405751881    -2.6712178769    -7.1876911317
   66      H      -5.7587420860    -2.8087811515    -7.8855622254
   67      C      -3.7417336396    -3.2953207932    -7.4074688506
   68      C      -2.6440720206    -3.1503139857    -6.4612727067
   69      C      -2.7987423515    -2.3525088201    -5.3560954368
   70      H      -1.9843753650    -2.2310952532    -4.6506012461
   71      C      -4.0192953055    -1.6881106285    -5.1193288364
   72      C      -3.3120159615    -4.1830112398    -8.4625427144
   73      C      -3.8960099302    -4.6898980427    -9.6014641015
   74      H      -4.9066324074    -4.4289560037    -9.8897878680
   75      C      -3.1443212606    -5.5746702823   -10.4015491874
   76      H      -3.5986884743    -5.9742553954   -11.2988353905
   77      C      -1.8565957148    -5.9505045884   -10.0806455812
   78      H      -1.3197361875    -6.6366537095   -10.7239880739
   79      C      -1.9927392376    -4.5668514044    -8.1428011938
   80      C      -1.2353580681    -5.4455915987    -8.9128744098
   81      C      -1.5472609484    -3.9692356443    -6.9425081310
   82      C      -0.2822885513    -4.2709915872    -6.4947531712
   83      H       0.1140459486    -3.8503993240    -5.5795082962
   84      C       0.5070053875    -5.1588142218    -7.2571355196
   85      H       1.5014268208    -5.3970870437    -6.9033784312
   86      C       0.0621390636    -5.7344121884    -8.4284859091
   87      H       0.7059005877    -6.4115162307    -8.9761958033
   88      C      -7.7052392494    -1.6017135327    -6.7374548831
   89      C      -7.9822413437    -0.8454727664    -7.8841060502
   90      C      -8.9788845456    -1.2509610183    -8.7667452712
   91      H      -9.1679277486    -0.6862913009    -9.6726898163
   92      C      -9.7135615594    -2.3971247691    -8.5088241283
   93      C      -9.4727149701    -3.1323316017    -7.3583173488
   94      H     -10.0637650051    -4.0188968510    -7.1575817032
   95      C      -8.4700034312    -2.7484843053    -6.4769367357
   96      N     -10.6883437146    -2.8487717075    -9.4277198638
   97      C     -10.6314216977    -4.0498400396   -10.1027973197
   98      C     -11.8947255410    -2.2412707140    -9.7066307694
   99      C     -12.4127039968    -1.0431520513    -9.2291597914
  100      H     -11.8540114788    -0.4174309812    -8.5457551244
  101      C     -13.6780791110    -0.6778766229    -9.6563806771
  102      H     -14.1058526822     0.2502443977    -9.2998913330
  103      C      -9.6200976237    -5.0051918782   -10.1256459941
  104      H      -8.7071464051    -4.8779628319    -9.5590067717
  105      C      -9.8227691803    -6.1361092208   -10.8976341533
  106      H      -9.0522951401    -6.8957772513   -10.9297078180
  107      C     -10.9977562295    -6.3210636778   -11.6341862086
  108      H     -11.1221126896    -7.2191164206   -12.2248013407
  109      C     -11.9976404611    -5.3661863401   -11.6102537524
  110      H     -12.9078389246    -5.5083685328   -12.1800726174
  111      C     -11.8173526633    -4.2210134615   -10.8394844990
  112      C     -14.4178127390    -1.4800102381   -10.5320751477
  113      H     -15.4046592588    -1.1621913665   -10.8417934720
  114      C     -13.8996981173    -2.6745154935   -10.9980293297
  115      H     -14.4748678199    -3.3010916888   -11.6689412987
  116      C     -12.6292404069    -3.0626030130   -10.5834899376
  117      C      -8.2014394137    -3.5833294880    -5.2561883059
  118      H      -8.9114473717    -4.4054259585    -5.1707114263
  119      H      -8.2664797239    -2.9902545486    -4.3421925156
  120      H      -7.1981652101    -4.0143408540    -5.2830387765
  121      C      -7.1750528287     0.3842671051    -8.1899275491
  122      H      -7.5072888451     0.8642561258    -9.1099648107
  123      H      -7.2474868865     1.1192013857    -7.3860605937
  124      H      -6.1157053081     0.1449083178    -8.3049525153
 ----------------------------------------------------------------

   17   -2925.4757041397      8.25E-09 Convergence criterion met
 Total energy in the final basis set = -2925.47570414
 Final energy is   -2925.47570413968
 **  OPTIMIZATION CONVERGED  **

                    Orbital Energies (a.u.)
 --------------------------------------------------------------

 Alpha MOs
 -- Occupied --
-14.690 -14.690 -10.490 -10.490 -10.488 -10.487 -10.487 -10.487
-10.482 -10.481 -10.481 -10.480 -10.470 -10.470 -10.470 -10.469
-10.469 -10.469 -10.468 -10.468 -10.468 -10.468 -10.467 -10.466
-10.466 -10.466 -10.464 -10.463 -10.462 -10.462 -10.462 -10.462
-10.460 -10.459 -10.459 -10.458 -10.458 -10.457 -10.457 -10.457
-10.453 -10.453 -10.452 -10.452 -10.451 -10.450 -10.450 -10.450
-10.450 -10.450 -10.449 -10.449 -10.448 -10.448 -10.448 -10.448
-10.447 -10.447 -10.447 -10.447 -10.445 -10.445 -10.444 -10.444
-10.441 -10.441 -10.441 -10.440 -10.428 -10.428 -10.427 -10.427
-10.427 -10.427  -6.927  -6.926  -1.110  -1.110  -1.027  -1.026
 -0.976  -0.975  -0.970  -0.968  -0.952  -0.952  -0.946  -0.946
 -0.939  -0.939  -0.917  -0.908  -0.889  -0.888  -0.877  -0.876
 -0.869  -0.867  -0.854  -0.853  -0.853  -0.853  -0.847  -0.847
 -0.831  -0.821  -0.819  -0.813  -0.811  -0.810  -0.809  -0.809
 -0.772  -0.771  -0.768  -0.768  -0.742  -0.742  -0.736  -0.731
 -0.730  -0.727  -0.700  -0.696  -0.694  -0.688  -0.688  -0.686
 -0.683  -0.677  -0.656  -0.655  -0.654  -0.652  -0.647  -0.646
 -0.644  -0.643  -0.604  -0.600  -0.597  -0.594  -0.593  -0.593
 -0.588  -0.588  -0.588  -0.582  -0.581  -0.573  -0.573  -0.555
 -0.554  -0.552  -0.549  -0.545  -0.533  -0.532  -0.528  -0.523
 -0.520  -0.520  -0.519  -0.516  -0.509  -0.507  -0.502  -0.501
 -0.500  -0.500  -0.499  -0.499  -0.498  -0.498  -0.492  -0.492
 -0.492  -0.489  -0.488  -0.488  -0.484  -0.480  -0.479  -0.479
 -0.474  -0.474  -0.471  -0.470  -0.467  -0.466  -0.464  -0.463
 -0.463  -0.459  -0.448  -0.447  -0.446  -0.441  -0.440  -0.436
 -0.433  -0.430  -0.428  -0.424  -0.424  -0.424  -0.422  -0.416
 -0.416  -0.414  -0.406  -0.405  -0.404  -0.404  -0.403  -0.400
 -0.399  -0.397  -0.397  -0.396  -0.394  -0.392  -0.392  -0.391
 -0.386  -0.386  -0.376  -0.375  -0.363  -0.362  -0.356  -0.343
 -0.339  -0.332  -0.332  -0.331  -0.307  -0.305  -0.301  -0.301
 -0.298  -0.286  -0.283  -0.282  -0.282  -0.276  -0.276  -0.265
 -0.256  -0.256  -0.241  -0.239  -0.180

 Beta MOs
 -- Occupied --
-14.690 -14.690 -10.490 -10.490 -10.488 -10.487 -10.487 -10.487
-10.479 -10.478 -10.477 -10.477 -10.472 -10.472 -10.471 -10.471
-10.470 -10.470 -10.467 -10.467 -10.466 -10.466 -10.465 -10.464
-10.464 -10.464 -10.463 -10.463 -10.463 -10.463 -10.462 -10.461
-10.461 -10.461 -10.460 -10.459 -10.457 -10.457 -10.457 -10.457
-10.451 -10.450 -10.450 -10.450 -10.450 -10.450 -10.450 -10.450
-10.449 -10.449 -10.449 -10.448 -10.448 -10.448 -10.448 -10.448
-10.447 -10.447 -10.447 -10.447 -10.445 -10.445 -10.444 -10.444
-10.441 -10.441 -10.441 -10.440 -10.428 -10.428 -10.428 -10.427
-10.427 -10.427  -6.925  -6.924  -1.110  -1.110  -1.023  -1.023
 -0.975  -0.975  -0.965  -0.963  -0.952  -0.952  -0.946  -0.946
 -0.938  -0.938  -0.912  -0.904  -0.888  -0.887  -0.876  -0.876
 -0.867  -0.865  -0.854  -0.853  -0.851  -0.851  -0.847  -0.847
 -0.822  -0.820  -0.817  -0.811  -0.810  -0.809  -0.808  -0.802
 -0.771  -0.770  -0.768  -0.768  -0.739  -0.738  -0.733  -0.731
 -0.729  -0.724  -0.698  -0.696  -0.693  -0.688  -0.688  -0.683
 -0.679  -0.672  -0.655  -0.655  -0.653  -0.650  -0.647  -0.646
 -0.643  -0.643  -0.602  -0.597  -0.595  -0.594  -0.593  -0.591
 -0.588  -0.588  -0.587  -0.580  -0.579  -0.573  -0.573  -0.554
 -0.553  -0.550  -0.547  -0.544  -0.532  -0.531  -0.527  -0.522
 -0.520  -0.520  -0.518  -0.515  -0.508  -0.506  -0.502  -0.501
 -0.500  -0.500  -0.498  -0.498  -0.492  -0.492  -0.490  -0.488
 -0.488  -0.488  -0.488  -0.488  -0.483  -0.480  -0.479  -0.478
 -0.474  -0.473  -0.471  -0.469  -0.466  -0.466  -0.463  -0.463
 -0.463  -0.457  -0.446  -0.443  -0.440  -0.439  -0.435  -0.432
 -0.429  -0.424  -0.424  -0.424  -0.423  -0.422  -0.420  -0.416
 -0.416  -0.412  -0.405  -0.405  -0.403  -0.400  -0.399  -0.399
 -0.397  -0.397  -0.396  -0.395  -0.393  -0.392  -0.391  -0.391
 -0.383  -0.376  -0.375  -0.362  -0.361  -0.352  -0.344  -0.341
 -0.332  -0.332  -0.330  -0.325  -0.301  -0.301  -0.299  -0.299
 -0.286  -0.283  -0.282  -0.282  -0.266  -0.260  -0.256  -0.256
 -0.255  -0.241  -0.239

          Ground-State Mulliken Net Atomic Charges

     Atom                 Charge (a.u.)    Spin (a.u.)
  --------------------------------------------------------
      1 N                    -0.732761       0.000017
      2 C                     0.334304      -0.000004
      3 C                     0.338081      -0.000004
      4 C                    -0.297082       0.000004
      5 H                     0.254110       0.000000
      6 C                    -0.259167      -0.000001
      7 H                     0.240341       0.000000
      8 C                    -0.297397       0.000002
      9 H                     0.253785       0.000000
     10 C                    -0.259295      -0.000000
     11 H                     0.240421      -0.000000
     12 C                    -0.254147      -0.000000
     13 H                     0.237016       0.000000
     14 C                    -0.361847       0.000001
     15 H                     0.232125      -0.000000
     16 C                     0.077806      -0.000002
     17 C                    -0.253856       0.000001
     18 H                     0.236961      -0.000000
     19 C                    -0.362612       0.000001
     20 H                     0.231949      -0.000000
     21 C                     0.083730      -0.000001
     22 C                     0.300950      -0.000050
     23 C                    -0.352157      -0.000287
     24 H                     0.248598       0.000267
     25 C                    -0.361883      -0.000193
     26 H                     0.248995       0.000258
     27 C                     0.033027       0.001801
     28 C                     0.039141       0.002037
     29 C                    -0.196825      -0.018360
     30 C                    -0.763907       0.001217
     31 H                     0.248819       0.001212
     32 H                     0.249396      -0.000834
     33 H                     0.248203      -0.000550
     34 C                    -0.758981       0.001032
     35 H                     0.247005       0.001082
     36 H                     0.247860      -0.000511
     37 H                     0.247029      -0.000639
     38 B                     0.601311       0.208590
     39 C                    -0.121258       0.224317
     40 C                    -0.393784      -0.140233
     41 H                     0.247938       0.005417
     42 C                     0.098645       0.232300
     43 C                     0.191789      -0.112922
     44 C                    -0.388271       0.131906
     45 H                     0.248808      -0.007724
     46 C                    -0.225034      -0.095403
     47 H                     0.255089       0.004609
     48 C                    -0.345720       0.139726
     49 H                     0.250849      -0.008022
     50 C                    -0.059586       0.140408
     51 C                     0.229425      -0.091694
     52 C                     0.185775      -0.113000
     53 C                    -0.381636       0.136254
     54 H                     0.248107      -0.007990
     55 C                    -0.226188      -0.097010
     56 H                     0.255290       0.004652
     57 C                    -0.342746       0.146518
     58 H                     0.251025      -0.008417
     59 C                     0.087367       0.236447
     60 C                    -0.392893      -0.139579
     61 H                     0.245051       0.005396
     62 C                    -0.126702       0.207643
     63 B                     0.601002       0.215225
     64 C                    -0.121156       0.214642
     65 C                    -0.386005      -0.142800
     66 H                     0.247762       0.005525
     67 C                     0.083428       0.240346
     68 C                     0.103326       0.236658
     69 C                    -0.400100      -0.142845
     70 H                     0.245819       0.005525
     71 C                    -0.126998       0.226645
     72 C                     0.189183      -0.114775
     73 C                    -0.382411       0.138139
     74 H                     0.248036      -0.008103
     75 C                    -0.226774      -0.098223
     76 H                     0.255486       0.004712
     77 C                    -0.342366       0.147865
     78 H                     0.251062      -0.008496
     79 C                    -0.059485       0.142910
     80 C                     0.230273      -0.092963
     81 C                     0.188769      -0.114121
     82 C                    -0.388875       0.133737
     83 H                     0.248226      -0.007844
     84 C                    -0.224754      -0.096732
     85 H                     0.254908       0.004671
     86 C                    -0.345457       0.142101
     87 H                     0.251065      -0.008154
     88 C                    -0.199571      -0.018765
     89 C                     0.038333       0.001949
     90 C                    -0.352744      -0.000119
     91 H                     0.246300       0.000283
     92 C                     0.294332      -0.000234
     93 C                    -0.351174      -0.000100
     94 H                     0.248854       0.000246
     95 C                     0.032788       0.001743
     96 N                    -0.731448       0.000016
     97 C                     0.336915      -0.000006
     98 C                     0.340783      -0.000007
     99 C                    -0.298559      -0.000002
    100 H                     0.251714       0.000000
    101 C                    -0.258593       0.000002
    102 H                     0.239974      -0.000000
    103 C                    -0.295436      -0.000001
    104 H                     0.251818       0.000001
    105 C                    -0.258506       0.000002
    106 H                     0.239863      -0.000000
    107 C                    -0.254571      -0.000003
    108 H                     0.237198       0.000000
    109 C                    -0.358813       0.000004
    110 H                     0.231990      -0.000000
    111 C                     0.076642      -0.000003
    112 C                    -0.254360      -0.000003
    113 H                     0.237047       0.000000
    114 C                    -0.358685       0.000003
    115 H                     0.232117      -0.000000
    116 C                     0.075920      -0.000003
    117 C                    -0.762827       0.001112
    118 H                     0.248925       0.001188
    119 H                     0.248313      -0.000703
    120 H                     0.248375      -0.000687
    121 C                    -0.758495       0.000845
    122 H                     0.246770       0.001063
    123 H                     0.246641      -0.000549
    124 H                     0.247820      -0.000597
  --------------------------------------------------------
  Sum of atomic charges =    -0.000000

                    Cartesian Multipole Moments
 -----------------------------------------------------------------
    Charge (ESU x 10^10)
                -0.0000
    Dipole Moment (Debye)
         X      -0.0055      Y       0.3825      Z      -0.2598
       Tot       0.4624
    Quadrupole Moments (Debye-Ang)
        XX    -408.7598     XY     -41.9041     YY    -404.5846
        XZ     -40.3789     YZ      30.7570     ZZ    -416.7308

 Total job time:  47412.84s(wall), 149287.95s(cpu)
        *  Thank you very much for using Q-Chem.  Have a nice day.  *
