 Q-Chem 5.0, Q-Chem, Inc., Pleasanton, CA (2017)
 Q-Chem 5.0.1 for Intel X86 EM64T Linux

User input:
--------------------------------------------------------------
$rem
threads 8
jobtype opt
method PBEh-3c
basis def2-mSVP
mem_static      1024
mem_total       8000
sym_ignore      true
unrestricted true
scf_algorithm   diis
scf_max_cycles  250
solvent_method  pcm
geom_opt_tol_energy 25
geom_opt_tol_gradient 75
$end

$pcm
theory  iefpcm
$end

$solvent
dielectric      2.03
$end

$molecule
read utLEincoords.mol
$end

--------------------------------------------------------------

   28   -2925.4633340014      9.01E-09 Convergence criterion met
 Total energy in the final basis set = -2925.46333400
   20   -2925.4639221683      7.03E-09 Convergence criterion met
 Total energy in the final basis set = -2925.46392217
   19   -2925.4634179716      9.60E-09 Convergence criterion met
 Total energy in the final basis set = -2925.46341797
   19   -2925.4636169612      9.70E-09 Convergence criterion met
 Total energy in the final basis set = -2925.46361696
   17   -2925.4636650417      7.71E-09 Convergence criterion met
 Total energy in the final basis set = -2925.46366504
   17   -2925.4636840572      6.18E-09 Convergence criterion met
 Total energy in the final basis set = -2925.46368406
   19   -2925.4636436359      8.24E-09 Convergence criterion met
 Total energy in the final basis set = -2925.46364364
   16   -2925.4636800450      9.38E-09 Convergence criterion met
 Total energy in the final basis set = -2925.46368004
   16   -2925.4636763289      8.64E-09 Convergence criterion met
 Total energy in the final basis set = -2925.46367633
   16   -2925.4636907863      9.56E-09 Convergence criterion met
 Total energy in the final basis set = -2925.46369079
   21   -2925.4637065655      7.52E-09 Convergence criterion met
 Total energy in the final basis set = -2925.46370657
   17   -2925.4637090713      6.93E-09 Convergence criterion met
 Total energy in the final basis set = -2925.46370907
   17   -2925.4637053572      6.14E-09 Convergence criterion met
 Total energy in the final basis set = -2925.46370536

             Standard Nuclear Orientation (Angstroms)
    I     Atom           X                Y                Z
 ----------------------------------------------------------------
    1      N      -0.1838719051    -0.0943462035     0.2284579899
    2      C      -0.4979298676     0.1464519364     1.5506147020
    3      C       1.1877478337    -0.0375893726     0.0870797763
    4      C      -1.7512208131     0.2251422622     2.1481184219
    5      H      -2.6591353020     0.0780359474     1.5779809837
    6      C      -1.7965634511     0.5032732889     3.5017693236
    7      H      -2.7579849065     0.5702501776     3.9945397508
    8      C       1.9547267824    -0.2215090785    -1.0575116995
    9      H       1.4978482514    -0.4404560804    -2.0138395450
   10      C       3.3273499299    -0.1123434969    -0.9298544378
   11      H       3.9505708036    -0.2475070065    -1.8043221849
   12      C       3.9247576247     0.1675755284     0.3032674544
   13      H       5.0016297175     0.2482712721     0.3673875615
   14      C       3.1531852987     0.3392656817     1.4380366862
   15      H       3.6202952697     0.5519163444     2.3914944056
   16      C       1.7696726144     0.2362980124     1.3365981629
   17      C      -0.6285972338     0.7020730519     4.2445104912
   18      H      -0.7002614487     0.9167888929     5.3023544209
   19      C       0.6123501966     0.6315876004     3.6383066466
   20      H       1.5140574254     0.7946411200     4.2149542994
   21      C       0.6856882886     0.3543928595     2.2767842751
   22      C      -1.1239070760    -0.2889607329    -0.8096560614
   23      C      -1.2018214186     0.6147136309    -1.8594487052
   24      H      -0.5328086310     1.4671362863    -1.8828207141
   25      C      -1.9860616358    -1.3748252846    -0.7675980407
   26      H      -1.9070135234    -2.0871312750     0.0452137393
   27      C      -2.9476613948    -1.5486810195    -1.7564293488
   28      C      -2.1447406492     0.4407710493    -2.8675029721
   29      C      -3.0392631925    -0.6354944475    -2.8159850912
   30      C      -3.8889743788    -2.7191366596    -1.6875323075
   31      H      -3.7067471932    -3.3342100791    -0.8065930040
   32      H      -4.9302048822    -2.3918937722    -1.6520884398
   33      H      -3.7903770538    -3.3615459098    -2.5646380089
   34      C      -2.2250299671     1.4259852976    -3.9996284881
   35      H      -1.4519195897     2.1902908262    -3.9269808141
   36      H      -3.1914979598     1.9341614081    -4.0176304738
   37      H      -2.1123228584     0.9302655479    -4.9659256283
   38      B      -4.1893400229    -0.8052744338    -3.8863210163
   39      C      -5.5357029174    -0.1074520001    -3.6626987052
   40      C      -5.7098366497     0.7434985159    -2.5535307845
   41      H      -4.8791571402     0.9121807776    -1.8777264020
   42      C      -6.9180412327     1.3477370519    -2.3241537569
   43      C      -7.3793221509     2.2456182446    -1.2830214645
   44      C      -6.8104668767     2.8335836359    -0.1779672984
   45      H      -5.7731553620     2.6702900463     0.0847701161
   46      C      -7.6148326094     3.6700504127     0.6249140926
   47      H      -7.1682311431     4.1348059685     1.4940768419
   48      C      -8.9426704704     3.9162474109     0.3475077531
   49      H      -9.5171418493     4.5642526608     0.9977894419
   50      C      -8.7388282576     2.5082549163    -1.5600706165
   51      C      -9.5560994169     3.3235130101    -0.7822143114
   52      C      -9.1788587098     1.8334713536    -2.7199728030
   53      C     -10.4885726705     1.9770053794    -3.1173644436
   54      H     -10.8766794960     1.4771861485    -3.9958921087
   55      C     -11.3353147107     2.7972914441    -2.3447466187
   56      H     -12.3666580738     2.9121824979    -2.6519237851
   57      C     -10.8986598948     3.4551684738    -1.2141717582
   58      H     -11.5885606416     4.0738934350    -0.6536995398
   59      C      -8.0400324848     1.0978603448    -3.2199759878
   60      C      -7.8920975467     0.2756381376    -4.3070339299
   61      H      -8.7278778087     0.0876287976    -4.9725727844
   62      C      -6.6550448229    -0.3370456880    -4.5675315185
   63      B      -6.4956579632    -1.2458130454    -5.7842943818
   64      C      -5.1258637220    -1.8738400993    -6.0504192466
   65      C      -4.9418015533    -2.6739895363    -7.1887337994
   66      H      -5.7618655824    -2.8093075042    -7.8848587363
   67      C      -3.7442934205    -3.2997237787    -7.4093075553
   68      C      -2.6463698661    -3.1574379072    -6.4632967705
   69      C      -2.7993343208    -2.3595011264    -5.3582361583
   70      H      -1.9857680328    -2.2382542473    -4.6517259685
   71      C      -4.0184505561    -1.6930812482    -5.1208912037
   72      C      -3.3163733608    -4.1876312479    -8.4648186504
   73      C      -3.9009805177    -4.6921880523    -9.6040654962
   74      H      -4.9106174946    -4.4281335385    -9.8928027540
   75      C      -3.1518246066    -5.5781615708   -10.4044489376
   76      H      -3.6069474696    -5.9757876919   -11.3021695057
   77      C      -1.8656218543    -5.9575146933   -10.0834867215
   78      H      -1.3308596971    -6.6447204117   -10.7273925152
   79      C      -1.9983020540    -4.5749649116    -8.1453998248
   80      C      -1.2431926508    -5.4552216241    -8.9157092285
   81      C      -1.5517834357    -3.9790227195    -6.9448987844
   82      C      -0.2880304495    -4.2847525980    -6.4973409415
   83      H       0.1092516674    -3.8661161694    -5.5816786787
   84      C       0.4989233331    -5.1741028975    -7.2595622185
   85      H       1.4924773393    -5.4154897002    -6.9055945429
   86      C       0.0529486417    -5.7475768410    -8.4310149424
   87      H       0.6953072842    -6.4261367746    -8.9785091912
   88      C      -7.7042642027    -1.6010333604    -6.7374758296
   89      C      -7.9770306069    -0.8465532532    -7.8860504007
   90      C      -8.9728314566    -1.2510967812    -8.7695847296
   91      H      -9.1574534558    -0.6896057469    -9.6783447707
   92      C      -9.7123950030    -2.3939364263    -8.5109752135
   93      C      -9.4758932652    -3.1263169009    -7.3578423337
   94      H     -10.0717931930    -4.0092805829    -7.1560757659
   95      C      -8.4733420717    -2.7444802302    -6.4759827976
   96      N     -10.6860374204    -2.8444131303    -9.4302002515
   97      C     -10.6400114245    -4.0548156013   -10.0896730230
   98      C     -11.8818332893    -2.2240963452    -9.7273483535
   99      C     -12.3874004795    -1.0136417933    -9.2696169429
  100      H     -11.8256022010    -0.3878590586    -8.5889839233
  101      C     -13.6439102445    -0.6370706833    -9.7116301889
  102      H     -14.0621759667     0.3010531665    -9.3705974465
  103      C      -9.6417071628    -5.0234361032   -10.0927753461
  104      H      -8.7320687487    -4.9003270563    -9.5200914912
  105      C      -9.8529304619    -6.1608956502   -10.8520333303
  106      H      -9.0925566636    -6.9311032032   -10.8682833201
  107      C     -11.0237941932    -6.3393416651   -11.5954383770
  108      H     -11.1556111781    -7.2427611078   -12.1759832197
  109      C     -12.0104727645    -5.3711552461   -11.5910593316
  110      H     -12.9176138060    -5.5087390561   -12.1666810159
  111      C     -11.8218476758    -4.2191644320   -10.8335421710
  112      C     -14.3869213249    -1.4402255612   -10.5825475872
  113      H     -15.3668244493    -1.1135005006   -10.9044497342
  114      C     -13.8810822590    -2.6470276524   -11.0284797439
  115      H     -14.4595051093    -3.2743028202   -11.6957624971
  116      C     -12.6197819449    -3.0468328521   -10.5992753114
  117      C      -8.2090070375    -3.5772335078    -5.2529343894
  118      H      -8.9204598831    -4.3980483256    -5.1669531279
  119      H      -8.2752997415    -2.9823290795    -4.3402864336
  120      H      -7.2064442481    -4.0099961073    -5.2764361261
  121      C      -7.1644399823     0.3794676682    -8.1926937201
  122      H      -7.4948222831     0.8612620426    -9.1124771387
  123      H      -7.2324739368     1.1149394372    -7.3889941235
  124      H      -6.1062494844     0.1356013800    -8.3085617531
 ----------------------------------------------------------------

   17   -2925.4637027413      6.33E-09 Convergence criterion met
 Total energy in the final basis set = -2925.46370274
 Final energy is   -2925.46370274125
 **  OPTIMIZATION CONVERGED  **

                    Orbital Energies (a.u.)
 --------------------------------------------------------------

 Alpha MOs
 -- Occupied --
-14.688 -14.688 -10.489 -10.488 -10.485 -10.484 -10.484 -10.484
-10.482 -10.481 -10.481 -10.480 -10.471 -10.471 -10.470 -10.470
-10.470 -10.470 -10.470 -10.469 -10.469 -10.469 -10.468 -10.468
-10.468 -10.467 -10.464 -10.464 -10.464 -10.464 -10.463 -10.463
-10.460 -10.459 -10.459 -10.458 -10.457 -10.457 -10.456 -10.456
-10.453 -10.453 -10.451 -10.451 -10.447 -10.447 -10.447 -10.447
-10.447 -10.447 -10.447 -10.446 -10.446 -10.445 -10.445 -10.445
-10.445 -10.445 -10.445 -10.445 -10.444 -10.444 -10.443 -10.443
-10.438 -10.438 -10.438 -10.438 -10.428 -10.428 -10.428 -10.428
-10.427 -10.426  -6.927  -6.926  -1.108  -1.107  -1.027  -1.027
 -0.974  -0.974  -0.970  -0.968  -0.950  -0.949  -0.944  -0.944
 -0.941  -0.940  -0.917  -0.908  -0.887  -0.885  -0.876  -0.876
 -0.869  -0.867  -0.855  -0.854  -0.852  -0.851  -0.844  -0.844
 -0.832  -0.822  -0.820  -0.813  -0.808  -0.808  -0.807  -0.807
 -0.771  -0.770  -0.768  -0.768  -0.743  -0.742  -0.737  -0.729
 -0.728  -0.728  -0.699  -0.697  -0.693  -0.687  -0.686  -0.686
 -0.683  -0.678  -0.655  -0.654  -0.653  -0.652  -0.646  -0.646
 -0.642  -0.641  -0.605  -0.600  -0.599  -0.596  -0.592  -0.592
 -0.589  -0.586  -0.586  -0.583  -0.582  -0.572  -0.571  -0.554
 -0.553  -0.551  -0.551  -0.545  -0.535  -0.532  -0.528  -0.522
 -0.518  -0.518  -0.518  -0.517  -0.510  -0.507  -0.502  -0.501
 -0.500  -0.499  -0.498  -0.498  -0.498  -0.497  -0.492  -0.490
 -0.489  -0.489  -0.486  -0.486  -0.486  -0.479  -0.478  -0.477
 -0.475  -0.474  -0.471  -0.471  -0.467  -0.467  -0.464  -0.463
 -0.463  -0.460  -0.449  -0.448  -0.447  -0.441  -0.440  -0.436
 -0.434  -0.429  -0.428  -0.423  -0.423  -0.422  -0.421  -0.415
 -0.413  -0.413  -0.406  -0.405  -0.404  -0.404  -0.404  -0.402
 -0.400  -0.397  -0.396  -0.395  -0.393  -0.391  -0.390  -0.389
 -0.386  -0.385  -0.373  -0.373  -0.363  -0.362  -0.356  -0.343
 -0.339  -0.331  -0.328  -0.328  -0.308  -0.305  -0.298  -0.298
 -0.298  -0.285  -0.282  -0.282  -0.281  -0.276  -0.276  -0.265
 -0.253  -0.252  -0.238  -0.236  -0.179

 Beta MOs
 -- Occupied --
-14.688 -14.688 -10.489 -10.488 -10.485 -10.484 -10.484 -10.484
-10.479 -10.478 -10.477 -10.477 -10.473 -10.472 -10.472 -10.471
-10.471 -10.470 -10.468 -10.468 -10.468 -10.467 -10.466 -10.466
-10.466 -10.466 -10.465 -10.465 -10.465 -10.464 -10.462 -10.462
-10.462 -10.461 -10.461 -10.459 -10.457 -10.456 -10.456 -10.456
-10.450 -10.450 -10.448 -10.448 -10.447 -10.447 -10.447 -10.447
-10.447 -10.447 -10.447 -10.446 -10.446 -10.445 -10.445 -10.445
-10.445 -10.445 -10.445 -10.445 -10.444 -10.444 -10.443 -10.443
-10.438 -10.438 -10.438 -10.438 -10.428 -10.428 -10.428 -10.427
-10.427 -10.426  -6.925  -6.924  -1.108  -1.107  -1.024  -1.023
 -0.974  -0.973  -0.965  -0.963  -0.950  -0.949  -0.944  -0.944
 -0.939  -0.939  -0.912  -0.905  -0.886  -0.885  -0.876  -0.876
 -0.867  -0.865  -0.853  -0.852  -0.851  -0.851  -0.844  -0.844
 -0.822  -0.820  -0.818  -0.808  -0.808  -0.807  -0.807  -0.803
 -0.771  -0.770  -0.768  -0.768  -0.740  -0.738  -0.734  -0.729
 -0.728  -0.725  -0.697  -0.695  -0.693  -0.686  -0.686  -0.684
 -0.679  -0.673  -0.654  -0.653  -0.653  -0.651  -0.646  -0.645
 -0.642  -0.641  -0.603  -0.597  -0.597  -0.594  -0.592  -0.592
 -0.589  -0.586  -0.586  -0.582  -0.580  -0.571  -0.571  -0.553
 -0.552  -0.550  -0.548  -0.544  -0.533  -0.531  -0.526  -0.521
 -0.518  -0.518  -0.517  -0.515  -0.509  -0.507  -0.501  -0.500
 -0.499  -0.498  -0.498  -0.497  -0.490  -0.490  -0.489  -0.489
 -0.488  -0.487  -0.486  -0.486  -0.485  -0.478  -0.478  -0.477
 -0.474  -0.474  -0.471  -0.471  -0.467  -0.466  -0.463  -0.463
 -0.463  -0.458  -0.448  -0.444  -0.441  -0.439  -0.434  -0.432
 -0.429  -0.423  -0.423  -0.422  -0.422  -0.420  -0.420  -0.414
 -0.413  -0.412  -0.405  -0.404  -0.403  -0.401  -0.400  -0.400
 -0.398  -0.396  -0.395  -0.395  -0.392  -0.391  -0.390  -0.389
 -0.383  -0.374  -0.373  -0.362  -0.361  -0.352  -0.344  -0.341
 -0.330  -0.328  -0.328  -0.325  -0.300  -0.300  -0.298  -0.298
 -0.284  -0.282  -0.281  -0.281  -0.266  -0.260  -0.255  -0.253
 -0.252  -0.237  -0.236

          Ground-State Mulliken Net Atomic Charges

     Atom                 Charge (a.u.)    Spin (a.u.)
  --------------------------------------------------------
      1 N                    -0.735933       0.000018
      2 C                     0.336569      -0.000004
      3 C                     0.340576      -0.000005
      4 C                    -0.290206       0.000004
      5 H                     0.245766       0.000000
      6 C                    -0.249559      -0.000001
      7 H                     0.229013       0.000000
      8 C                    -0.290372       0.000002
      9 H                     0.245517       0.000000
     10 C                    -0.249587      -0.000000
     11 H                     0.229186       0.000000
     12 C                    -0.242823      -0.000000
     13 H                     0.226573      -0.000000
     14 C                    -0.354977       0.000001
     15 H                     0.219664      -0.000000
     16 C                     0.086228      -0.000002
     17 C                    -0.242510       0.000001
     18 H                     0.226462      -0.000000
     19 C                    -0.355838       0.000001
     20 H                     0.219517      -0.000000
     21 C                     0.092634      -0.000001
     22 C                     0.305579      -0.000047
     23 C                    -0.348682      -0.000294
     24 H                     0.242105       0.000268
     25 C                    -0.358843      -0.000196
     26 H                     0.242421       0.000259
     27 C                     0.037423       0.001788
     28 C                     0.042814       0.002015
     29 C                    -0.198915      -0.018201
     30 C                    -0.759628       0.001234
     31 H                     0.243583       0.001216
     32 H                     0.248141      -0.000827
     33 H                     0.246868      -0.000552
     34 C                    -0.754615       0.001066
     35 H                     0.241857       0.001086
     36 H                     0.246595      -0.000515
     37 H                     0.245537      -0.000634
     38 B                     0.605335       0.207391
     39 C                    -0.120890       0.224926
     40 C                    -0.392302      -0.141336
     41 H                     0.243180       0.005498
     42 C                     0.103860       0.232914
     43 C                     0.197565      -0.113427
     44 C                    -0.384832       0.132777
     45 H                     0.238563      -0.007826
     46 C                    -0.215395      -0.095828
     47 H                     0.245100       0.004664
     48 C                    -0.341540       0.140340
     49 H                     0.239096      -0.008132
     50 C                    -0.059237       0.140495
     51 C                     0.240244      -0.092055
     52 C                     0.191402      -0.113637
     53 C                    -0.377886       0.136959
     54 H                     0.237050      -0.008089
     55 C                    -0.216587      -0.097367
     56 H                     0.244955       0.004708
     57 C                    -0.338575       0.146748
     58 H                     0.239246      -0.008508
     59 C                     0.092668       0.236956
     60 C                    -0.391550      -0.140784
     61 H                     0.239557       0.005486
     62 C                    -0.126379       0.209023
     63 B                     0.605101       0.213837
     64 C                    -0.120696       0.215803
     65 C                    -0.384450      -0.144002
     66 H                     0.242784       0.005613
     67 C                     0.088343       0.240901
     68 C                     0.108671       0.237361
     69 C                    -0.399099      -0.144132
     70 H                     0.240515       0.005618
     71 C                    -0.126677       0.227725
     72 C                     0.194852      -0.115444
     73 C                    -0.378870       0.139076
     74 H                     0.237577      -0.008212
     75 C                    -0.217286      -0.098701
     76 H                     0.245466       0.004773
     77 C                    -0.338230       0.148361
     78 H                     0.239261      -0.008603
     79 C                    -0.059206       0.142957
     80 C                     0.241119      -0.093385
     81 C                     0.194471      -0.114746
     82 C                    -0.385336       0.134734
     83 H                     0.237317      -0.007958
     84 C                    -0.215010      -0.097231
     85 H                     0.244684       0.004731
     86 C                    -0.341397       0.142740
     87 H                     0.239295      -0.008266
     88 C                    -0.201795      -0.018576
     89 C                     0.041763       0.001921
     90 C                    -0.349489      -0.000125
     91 H                     0.239323       0.000283
     92 C                     0.299072      -0.000236
     93 C                    -0.347940      -0.000097
     94 H                     0.242681       0.000247
     95 C                     0.037423       0.001715
     96 N                    -0.734639       0.000017
     97 C                     0.339120      -0.000006
     98 C                     0.343203      -0.000007
     99 C                    -0.290933      -0.000002
    100 H                     0.242976       0.000000
    101 C                    -0.248657       0.000002
    102 H                     0.228660      -0.000000
    103 C                    -0.288172      -0.000001
    104 H                     0.242980       0.000001
    105 C                    -0.248729       0.000002
    106 H                     0.228478      -0.000000
    107 C                    -0.243319      -0.000003
    108 H                     0.226705       0.000000
    109 C                    -0.351854       0.000004
    110 H                     0.219498      -0.000000
    111 C                     0.085288      -0.000003
    112 C                    -0.243111      -0.000003
    113 H                     0.226578       0.000000
    114 C                    -0.351618       0.000003
    115 H                     0.219545      -0.000000
    116 C                     0.084419      -0.000003
    117 C                    -0.758655       0.001138
    118 H                     0.243863       0.001190
    119 H                     0.247024      -0.000695
    120 H                     0.247143      -0.000695
    121 C                    -0.753941       0.000884
    122 H                     0.241502       0.001066
    123 H                     0.245081      -0.000558
    124 H                     0.246538      -0.000587
  --------------------------------------------------------
  Sum of atomic charges =    -0.000000

                    Cartesian Multipole Moments
 -----------------------------------------------------------------
    Charge (ESU x 10^10)
                -0.0000
    Dipole Moment (Debye)
         X      -0.0091      Y       0.3691      Z      -0.2273
       Tot       0.4336
    Quadrupole Moments (Debye-Ang)
        XX    -412.7900     XY     -39.0282     YY    -407.9224
        XZ     -38.3580     YZ      28.0942     ZZ    -420.1512

 Total job time:  61308.16s(wall), 182751.58s(cpu)
        *  Thank you very much for using Q-Chem.  Have a nice day.  *
