 Q-Chem 5.0, Q-Chem, Inc., Pleasanton, CA (2017)
 Q-Chem 5.0.1 for Intel X86 EM64T Linux

User input:
--------------------------------------------------------------
$rem
threads 8
jobtype opt
method PBEh-3c
basis def2-mSVP
mem_static      1024
mem_total       8000
sym_ignore      true
unrestricted true
scf_algorithm	diis
scf_max_cycles	2500
solvent_method  pcm
geom_opt_tol_energy 25
geom_opt_tol_gradient 75
$end

$pcm
theory  iefpcm
$end

$solvent
dielectric      8.93
$end

$molecule
read utLEincoords.mol
$end
--------------------------------------------------------------

   21   -2925.4750455036      9.59E-09 Convergence criterion met
 Total energy in the final basis set = -2925.47504550
   19   -2925.4809538022      9.31E-09 Convergence criterion met
 Total energy in the final basis set = -2925.48095380
   19   -2925.4820044433      9.41E-09 Convergence criterion met
 Total energy in the final basis set = -2925.48200444
   19   -2925.4819216283      8.93E-09 Convergence criterion met
 Total energy in the final basis set = -2925.48192163
   19   -2925.4821701851      8.88E-09 Convergence criterion met
 Total energy in the final basis set = -2925.48217019
   18   -2925.4822549396      8.19E-09 Convergence criterion met
 Total energy in the final basis set = -2925.48225494
   18   -2925.4823605370      9.34E-09 Convergence criterion met
 Total energy in the final basis set = -2925.48236054
   18   -2925.4823721185      9.20E-09 Convergence criterion met
   20   -2925.4822501068      9.20E-09 Convergence criterion met
 Total energy in the final basis set = -2925.48225011
   20   -2925.4822413304      8.36E-09 Convergence criterion met
 Total energy in the final basis set = -2925.48224133
   22   -2925.4822372857      7.57E-09 Convergence criterion met
 Total energy in the final basis set = -2925.48223729
   21   -2925.4822265926      9.28E-09 Convergence criterion met
 Total energy in the final basis set = -2925.48222659
   22   -2925.4822257630      8.85E-09 Convergence criterion met
 Total energy in the final basis set = -2925.48222576
   23   -2925.4822242884      6.59E-09 Convergence criterion met
 Total energy in the final basis set = -2925.48222429

             Standard Nuclear Orientation (Angstroms)
    I     Atom           X                Y                Z
 ----------------------------------------------------------------
    1      N      -0.2240442530    -0.0839490687     0.1953248593
    2      C      -0.5061099324    -0.0866270679     1.5588177990
    3      C       1.1358618213     0.1514694454     0.0204661335
    4      C      -1.7408755640    -0.1884282085     2.1877886485
    5      H      -2.6630269549    -0.3064020828     1.6363947821
    6      C      -1.7522636273    -0.1073397676     3.5726464910
    7      H      -2.6936796922    -0.1910538717     4.0976116113
    8      C       1.8680637861     0.1590127160    -1.1600728854
    9      H       1.4134801217    -0.0211875290    -2.1241489851
   10      C       3.2319781362     0.3895013130    -1.0542383815
   11      H       3.8341310939     0.4125273092    -1.9518072156
   12      C       3.8347988463     0.5747385744     0.1865457791
   13      H       4.9011414026     0.7473637907     0.2381578870
   14      C       3.0927189191     0.5202614913     1.3675693546
   15      H       3.5784285499     0.6368729838     2.3271724559
   16      C       1.7350663040     0.3036887323     1.2800040061
   17      C      -0.5773502866     0.0976416028     4.2895315815
   18      H      -0.6184024162     0.1642436325     5.3681358866
   19      C       0.6495512791     0.2441622877     3.6404022145
   20      H       1.5505661390     0.4374505378     4.2069140119
   21      C       0.6808369122     0.1531574160     2.2660167989
   22      C      -1.1533623522    -0.2663442654    -0.8184805754
   23      C      -1.1486697752     0.5831005380    -1.9323342457
   24      H      -0.4493368419     1.4083081972    -1.9816941289
   25      C      -2.0991638067    -1.2943704475    -0.7166110934
   26      H      -2.0568029643    -1.9868292887     0.1146179803
   27      C      -3.0343754447    -1.4722619218    -1.7153257761
   28      C      -2.1009400395     0.4273311565    -2.9206128056
   29      C      -3.0646630182    -0.5984812353    -2.8249790712
   30      C      -4.0176558706    -2.6013610635    -1.6295196023
   31      H      -3.8769413364    -3.1933087758    -0.7259528284
   32      H      -5.0425160660    -2.2262558123    -1.6339744661
   33      H      -3.9225465103    -3.2661618611    -2.4891532946
   34      C      -2.1405857243     1.3698705041    -4.0857121602
   35      H      -1.3193386408     2.0846813572    -4.0579681710
   36      H      -3.0776467452     1.9292769568    -4.1018043452
   37      H      -2.0853642541     0.8229861653    -5.0284497422
   38      B      -4.2113723849    -0.7608044651    -3.9056441361
   39      C      -5.5407907097    -0.0292193814    -3.6841911207
   40      C      -5.7137292804     0.8499909046    -2.5910935369
   41      H      -4.8874928042     1.0307784860    -1.9100287080
   42      C      -6.9168361567     1.4769442083    -2.3763143125
   43      C      -7.3702364755     2.4083340752    -1.3421734803
   44      C      -6.8023653578     3.0080261442    -0.2451184613
   45      H      -5.7687378544     2.8359817766     0.0290110404
   46      C      -7.5996927316     3.8726941751     0.5420051077
   47      H      -7.1486425057     4.3453776187     1.4053695849
   48      C      -8.9212699541     4.1340022070     0.2552912551
   49      H      -9.4913712882     4.8013246375     0.8903054121
   50      C      -8.7231592350     2.6874578335    -1.6282464294
   51      C      -9.5341490747     3.5278816327    -0.8690697646
   52      C      -9.1605077277     1.9966789978    -2.7775592782
   53      C     -10.4641735298     2.1519767162    -3.1829047559
   54      H     -10.8562360885     1.6428414684    -4.0550382592
   55      C     -11.3089009186     2.9995600135    -2.4291282108
   56      H     -12.3366268630     3.1203087270    -2.7481605505
   57      C     -10.8745782358     3.6722882810    -1.3085990130
   58      H     -11.5588199552     4.3102457296    -0.7623383700
   59      C      -8.0151993503     1.2309722211    -3.2562441246
   60      C      -7.8692169164     0.3826200375    -4.3270654400
   61      H      -8.7076977896     0.1968813931    -4.9920100350
   62      C      -6.6390359828    -0.2585838944    -4.5736276447
   63      B      -6.4807821174    -1.2055341688    -5.7679908066
   64      C      -5.1198991258    -1.8738509218    -6.0182790462
   65      C      -4.9466146723    -2.7228017800    -7.1272718096
   66      H      -5.7698287945    -2.8742965256    -7.8182763146
   67      C      -3.7572420905    -3.3748623479    -7.3341043345
   68      C      -2.6728617298    -3.2111526133    -6.4216520485
   69      C      -2.8153006898    -2.3746051061    -5.3399514789
   70      H      -1.9902688287    -2.2465036702    -4.6453466930
   71      C      -4.0289443413    -1.6842795579    -5.1135239982
   72      C      -3.3508704766    -4.3182672436    -8.3685674631
   73      C      -3.9509817335    -4.8658992896    -9.4766179372
   74      H      -4.9623812765    -4.6065696177    -9.7659808556
   75      C      -3.2198116103    -5.7973206768   -10.2499421635
   76      H      -3.6933954478    -6.2280677864   -11.1232411289
   77      C      -1.9352354691    -6.1773672269    -9.9311874909
   78      H      -1.4142971962    -6.8982631662   -10.5496658292
   79      C      -2.0348818933    -4.7077964790    -8.0512636478
   80      C      -1.2966543833    -5.6286709409    -8.7915346638
   81      C      -1.5756997282    -4.0671536788    -6.8808048534
   82      C      -0.3121319924    -4.3679289786    -6.4357522160
   83      H       0.1007008344    -3.9173779755    -5.5415563784
   84      C       0.4632420403    -5.2980557326    -7.1690504519
   85      H       1.4582338978    -5.5322605965    -6.8124079298
   86      C       0.0031636974    -5.9162680284    -8.3100732746
   87      H       0.6326454771    -6.6240145361    -8.8358498879
   88      C      -7.6922467900    -1.5699810688    -6.7225780791
   89      C      -7.9741482265    -0.8140962105    -7.8691278223
   90      C      -8.9669299218    -1.2232672380    -8.7552158398
   91      H      -9.1640578549    -0.6550662298    -9.6573760659
   92      C      -9.6895215923    -2.3777902517    -8.5044263588
   93      C      -9.4453435449    -3.1161996440    -7.3572522968
   94      H     -10.0237345500    -4.0137166162    -7.1671970121
   95      C      -8.4522259756    -2.7223887716    -6.4684757044
   96      N     -10.6547487964    -2.8382523683    -9.4335200413
   97      C     -10.5039227155    -3.9532032193   -10.2280181065
   98      C     -11.9327963497    -2.3507875200    -9.5927441064
   99      C     -12.5507301761    -1.2729321972    -8.9684782255
  100      H     -12.0246239852    -0.6602753942    -8.2479182895
  101      C     -13.8704131689    -1.0134403540    -9.2980062381
  102      H     -14.3767483013    -0.1818936899    -8.8248603288
  103      C      -9.3993786240    -4.7851733630   -10.3805406728
  104      H      -8.4795190333    -4.6082330070    -9.8386470361
  105      C      -9.5206482660    -5.8574284865   -11.2480132074
  106      H      -8.6775607916    -6.5227946535   -11.3832129606
  107      C     -10.7055835278    -6.1020821845   -11.9519936529
  108      H     -10.7633674982    -6.9516040017   -12.6198453000
  109      C     -11.7993047714    -5.2694688883   -11.7978046911
  110      H     -12.7172859166    -5.4595724550   -12.3406658548
  111      C     -11.7023358375    -4.1858382659   -10.9287801327
  112      C     -14.5654991899    -1.8011836811   -10.2231449134
  113      H     -15.5966363794    -1.5680450986   -10.4541683253
  114      C     -13.9464845640    -2.8751276673   -10.8373672964
  115      H     -14.4860857519    -3.4903675731   -11.5474254587
  116      C     -12.6206374852    -3.1576219198   -10.5204742007
  117      C      -8.1839612826    -3.5582808368    -5.2482825657
  118      H      -8.9034321911    -4.3717360388    -5.1554421388
  119      H      -8.2325884139    -2.9607459965    -4.3363541563
  120      H      -7.1855161577    -3.9991070187    -5.2830723869
  121      C      -7.1763732100     0.4229369586    -8.1706754084
  122      H      -7.5062811349     0.8988699281    -9.0940096810
  123      H      -7.2610803308     1.1563889512    -7.3668991251
  124      H      -6.1144102841     0.1913088169    -8.2756251690
 ----------------------------------------------------------------

   23   -2925.4822249517      6.84E-09 Convergence criterion met
 Total energy in the final basis set = -2925.48222495
 Final energy is   -2925.48222495168
 **  OPTIMIZATION CONVERGED  **

                    Orbital Energies (a.u.)
 --------------------------------------------------------------

 Alpha MOs
 -- Occupied --
-14.782 -14.687 -10.533 -10.528 -10.528 -10.494 -10.494 -10.490
-10.490 -10.486 -10.486 -10.483 -10.483 -10.482 -10.481 -10.481
-10.478 -10.477 -10.477 -10.476 -10.475 -10.475 -10.457 -10.457
-10.457 -10.454 -10.454 -10.453 -10.453 -10.452 -10.452 -10.452
-10.451 -10.451 -10.451 -10.451 -10.451 -10.451 -10.450 -10.450
-10.450 -10.449 -10.449 -10.449 -10.449 -10.448 -10.448 -10.447
-10.447 -10.446 -10.446 -10.446 -10.446 -10.444 -10.443 -10.441
-10.440 -10.440 -10.440 -10.439 -10.439 -10.439 -10.438 -10.438
-10.436 -10.433 -10.433 -10.420 -10.420 -10.418 -10.416 -10.416
-10.412 -10.412  -6.909  -6.904  -1.175  -1.108  -1.015  -1.005
 -1.004  -0.992  -0.980  -0.970  -0.951  -0.948  -0.945  -0.941
 -0.926  -0.924  -0.924  -0.899  -0.895  -0.887  -0.885  -0.885
 -0.884  -0.869  -0.851  -0.849  -0.846  -0.845  -0.842  -0.840
 -0.837  -0.837  -0.810  -0.809  -0.805  -0.801  -0.800  -0.791
 -0.789  -0.786  -0.768  -0.763  -0.761  -0.733  -0.731  -0.729
 -0.722  -0.717  -0.716  -0.708  -0.692  -0.691  -0.686  -0.680
 -0.677  -0.668  -0.666  -0.664  -0.652  -0.652  -0.641  -0.640
 -0.633  -0.632  -0.626  -0.625  -0.610  -0.591  -0.590  -0.587
 -0.586  -0.584  -0.582  -0.579  -0.571  -0.569  -0.566  -0.563
 -0.563  -0.558  -0.550  -0.549  -0.545  -0.538  -0.533  -0.531
 -0.527  -0.525  -0.521  -0.518  -0.515  -0.515  -0.512  -0.507
 -0.498  -0.497  -0.497  -0.494  -0.490  -0.490  -0.488  -0.488
 -0.486  -0.484  -0.479  -0.477  -0.477  -0.477  -0.476  -0.476
 -0.472  -0.472  -0.470  -0.464  -0.463  -0.459  -0.457  -0.457
 -0.457  -0.456  -0.454  -0.453  -0.452  -0.447  -0.442  -0.437
 -0.431  -0.431  -0.431  -0.429  -0.426  -0.426  -0.422  -0.421
 -0.418  -0.415  -0.415  -0.414  -0.413  -0.405  -0.402  -0.398
 -0.393  -0.390  -0.389  -0.389  -0.388  -0.387  -0.384  -0.381
 -0.377  -0.372  -0.369  -0.362  -0.361  -0.355  -0.340  -0.337
 -0.336  -0.331  -0.327  -0.314  -0.313  -0.309  -0.307  -0.300
 -0.292  -0.291  -0.290  -0.282  -0.276  -0.276  -0.273  -0.258
 -0.255  -0.248  -0.245  -0.241  -0.155

 Beta MOs
 -- Occupied --
-14.772 -14.687 -10.533 -10.529 -10.529 -10.493 -10.493 -10.488
-10.488 -10.486 -10.486 -10.483 -10.483 -10.482 -10.479 -10.479
-10.478 -10.478 -10.477 -10.476 -10.475 -10.474 -10.458 -10.458
-10.455 -10.455 -10.454 -10.453 -10.452 -10.452 -10.452 -10.452
-10.452 -10.451 -10.451 -10.450 -10.450 -10.450 -10.450 -10.449
-10.449 -10.449 -10.449 -10.449 -10.449 -10.448 -10.448 -10.447
-10.447 -10.446 -10.446 -10.445 -10.445 -10.442 -10.442 -10.441
-10.441 -10.440 -10.440 -10.439 -10.439 -10.439 -10.438 -10.438
-10.437 -10.433 -10.432 -10.420 -10.420 -10.419 -10.415 -10.415
-10.411 -10.411  -6.906  -6.902  -1.160  -1.108  -1.010  -1.004
 -1.004  -0.990  -0.974  -0.970  -0.951  -0.946  -0.944  -0.941
 -0.923  -0.923  -0.922  -0.898  -0.893  -0.885  -0.884  -0.883
 -0.882  -0.869  -0.850  -0.849  -0.845  -0.842  -0.840  -0.837
 -0.836  -0.835  -0.809  -0.808  -0.803  -0.800  -0.799  -0.787
 -0.787  -0.783  -0.764  -0.763  -0.761  -0.731  -0.729  -0.727
 -0.720  -0.715  -0.715  -0.707  -0.692  -0.689  -0.686  -0.678
 -0.676  -0.667  -0.663  -0.660  -0.652  -0.650  -0.641  -0.640
 -0.633  -0.632  -0.623  -0.623  -0.607  -0.591  -0.586  -0.586
 -0.582  -0.581  -0.577  -0.574  -0.571  -0.569  -0.565  -0.562
 -0.561  -0.553  -0.548  -0.548  -0.538  -0.538  -0.532  -0.530
 -0.526  -0.521  -0.520  -0.518  -0.515  -0.514  -0.512  -0.505
 -0.498  -0.497  -0.495  -0.492  -0.490  -0.489  -0.487  -0.486
 -0.486  -0.483  -0.478  -0.477  -0.476  -0.475  -0.475  -0.475
 -0.472  -0.471  -0.469  -0.464  -0.463  -0.459  -0.457  -0.456
 -0.454  -0.453  -0.453  -0.446  -0.445  -0.444  -0.440  -0.433
 -0.431  -0.430  -0.429  -0.427  -0.425  -0.424  -0.422  -0.421
 -0.415  -0.414  -0.413  -0.410  -0.406  -0.401  -0.397  -0.393
 -0.390  -0.390  -0.388  -0.387  -0.386  -0.386  -0.384  -0.381
 -0.376  -0.372  -0.360  -0.359  -0.354  -0.352  -0.338  -0.331
 -0.329  -0.326  -0.321  -0.307  -0.304  -0.303  -0.300  -0.294
 -0.290  -0.287  -0.287  -0.276  -0.273  -0.265  -0.255  -0.251
 -0.245  -0.241  -0.238

          Ground-State Mulliken Net Atomic Charges

     Atom                 Charge (a.u.)    Spin (a.u.)
  --------------------------------------------------------
      1 N                    -0.668965       0.357893
      2 C                     0.332255      -0.105962
      3 C                     0.334992      -0.106634
      4 C                    -0.257582       0.177715
      5 H                     0.305142      -0.009402
      6 C                    -0.253321      -0.103632
      7 H                     0.278543       0.004608
      8 C                    -0.257600       0.179197
      9 H                     0.304628      -0.009442
     10 C                    -0.253601      -0.105545
     11 H                     0.278277       0.004696
     12 C                    -0.222807       0.175637
     13 H                     0.278399      -0.009626
     14 C                    -0.352630      -0.048177
     15 H                     0.269476       0.002441
     16 C                     0.114907       0.088483
     17 C                    -0.222900       0.172389
     18 H                     0.278250      -0.009450
     19 C                    -0.352710      -0.046197
     20 H                     0.269337       0.002355
     21 C                     0.116015       0.085815
     22 C                     0.348017       0.009235
     23 C                    -0.361322       0.105607
     24 H                     0.293735      -0.005481
     25 C                    -0.371850       0.100711
     26 H                     0.294457      -0.005254
     27 C                     0.027299      -0.075189
     28 C                     0.037419      -0.076849
     29 C                    -0.141997       0.219105
     30 C                    -0.761194       0.007109
     31 H                     0.252927       0.001340
     32 H                     0.264523      -0.002071
     33 H                     0.262421      -0.003380
     34 C                    -0.757264       0.007224
     35 H                     0.251416       0.001156
     36 H                     0.261940      -0.003363
     37 H                     0.261753      -0.002034
     38 B                     0.550019       0.324327
     39 C                    -0.138268       0.030744
     40 C                    -0.410911      -0.023029
     41 H                     0.217196      -0.000519
     42 C                     0.069372       0.051023
     43 C                     0.177550      -0.047852
     44 C                    -0.411102       0.074131
     45 H                     0.237196      -0.004332
     46 C                    -0.231438      -0.048418
     47 H                     0.247174       0.002357
     48 C                    -0.363096       0.068480
     49 H                     0.245206      -0.003970
     50 C                    -0.078751       0.024041
     51 C                     0.219482      -0.038932
     52 C                     0.172131      -0.056379
     53 C                    -0.404979       0.084558
     54 H                     0.242298      -0.004922
     55 C                    -0.232280      -0.053010
     56 H                     0.249144       0.002549
     57 C                    -0.361504       0.077495
     58 H                     0.244667      -0.004527
     59 C                     0.060079       0.083322
     60 C                    -0.409803      -0.049249
     61 H                     0.225853       0.001819
     62 C                    -0.144926       0.052731
     63 B                     0.553350       0.289719
     64 C                    -0.142485       0.054054
     65 C                    -0.401999      -0.050273
     66 H                     0.228883       0.001869
     67 C                     0.056393       0.084235
     68 C                     0.075294       0.045512
     69 C                    -0.418191      -0.018349
     70 H                     0.216741      -0.000447
     71 C                    -0.141659       0.025195
     72 C                     0.175131      -0.055484
     73 C                    -0.405398       0.082926
     74 H                     0.242423      -0.004838
     75 C                    -0.232789      -0.051703
     76 H                     0.249056       0.002483
     77 C                    -0.360633       0.075741
     78 H                     0.244846      -0.004425
     79 C                    -0.078336       0.023147
     80 C                     0.220249      -0.037444
     81 C                     0.174360      -0.045198
     82 C                    -0.411922       0.070050
     83 H                     0.237534      -0.004096
     84 C                    -0.231199      -0.046056
     85 H                     0.247342       0.002247
     86 C                    -0.362656       0.064567
     87 H                     0.245423      -0.003737
     88 C                    -0.177077      -0.024432
     89 C                     0.027354       0.003196
     90 C                    -0.349850      -0.000829
     91 H                     0.243536       0.000364
     92 C                     0.276831       0.000762
     93 C                    -0.345903      -0.000861
     94 H                     0.244833       0.000337
     95 C                     0.020140       0.003277
     96 N                    -0.727150      -0.000040
     97 C                     0.337946       0.000013
     98 C                     0.341272       0.000015
     99 C                    -0.304444      -0.000000
    100 H                     0.257283      -0.000000
    101 C                    -0.265652       0.000001
    102 H                     0.245821       0.000000
    103 C                    -0.301650      -0.000003
    104 H                     0.258549       0.000004
    105 C                    -0.265698      -0.000000
    106 H                     0.245674       0.000000
    107 C                    -0.261376       0.000001
    108 H                     0.241841      -0.000000
    109 C                    -0.363968       0.000000
    110 H                     0.238168       0.000000
    111 C                     0.071691       0.000002
    112 C                    -0.261476      -0.000001
    113 H                     0.241834       0.000000
    114 C                    -0.363728       0.000002
    115 H                     0.238353       0.000000
    116 C                     0.070737      -0.000001
    117 C                    -0.761724       0.000483
    118 H                     0.244858       0.001534
    119 H                     0.246811      -0.000877
    120 H                     0.247926      -0.000674
    121 C                    -0.758818       0.000574
    122 H                     0.243596       0.001375
    123 H                     0.246056      -0.000628
    124 H                     0.246949      -0.000753
  --------------------------------------------------------
  Sum of atomic charges =    -0.000000

                    Cartesian Multipole Moments
 -----------------------------------------------------------------
    Charge (ESU x 10^10)
                -0.0000
    Dipole Moment (Debye)
         X      23.6000      Y       4.7239      Z      23.0319
       Tot      33.3128
    Quadrupole Moments (Debye-Ang)
        XX    -552.8794     XY     -30.1294     YY    -444.1159
        XZ    -133.1467     YZ     -23.3980     ZZ    -530.9816

 Total job time:  91352.81s(wall), 288222.31s(cpu)
        *  Thank you very much for using Q-Chem.  Have a nice day.  *
