 Q-Chem 5.0, Q-Chem, Inc., Pleasanton, CA (2017)
 Q-Chem 5.0.1 for Intel X86 EM64T Linux

User input:
--------------------------------------------------------------
$rem
threads 8
jobtype opt
method PBEh-3c
basis def2-mSVP
mem_static      1024
mem_total       8000
sym_ignore      true
unrestricted true
scf_algorithm	diis
scf_max_cycles	250
solvent_method  pcm
geom_opt_tol_energy 25
geom_opt_tol_gradient 75
$end

$pcm
theory  iefpcm
$end

$solvent
dielectric      2.38
$end

$molecule
read utLEincoords.mol
$end
--------------------------------------------------------------

   37   -2925.4479159484      9.80E-09 Convergence criterion met
 Total energy in the final basis set = -2925.44791595
   26   -2925.4629548347      8.00E-09 Convergence criterion met
 Total energy in the final basis set = -2925.46295483
   19   -2925.4653399654      8.52E-09 Convergence criterion met
 Total energy in the final basis set = -2925.46533997
   20   -2925.4661552302      7.96E-09 Convergence criterion met
 Total energy in the final basis set = -2925.46615523
   19   -2925.4665140899      6.64E-09 Convergence criterion met
 Total energy in the final basis set = -2925.46651409
   20   -2925.4666131439      7.22E-09 Convergence criterion met
 Total energy in the final basis set = -2925.46661314
   17   -2925.4666224069      6.73E-09 Convergence criterion met
 Total energy in the final basis set = -2925.46662241
   17   -2925.4665502739      8.22E-09 Convergence criterion met
   17   -2925.4665694966      6.98E-09 Convergence criterion met
 Total energy in the final basis set = -2925.46656950
   17   -2925.4665716315      7.33E-09 Convergence criterion met
 Total energy in the final basis set = -2925.46657163
   17   -2925.4665861887      6.36E-09 Convergence criterion met
 Total energy in the final basis set = -2925.46658619
   16   -2925.4665891212      9.92E-09 Convergence criterion met
 Total energy in the final basis set = -2925.46658912
   17   -2925.4665907557      9.80E-09 Convergence criterion met
 Total energy in the final basis set = -2925.46659076
   17   -2925.4665861436      7.31E-09 Convergence criterion met
 Total energy in the final basis set = -2925.46658614

             Standard Nuclear Orientation (Angstroms)
    I     Atom           X                Y                Z
 ----------------------------------------------------------------
    1      N      -0.1836419123    -0.0811967528     0.2258841473
    2      C      -0.4973835970     0.1638717424     1.5472570780
    3      C       1.1879733744    -0.0263767094     0.0842707593
    4      C      -1.7507060488     0.2456663866     2.1445468603
    5      H      -2.6589141832     0.0978804730     1.5750166990
    6      C      -1.7956936259     0.5277728499     3.4974702549
    7      H      -2.7570470714     0.5972457761     3.9900616920
    8      C       1.9547508549    -0.2144557664    -1.0599307257
    9      H       1.4977736749    -0.4353749644    -2.0157846370
   10      C       3.3275862369    -0.1065533668    -0.9325524729
   11      H       3.9506548243    -0.2449277967    -1.8066472787
   12      C       3.9254319248     0.1762314377     0.2998926060
   13      H       5.0024381725     0.2557463387     0.3636959844
   14      C       3.1541113800     0.3522079325     1.4342957897
   15      H       3.6213850866     0.5671732370     2.3871820497
   16      C       1.7703563726     0.2505749251     1.3330107981
   17      C      -0.6273733220     0.7275052888     4.2397258370
   18      H      -0.6988921338     0.9453563404     5.2969667426
   19      C       0.6136217176     0.6539808527     3.6337701380
   20      H       1.5155827398     0.8177527539     4.2098588021
   21      C       0.6864930917     0.3727015255     2.2729167281
   22      C      -1.1241540771    -0.2790649326    -0.8114825332
   23      C      -1.2034980202     0.6224005607    -1.8630738992
   24      H      -0.5353126666     1.4754117079    -1.8888722858
   25      C      -1.9849916349    -1.3658819649    -0.7663754745
   26      H      -1.9050054334    -2.0763183860     0.0479997935
   27      C      -2.9469289901    -1.5429121642    -1.7544218697
   28      C      -2.1469503450     0.4452952850    -2.8701971684
   29      C      -3.0401979940    -0.6319892940    -2.8158286023
   30      C      -3.8867055532    -2.7144210665    -1.6826625368
   31      H      -3.7029848864    -3.3276473660    -0.8007499594
   32      H      -4.9283181909    -2.3883800223    -1.6470643695
   33      H      -3.7878878766    -3.3581557666    -2.5587787072
   34      C      -2.2289607853     1.4281571725    -4.0042202402
   35      H      -1.4569107580     2.1936993274    -3.9332477772
   36      H      -3.1961861171     1.9348835700    -4.0228118346
   37      H      -2.1158552358     0.9306432658    -4.9695613067
   38      B      -4.1905079961    -0.8051031648    -3.8855524440
   39      C      -5.5374788557    -0.1080664395    -3.6630800185
   40      C      -5.7122642074     0.7446336698    -2.5552632748
   41      H      -4.8819513174     0.9154024770    -1.8795597676
   42      C      -6.9209389468     1.3484356685    -2.3269561093
   43      C      -7.3828920936     2.2477627868    -1.2873552000
   44      C      -6.8144754621     2.8378236674    -0.1830984801
   45      H      -5.7771106577     2.6754825515     0.0800802767
   46      C      -7.6195447286     3.6751879023     0.6183071239
   47      H      -7.1733663361     4.1416208705     1.4868043740
   48      C      -8.9475774876     3.9202007253     0.3402459869
   49      H      -9.5226317572     4.5689237610     0.9893139824
   50      C      -8.7425386699     2.5091269019    -1.5651359170
   51      C      -9.5604312299     3.3252062537    -0.7887151813
   52      C      -9.1820538659     1.8321874189    -2.7240357034
   53      C     -10.4918274065     1.9743494051    -3.1220052172
   54      H     -10.8794674839     1.4729652446    -3.9998653648
   55      C     -11.3391850780     2.7954813524    -2.3507901278
   56      H     -12.3705328877     2.9093264151    -2.6583785675
   57      C     -10.9030917580     3.4554601619    -1.2210873051
   58      H     -11.5933738080     4.0747304052    -0.6616700743
   59      C      -8.0426792218     1.0963723617    -3.2225684798
   60      C      -7.8941268188     0.2724726025    -4.3083357003
   61      H      -8.7299703833     0.0833344750    -4.9734596295
   62      C      -6.6566033681    -0.3398615804    -4.5677155367
   63      B      -6.4962116914    -1.2500964522    -5.7832759987
   64      C      -5.1258041821    -1.8773052206    -6.0484173692
   65      C      -4.9408211613    -2.6785039096    -7.1859272749
   66      H      -5.7602399905    -2.8152162330    -7.8825251675
   67      C      -3.7428089975    -3.3038022910    -7.4053829669
   68      C      -2.6452922605    -3.1597619726    -6.4591205387
   69      C      -2.7990762450    -2.3606191119    -5.3549810340
   70      H      -1.9854697135    -2.2383510686    -4.6487010137
   71      C      -4.0187145078    -1.6946712982    -5.1187819780
   72      C      -3.3140267842    -4.1927660866    -8.4596912680
   73      C      -3.8980777247    -4.6991284390    -9.5985137319
   74      H      -4.9078256986    -4.4360788226    -9.8878311455
   75      C      -3.1480578344    -5.5857510809   -10.3975410875
   76      H      -3.6026613445    -5.9848390574   -11.2948924843
   77      C      -1.8616349674    -5.9639652535   -10.0756640485
   78      H      -1.3261770219    -6.6516874658   -10.7184568407
   79      C      -1.9957975696    -4.5789055077    -8.1392814051
   80      C      -1.2399024768    -5.4597266396    -8.9082425864
   81      C      -1.5499646025    -3.9812032004    -6.9393438853
   82      C      -0.2860950632    -4.2855236142    -6.4909235034
   83      H       0.1106266228    -3.8653907758    -5.5756832774
   84      C       0.5016616876    -5.1754173396    -7.2518604589
   85      H       1.4952778620    -5.4157154880    -6.8972941782
   86      C       0.0563661815    -5.7507343841    -8.4227929055
   87      H       0.6992558131    -6.4296101870    -8.9692879520
   88      C      -7.7042961856    -1.6071293086    -6.7365781394
   89      C      -7.9778875888    -0.8527866697    -7.8851156205
   90      C      -8.9733893796    -1.2582934731    -8.7686621116
   91      H      -9.1589382948    -0.6965067947    -9.6770684596
   92      C      -9.7115094622    -2.4020426430    -8.5099752223
   93      C      -9.4741690474    -3.1345720307    -7.3570979875
   94      H     -10.0686981476    -4.0185167594    -7.1554589243
   95      C      -8.4720321114    -2.7515327151    -6.4751247760
   96      N     -10.6850596293    -2.8533577002    -9.4292890915
   97      C     -10.6356221184    -4.0614311228   -10.0926278223
   98      C     -11.8839897166    -2.2370280492    -9.7216243096
   99      C     -12.3933694353    -1.0299688345    -9.2588069336
  100      H     -11.8326397102    -0.4039650198    -8.5774555016
  101      C     -13.6523907130    -0.6569205141    -9.6969457944
  102      H     -14.0736030935     0.2784470497    -9.3519298981
  103      C      -9.6335267137    -5.0262348844   -10.1006279500
  104      H      -8.7231602366    -4.9015468492    -9.5294038725
  105      C      -9.8419930219    -6.1622425868   -10.8629861271
  106      H      -9.0786712749    -6.9294555077   -10.8831544005
  107      C     -11.0138172455    -6.3429752793   -11.6046370397
  108      H     -11.1432801214    -7.2451694201   -12.1876599752
  109      C     -12.0043665315    -5.3786360112   -11.5953465579
  110      H     -12.9122322143    -5.5179317135   -12.1694561861
  111      C     -11.8184722944    -4.2281923160   -10.8345810982
  112      C     -14.3941663891    -1.4602200237   -10.5690354334
  113      H     -15.3760558278    -1.1362800412   -10.8877784418
  114      C     -13.8845455154    -2.6636406874   -11.0201144952
  115      H     -14.4618752347    -3.2910382518   -11.6882721687
  116      C     -12.6206488390    -3.0598250301   -10.5947579325
  117      C      -8.2068620170    -3.5841414493    -5.2521480607
  118      H      -8.9175345410    -4.4056443394    -5.1663477695
  119      H      -8.2737062738    -2.9893179246    -4.3394723282
  120      H      -7.2038479833    -4.0158766371    -5.2757058348
  121      C      -7.1669167520     0.3743014824    -8.1917377798
  122      H      -7.4978113705     0.8553826054    -9.1117066869
  123      H      -7.2362537426     1.1097831361    -7.3881442560
  124      H      -6.1083649378     0.1317969745    -8.3072599146
 ----------------------------------------------------------------

   17   -2925.4665859069      6.86E-09 Convergence criterion met
 Total energy in the final basis set = -2925.46658591
 Final energy is   -2925.46658590686
 **  OPTIMIZATION CONVERGED  **

                    Orbital Energies (a.u.)
 --------------------------------------------------------------

 Alpha MOs
 -- Occupied --
-14.688 -14.688 -10.489 -10.489 -10.485 -10.485 -10.485 -10.485
-10.482 -10.481 -10.481 -10.480 -10.471 -10.471 -10.470 -10.470
-10.470 -10.469 -10.469 -10.469 -10.469 -10.468 -10.468 -10.467
-10.467 -10.467 -10.464 -10.463 -10.463 -10.463 -10.463 -10.463
-10.460 -10.459 -10.459 -10.458 -10.457 -10.457 -10.456 -10.456
-10.453 -10.453 -10.451 -10.451 -10.448 -10.448 -10.448 -10.448
-10.448 -10.447 -10.447 -10.447 -10.446 -10.446 -10.446 -10.446
-10.446 -10.445 -10.445 -10.445 -10.444 -10.444 -10.443 -10.443
-10.439 -10.439 -10.439 -10.439 -10.428 -10.428 -10.428 -10.427
-10.427 -10.426  -6.927  -6.926  -1.108  -1.108  -1.027  -1.027
 -0.975  -0.974  -0.970  -0.968  -0.950  -0.950  -0.945  -0.944
 -0.940  -0.940  -0.917  -0.908  -0.887  -0.886  -0.876  -0.876
 -0.869  -0.867  -0.854  -0.854  -0.852  -0.852  -0.845  -0.845
 -0.831  -0.822  -0.820  -0.813  -0.809  -0.808  -0.808  -0.807
 -0.771  -0.770  -0.768  -0.768  -0.742  -0.742  -0.737  -0.730
 -0.729  -0.727  -0.700  -0.696  -0.693  -0.686  -0.686  -0.686
 -0.683  -0.677  -0.655  -0.654  -0.654  -0.652  -0.646  -0.646
 -0.643  -0.642  -0.605  -0.600  -0.598  -0.595  -0.593  -0.592
 -0.589  -0.587  -0.586  -0.583  -0.582  -0.572  -0.572  -0.554
 -0.553  -0.551  -0.550  -0.545  -0.534  -0.532  -0.528  -0.522
 -0.519  -0.518  -0.518  -0.517  -0.510  -0.507  -0.502  -0.501
 -0.500  -0.499  -0.499  -0.498  -0.498  -0.497  -0.492  -0.490
 -0.490  -0.489  -0.486  -0.486  -0.485  -0.479  -0.478  -0.478
 -0.475  -0.474  -0.471  -0.471  -0.467  -0.466  -0.464  -0.463
 -0.463  -0.460  -0.448  -0.448  -0.447  -0.441  -0.440  -0.436
 -0.433  -0.429  -0.428  -0.423  -0.423  -0.423  -0.421  -0.415
 -0.414  -0.413  -0.405  -0.404  -0.404  -0.404  -0.404  -0.401
 -0.399  -0.397  -0.396  -0.395  -0.393  -0.391  -0.391  -0.390
 -0.386  -0.385  -0.374  -0.374  -0.363  -0.362  -0.355  -0.343
 -0.339  -0.331  -0.329  -0.329  -0.308  -0.305  -0.299  -0.298
 -0.298  -0.285  -0.282  -0.282  -0.281  -0.276  -0.276  -0.265
 -0.254  -0.253  -0.238  -0.237  -0.179

 Beta MOs
 -- Occupied --
-14.688 -14.688 -10.489 -10.489 -10.485 -10.485 -10.485 -10.485
-10.479 -10.478 -10.477 -10.477 -10.472 -10.472 -10.472 -10.471
-10.471 -10.470 -10.467 -10.467 -10.467 -10.467 -10.466 -10.465
-10.465 -10.465 -10.464 -10.464 -10.464 -10.464 -10.462 -10.462
-10.461 -10.461 -10.460 -10.459 -10.457 -10.456 -10.456 -10.456
-10.450 -10.450 -10.448 -10.448 -10.448 -10.448 -10.448 -10.448
-10.448 -10.447 -10.447 -10.447 -10.446 -10.446 -10.446 -10.446
-10.446 -10.445 -10.445 -10.445 -10.444 -10.444 -10.443 -10.443
-10.439 -10.439 -10.439 -10.439 -10.428 -10.428 -10.428 -10.427
-10.427 -10.426  -6.925  -6.924  -1.108  -1.108  -1.023  -1.023
 -0.974  -0.974  -0.965  -0.963  -0.950  -0.950  -0.944  -0.944
 -0.939  -0.939  -0.912  -0.904  -0.887  -0.886  -0.876  -0.876
 -0.867  -0.865  -0.853  -0.852  -0.851  -0.851  -0.845  -0.845
 -0.822  -0.820  -0.818  -0.809  -0.808  -0.807  -0.807  -0.802
 -0.771  -0.770  -0.768  -0.768  -0.740  -0.738  -0.734  -0.730
 -0.728  -0.725  -0.697  -0.695  -0.693  -0.686  -0.686  -0.684
 -0.679  -0.672  -0.654  -0.653  -0.653  -0.651  -0.646  -0.645
 -0.642  -0.641  -0.603  -0.597  -0.597  -0.593  -0.592  -0.592
 -0.588  -0.587  -0.586  -0.581  -0.580  -0.572  -0.572  -0.553
 -0.552  -0.550  -0.548  -0.544  -0.533  -0.531  -0.526  -0.521
 -0.519  -0.518  -0.517  -0.515  -0.508  -0.507  -0.501  -0.500
 -0.499  -0.499  -0.498  -0.498  -0.490  -0.490  -0.490  -0.488
 -0.488  -0.487  -0.486  -0.486  -0.484  -0.478  -0.478  -0.478
 -0.474  -0.474  -0.471  -0.470  -0.467  -0.466  -0.463  -0.463
 -0.463  -0.458  -0.447  -0.444  -0.441  -0.439  -0.434  -0.432
 -0.429  -0.423  -0.423  -0.423  -0.422  -0.421  -0.420  -0.414
 -0.414  -0.412  -0.405  -0.404  -0.403  -0.401  -0.400  -0.400
 -0.398  -0.396  -0.395  -0.395  -0.392  -0.391  -0.391  -0.389
 -0.383  -0.375  -0.374  -0.362  -0.361  -0.352  -0.344  -0.341
 -0.330  -0.329  -0.329  -0.325  -0.300  -0.299  -0.299  -0.298
 -0.285  -0.282  -0.281  -0.281  -0.266  -0.260  -0.255  -0.254
 -0.253  -0.238  -0.237

          Ground-State Mulliken Net Atomic Charges

     Atom                 Charge (a.u.)    Spin (a.u.)
  --------------------------------------------------------
      1 N                    -0.735157       0.000017
      2 C                     0.336045      -0.000004
      3 C                     0.340054      -0.000005
      4 C                    -0.291891       0.000004
      5 H                     0.247807       0.000000
      6 C                    -0.251936      -0.000001
      7 H                     0.231760       0.000000
      8 C                    -0.292112       0.000002
      9 H                     0.247553       0.000000
     10 C                    -0.251986      -0.000000
     11 H                     0.231917      -0.000000
     12 C                    -0.245610      -0.000000
     13 H                     0.229101      -0.000000
     14 C                    -0.356675       0.000001
     15 H                     0.222641      -0.000000
     16 C                     0.084217      -0.000002
     17 C                    -0.245296       0.000001
     18 H                     0.229001      -0.000000
     19 C                    -0.357531       0.000001
     20 H                     0.222488      -0.000000
     21 C                     0.090609      -0.000001
     22 C                     0.304456      -0.000047
     23 C                    -0.349691      -0.000292
     24 H                     0.243718       0.000268
     25 C                    -0.359665      -0.000196
     26 H                     0.244075       0.000259
     27 C                     0.036417       0.001791
     28 C                     0.041883       0.002018
     29 C                    -0.198464      -0.018235
     30 C                    -0.760685       0.001227
     31 H                     0.244813       0.001214
     32 H                     0.248501      -0.000826
     33 H                     0.247250      -0.000552
     34 C                    -0.755769       0.001062
     35 H                     0.243081       0.001087
     36 H                     0.247009      -0.000516
     37 H                     0.245982      -0.000635
     38 B                     0.604515       0.207694
     39 C                    -0.120986       0.224758
     40 C                    -0.392687      -0.141077
     41 H                     0.244300       0.005479
     42 C                     0.102696       0.232760
     43 C                     0.196214      -0.113309
     44 C                    -0.385708       0.132568
     45 H                     0.241050      -0.007802
     46 C                    -0.217755      -0.095729
     47 H                     0.247535       0.004651
     48 C                    -0.342614       0.140199
     49 H                     0.241932      -0.008106
     50 C                    -0.059254       0.140480
     51 C                     0.237727      -0.091969
     52 C                     0.190108      -0.113485
     53 C                    -0.378854       0.136768
     54 H                     0.239721      -0.008064
     55 C                    -0.218929      -0.097275
     56 H                     0.247469       0.004694
     57 C                    -0.339657       0.146668
     58 H                     0.242090      -0.008484
     59 C                     0.091444       0.236801
     60 C                    -0.391930      -0.140475
     61 H                     0.240846       0.005464
     62 C                    -0.126443       0.208697
     63 B                     0.604278       0.214181
     64 C                    -0.120826       0.215581
     65 C                    -0.384837      -0.143726
     66 H                     0.243914       0.005592
     67 C                     0.087234       0.240759
     68 C                     0.107434       0.237228
     69 C                    -0.399417      -0.143840
     70 H                     0.241771       0.005597
     71 C                    -0.126737       0.227461
     72 C                     0.193514      -0.115295
     73 C                    -0.379764       0.138847
     74 H                     0.240073      -0.008186
     75 C                    -0.219609      -0.098587
     76 H                     0.247899       0.004758
     77 C                    -0.339302       0.148229
     78 H                     0.242106      -0.008577
     79 C                    -0.059206       0.142962
     80 C                     0.238606      -0.093292
     81 C                     0.193150      -0.114609
     82 C                    -0.386251       0.134512
     83 H                     0.239976      -0.007932
     84 C                    -0.217382      -0.097121
     85 H                     0.247180       0.004717
     86 C                    -0.342451       0.142608
     87 H                     0.242136      -0.008240
     88 C                    -0.201250      -0.018614
     89 C                     0.040848       0.001924
     90 C                    -0.350343      -0.000123
     91 H                     0.241042       0.000283
     92 C                     0.297727      -0.000236
     93 C                    -0.348679      -0.000098
     94 H                     0.244209       0.000247
     95 C                     0.036292       0.001719
     96 N                    -0.733840       0.000017
     97 C                     0.338691      -0.000006
     98 C                     0.342674      -0.000007
     99 C                    -0.292804      -0.000002
    100 H                     0.245107       0.000000
    101 C                    -0.251116       0.000002
    102 H                     0.231395      -0.000000
    103 C                    -0.289947      -0.000001
    104 H                     0.245088       0.000001
    105 C                    -0.251155       0.000002
    106 H                     0.231229      -0.000000
    107 C                    -0.246089      -0.000003
    108 H                     0.229249       0.000000
    109 C                    -0.353586       0.000004
    110 H                     0.222489      -0.000000
    111 C                     0.083247      -0.000003
    112 C                    -0.245865      -0.000003
    113 H                     0.229108       0.000000
    114 C                    -0.353392       0.000003
    115 H                     0.222550      -0.000000
    116 C                     0.082496      -0.000003
    117 C                    -0.759689       0.001131
    118 H                     0.245059       0.001189
    119 H                     0.247400      -0.000696
    120 H                     0.247514      -0.000693
    121 C                    -0.755101       0.000876
    122 H                     0.242745       0.001066
    123 H                     0.245539      -0.000558
    124 H                     0.246934      -0.000589
  --------------------------------------------------------
  Sum of atomic charges =    -0.000000

                    Cartesian Multipole Moments
 -----------------------------------------------------------------
    Charge (ESU x 10^10)
                -0.0000
    Dipole Moment (Debye)
         X      -0.0094      Y       0.3649      Z      -0.2293
       Tot       0.4310
    Quadrupole Moments (Debye-Ang)
        XX    -411.8736     XY     -39.7426     YY    -407.0943
        XZ     -38.9285     YZ      28.6854     ZZ    -419.5393

 Total job time:  49778.23s(wall), 161031.70s(cpu)
        *  Thank you very much for using Q-Chem.  Have a nice day.  *
