 Q-Chem 5.0, Q-Chem, Inc., Pleasanton, CA (2017)
 Q-Chem 5.0.1 for Intel X86 EM64T Linux

User input:
--------------------------------------------------------------
$rem
threads 8
jobtype opt
method PBEh-3c
basis def2-mSVP
mem_static      1024
mem_total       8000
sym_ignore      true
unrestricted true
scf_algorithm   diis
scf_max_cycles  250
solvent_method  pcm
geom_opt_tol_energy 25
geom_opt_tol_gradient 75
$end

$pcm
theory  iefpcm
$end

$solvent
dielectric      1.0001
$end

$molecule
read utLEincoords.mol
$end

--------------------------------------------------------------

   30   -2925.4487622476      7.10E-09 Convergence criterion met
 Total energy in the final basis set = -2925.44876225
   21   -2925.4492708531      6.32E-09 Convergence criterion met
 Total energy in the final basis set = -2925.44927085
   20   -2925.4486528811      8.69E-09 Convergence criterion met
 Total energy in the final basis set = -2925.44865288
   20   -2925.4489127195      9.77E-09 Convergence criterion met
 Total energy in the final basis set = -2925.44891272
   17   -2925.4489937455      7.02E-09 Convergence criterion met
 Total energy in the final basis set = -2925.44899375
   16   -2925.4490017013      8.01E-09 Convergence criterion met
 Total energy in the final basis set = -2925.44900170
   15   -2925.4489204336      8.38E-09 Convergence criterion met
 Total energy in the final basis set = -2925.44892043
   15   -2925.4489586075      8.31E-09 Convergence criterion met
 Total energy in the final basis set = -2925.44895861
   14   -2925.4489641042      8.55E-09 Convergence criterion met
 Total energy in the final basis set = -2925.44896410
   14   -2925.4489780343      7.32E-09 Convergence criterion met
 Total energy in the final basis set = -2925.44897803
   17   -2925.4489935425      6.86E-09 Convergence criterion met
 Total energy in the final basis set = -2925.44899354
   12   -2925.4489970686      9.92E-09 Convergence criterion met
 Total energy in the final basis set = -2925.44899707
   13   -2925.4489924488      5.96E-09 Convergence criterion met
 Total energy in the final basis set = -2925.44899245

             Standard Nuclear Orientation (Angstroms)
    I     Atom           X                Y                Z
 ----------------------------------------------------------------
    1      N      -0.1846805968    -0.0896847140     0.2270783082
    2      C      -0.5029015778     0.1381062105     1.5511798508
    3      C       1.1860809250    -0.0058951528     0.0858453203
    4      C      -1.7566761578     0.1913556014     2.1492825485
    5      H      -2.6614406687     0.0306365942     1.5780264142
    6      C      -1.8068241297     0.4631383324     3.5035958327
    7      H      -2.7690053982     0.5104172980     3.9969204231
    8      C       1.9560473093    -0.1694470634    -1.0591582836
    9      H       1.5025616889    -0.3932989995    -2.0158012835
   10      C       3.3259392272    -0.0347735522    -0.9312234113
   11      H       3.9515504447    -0.1536416977    -1.8062025446
   12      C       3.9176368728     0.2498554346     0.3026470242
   13      H       4.9926059287     0.3507739315     0.3673364005
   14      C       3.1430520491     0.4005795248     1.4377044554
   15      H       3.6064346182     0.6167000824     2.3920339320
   16      C       1.7622908194     0.2721554319     1.3364274976
   17      C      -0.6430898286     0.6804935566     4.2462152206
   18      H      -0.7179873361     0.8898266799     5.3047470696
   19      C       0.5980637939     0.6351873022     3.6391529633
   20      H       1.4965203282     0.8128297895     4.2163077176
   21      C       0.6766838144     0.3647934349     2.2772479284
   22      C      -1.1206521169    -0.2881681236    -0.8120746352
   23      C      -1.1991703027     0.6126731073    -1.8642842873
   24      H      -0.5319858115     1.4664084884    -1.8869698887
   25      C      -1.9813703402    -1.3751436382    -0.7706258410
   26      H      -1.9006674307    -2.0860330805     0.0430964316
   27      C      -2.9415700158    -1.5520257775    -1.7596245863
   28      C      -2.1399616756     0.4355376299    -2.8730657288
   29      C      -3.0334631441    -0.6411742068    -2.8207453030
   30      C      -3.8826360970    -2.7226222364    -1.6900917686
   31      H      -3.6985678974    -3.3395445188    -0.8108556452
   32      H      -4.9236903844    -2.3953299063    -1.6509387064
   33      H      -3.7868670457    -3.3638299560    -2.5683153695
   34      C      -2.2213950462     1.4182392740    -4.0072937148
   35      H      -1.4496276107     2.1840646665    -3.9366799267
   36      H      -3.1884760101     1.9251188744    -4.0270030453
   37      H      -2.1074856460     0.9208277892    -4.9725132793
   38      B      -4.1841950025    -0.8114384279    -3.8895332781
   39      C      -5.5307965201    -0.1150677416    -3.6628535468
   40      C      -5.7043048844     0.7317069511    -2.5507546142
   41      H      -4.8717634768     0.8967147416    -1.8762432533
   42      C      -6.9125345774     1.3340662681    -2.3179564129
   43      C      -7.3736629298     2.2274632506    -1.2730867492
   44      C      -6.8046024698     2.8118225602    -0.1666447363
   45      H      -5.7669303850     2.6485800852     0.0943052783
   46      C      -7.6083869705     3.6441172915     0.6402264596
   47      H      -7.1613164954     4.1058968340     1.5106249871
   48      C      -8.9362957875     3.8899902324     0.3654093811
   49      H      -9.5101917661     4.5349038057     1.0191302710
   50      C      -8.7335610890     2.4900179286    -1.5472217413
   51      C      -9.5506487625     3.3013775596    -0.7653762041
   52      C      -9.1739389908     1.8192014579    -2.7089731595
   53      C     -10.4840580942     1.9629380853    -3.1036290892
   54      H     -10.8727621523     1.4658161147    -3.9833009398
   55      C     -11.3306001877     2.7790940681    -2.3273066411
   56      H     -12.3624118626     2.8939915502    -2.6326590165
   57      C     -10.8933671305     3.4330221587    -1.1953093049
   58      H     -11.5834760674     4.0487867830    -0.6319749793
   59      C      -8.0351471046     1.0866195678    -3.2133561583
   60      C      -7.8876033894     0.2686886641    -4.3032928730
   61      H      -8.7223950958     0.0804420227    -4.9700901546
   62      C      -6.6505683787    -0.3422183034    -4.5670039125
   63      B      -6.4926696527    -1.2479451991    -5.7861137574
   64      C      -5.1239164012    -1.8777457346    -6.0529722702
   65      C      -4.9425257525    -2.6791014167    -7.1905701484
   66      H      -5.7653632236    -2.8132836281    -7.8837119243
   67      C      -3.7463502944    -3.3063024781    -7.4122290556
   68      C      -2.6467301291    -3.1641651048    -6.4684673900
   69      C      -2.7974134268    -2.3655021329    -5.3638999104
   70      H      -1.9843173867    -2.2428236871    -4.6570172636
   71      C      -4.0154876410    -1.6981605805    -5.1250945065
   72      C      -3.3212967448    -4.1959568371    -8.4672318394
   73      C      -3.9084635810    -4.7016210488    -9.6042379901
   74      H      -4.9183652986    -4.4369918490    -9.8911331946
   75      C      -3.1624507480    -5.5893058528   -10.4047714428
   76      H      -3.6199553793    -5.9878844412   -11.3007525605
   77      C      -1.8764234883    -5.9693403068   -10.0861730195
   78      H      -1.3441864445    -6.6580940154   -10.7303970901
   79      C      -2.0032119514    -4.5843477648    -8.1503283503
   80      C      -1.2507877054    -5.4663993113    -8.9209522199
   81      C      -1.5541051690    -3.9874383117    -6.9515193881
   82      C      -0.2901031467    -4.2944490739    -6.5065900349
   83      H       0.1094571044    -3.8755404943    -5.5921751489
   84      C       0.4942549062    -5.1852123137    -7.2689212656
   85      H       1.4881316236    -5.4274366132    -6.9166647219
   86      C       0.0455058984    -5.7593196173    -8.4383952192
   87      H       0.6862571198    -6.4392014610    -8.9859922425
   88      C      -7.7014235789    -1.5995317239    -6.7396024454
   89      C      -7.9718409062    -0.8450246428    -7.8883438394
   90      C      -8.9667249780    -1.2481267923    -8.7728750176
   91      H      -9.1482908822    -0.6881194627    -9.6830246595
   92      C      -9.7094638078    -2.3892538997    -8.5159864971
   93      C      -9.4752143231    -3.1205737410    -7.3617306267
   94      H     -10.0744975791    -4.0011348976    -7.1602448814
   95      C      -8.4730422531    -2.7412134090    -6.4792562351
   96      N     -10.6820475127    -2.8376863562    -9.4350773334
   97      C     -10.6530677292    -4.0613043635   -10.0718309672
   98      C     -11.8645580526    -2.2013709411    -9.7537044505
   99      C     -12.3521078263    -0.9746241338    -9.3224764611
  100      H     -11.7841956522    -0.3469826665    -8.6488759361
  101      C     -13.5984026961    -0.5848577877    -9.7802999417
  102      H     -14.0027441890     0.3663857099    -9.4598609540
  103      C      -9.6723987907    -5.0468760383   -10.0506655531
  104      H      -8.7646701127    -4.9284227981    -9.4741820412
  105      C      -9.8983173216    -6.1939478359   -10.7901481989
  106      H      -9.1516854033    -6.9774978713   -10.7869347131
  107      C     -11.0664267720    -6.3652908863   -11.5379642628
  108      H     -11.2105288054    -7.2765513373   -12.1028249633
  109      C     -12.0349672219    -5.3798826092   -11.5582026586
  110      H     -12.9401092374    -5.5121038211   -12.1379573566
  111      C     -11.8318197674    -4.2179330589   -10.8210661379
  112      C     -14.3487092672    -1.3909283180   -10.6409129608
  113      H     -15.3204172466    -1.0537273801   -10.9760192900
  114      C     -13.8606049721    -2.6138870446   -11.0601675980
  115      H     -14.4453495552    -3.2433876489   -11.7195533202
  116      C     -12.6100178370    -3.0274355359   -10.6150868203
  117      C      -8.2112331515    -3.5739647797    -5.2557078517
  118      H      -8.9239618908    -4.3936589507    -5.1696555711
  119      H      -8.2775460139    -2.9789255562    -4.3432170070
  120      H      -7.2095124888    -4.0086227887    -5.2779728873
  121      C      -7.1556883696     0.3790170650    -8.1936478764
  122      H      -7.4845371544     0.8636999423    -9.1124498143
  123      H      -7.2209933405     1.1136927550    -7.3890645548
  124      H      -6.0982605981     0.1324610447    -8.3104303390
 ----------------------------------------------------------------

   12   -2925.4489901270      7.12E-09 Convergence criterion met
 Total energy in the final basis set = -2925.44899013
 Final energy is   -2925.44899012698
 **  OPTIMIZATION CONVERGED  **

                    Orbital Energies (a.u.)
 --------------------------------------------------------------

 Alpha MOs
 -- Occupied --
-14.685 -14.685 -10.489 -10.488 -10.484 -10.483 -10.483 -10.482
-10.482 -10.481 -10.481 -10.481 -10.474 -10.474 -10.474 -10.474
-10.473 -10.473 -10.473 -10.472 -10.472 -10.472 -10.472 -10.472
-10.471 -10.471 -10.468 -10.468 -10.468 -10.468 -10.467 -10.466
-10.463 -10.461 -10.461 -10.460 -10.458 -10.457 -10.457 -10.457
-10.455 -10.455 -10.453 -10.453 -10.445 -10.445 -10.444 -10.444
-10.444 -10.444 -10.444 -10.443 -10.443 -10.443 -10.443 -10.443
-10.443 -10.443 -10.443 -10.443 -10.443 -10.442 -10.442 -10.442
-10.436 -10.436 -10.436 -10.435 -10.431 -10.431 -10.430 -10.430
-10.427 -10.426  -6.928  -6.927  -1.105  -1.105  -1.030  -1.029
 -0.975  -0.973  -0.971  -0.971  -0.947  -0.947  -0.944  -0.944
 -0.943  -0.942  -0.920  -0.911  -0.885  -0.884  -0.877  -0.877
 -0.871  -0.870  -0.858  -0.858  -0.851  -0.850  -0.842  -0.842
 -0.834  -0.825  -0.823  -0.816  -0.806  -0.806  -0.806  -0.805
 -0.773  -0.772  -0.769  -0.769  -0.746  -0.745  -0.741  -0.731
 -0.728  -0.727  -0.700  -0.700  -0.692  -0.690  -0.684  -0.683
 -0.683  -0.681  -0.657  -0.655  -0.653  -0.652  -0.646  -0.645
 -0.642  -0.640  -0.609  -0.604  -0.602  -0.600  -0.593  -0.592
 -0.591  -0.587  -0.586  -0.584  -0.584  -0.571  -0.570  -0.554
 -0.554  -0.553  -0.553  -0.546  -0.538  -0.535  -0.529  -0.520
 -0.520  -0.517  -0.516  -0.516  -0.513  -0.510  -0.505  -0.503
 -0.501  -0.500  -0.498  -0.497  -0.497  -0.496  -0.494  -0.493
 -0.490  -0.487  -0.487  -0.483  -0.483  -0.481  -0.478  -0.477
 -0.477  -0.476  -0.476  -0.473  -0.470  -0.469  -0.466  -0.464
 -0.464  -0.463  -0.453  -0.450  -0.450  -0.444  -0.442  -0.438
 -0.436  -0.431  -0.429  -0.423  -0.421  -0.421  -0.419  -0.416
 -0.410  -0.409  -0.409  -0.408  -0.407  -0.406  -0.405  -0.404
 -0.403  -0.400  -0.396  -0.395  -0.392  -0.391  -0.389  -0.388
 -0.387  -0.387  -0.372  -0.371  -0.364  -0.364  -0.357  -0.344
 -0.341  -0.333  -0.325  -0.325  -0.311  -0.308  -0.300  -0.295
 -0.294  -0.285  -0.282  -0.282  -0.281  -0.279  -0.278  -0.268
 -0.249  -0.249  -0.234  -0.233  -0.181

 Beta MOs
 -- Occupied --
-14.685 -14.685 -10.489 -10.488 -10.482 -10.481 -10.481 -10.481
-10.481 -10.480 -10.479 -10.479 -10.476 -10.476 -10.475 -10.474
-10.474 -10.473 -10.471 -10.471 -10.471 -10.471 -10.470 -10.470
-10.470 -10.470 -10.469 -10.469 -10.469 -10.469 -10.464 -10.464
-10.464 -10.463 -10.463 -10.462 -10.457 -10.457 -10.457 -10.457
-10.452 -10.451 -10.450 -10.450 -10.445 -10.445 -10.444 -10.444
-10.444 -10.444 -10.444 -10.443 -10.443 -10.443 -10.443 -10.443
-10.443 -10.443 -10.443 -10.443 -10.443 -10.442 -10.442 -10.442
-10.436 -10.436 -10.436 -10.435 -10.431 -10.431 -10.430 -10.430
-10.427 -10.426  -6.927  -6.926  -1.105  -1.105  -1.026  -1.026
 -0.973  -0.973  -0.968  -0.966  -0.947  -0.947  -0.943  -0.943
 -0.942  -0.942  -0.915  -0.907  -0.885  -0.884  -0.877  -0.877
 -0.869  -0.868  -0.856  -0.856  -0.850  -0.850  -0.842  -0.842
 -0.824  -0.823  -0.822  -0.806  -0.806  -0.805  -0.805  -0.805
 -0.772  -0.771  -0.769  -0.769  -0.743  -0.741  -0.738  -0.728
 -0.728  -0.727  -0.698  -0.697  -0.692  -0.688  -0.684  -0.683
 -0.680  -0.676  -0.656  -0.654  -0.652  -0.652  -0.645  -0.645
 -0.641  -0.640  -0.606  -0.602  -0.600  -0.597  -0.593  -0.592
 -0.591  -0.585  -0.584  -0.584  -0.584  -0.570  -0.570  -0.553
 -0.552  -0.552  -0.551  -0.545  -0.537  -0.534  -0.527  -0.520
 -0.518  -0.517  -0.516  -0.516  -0.512  -0.510  -0.503  -0.502
 -0.498  -0.497  -0.497  -0.496  -0.493  -0.492  -0.491  -0.490
 -0.489  -0.487  -0.487  -0.483  -0.483  -0.480  -0.478  -0.477
 -0.476  -0.475  -0.475  -0.472  -0.469  -0.469  -0.465  -0.464
 -0.464  -0.462  -0.452  -0.447  -0.444  -0.442  -0.436  -0.435
 -0.430  -0.425  -0.422  -0.422  -0.421  -0.421  -0.419  -0.415
 -0.409  -0.409  -0.409  -0.405  -0.405  -0.404  -0.403  -0.403
 -0.401  -0.398  -0.395  -0.394  -0.391  -0.391  -0.388  -0.387
 -0.385  -0.373  -0.371  -0.364  -0.362  -0.354  -0.346  -0.342
 -0.332  -0.327  -0.325  -0.325  -0.303  -0.303  -0.295  -0.294
 -0.284  -0.282  -0.281  -0.281  -0.269  -0.263  -0.257  -0.249
 -0.249  -0.234  -0.233

          Ground-State Mulliken Net Atomic Charges

     Atom                 Charge (a.u.)    Spin (a.u.)
  --------------------------------------------------------
      1 N                    -0.740068       0.000022
      2 C                     0.338369      -0.000005
      3 C                     0.342778      -0.000006
      4 C                    -0.281232       0.000005
      5 H                     0.235224       0.000000
      6 C                    -0.236887      -0.000001
      7 H                     0.215045       0.000000
      8 C                    -0.281277       0.000003
      9 H                     0.235059       0.000000
     10 C                    -0.236880      -0.000001
     11 H                     0.215405       0.000000
     12 C                    -0.228344       0.000001
     13 H                     0.213829      -0.000000
     14 C                    -0.345759       0.000001
     15 H                     0.204949      -0.000000
     16 C                     0.095235      -0.000002
     17 C                    -0.228022       0.000002
     18 H                     0.213650      -0.000000
     19 C                    -0.346819       0.000001
     20 H                     0.204847      -0.000000
     21 C                     0.102330      -0.000001
     22 C                     0.312994      -0.000070
     23 C                    -0.343639      -0.000284
     24 H                     0.233646       0.000268
     25 C                    -0.354550      -0.000178
     26 H                     0.233791       0.000259
     27 C                     0.043160       0.001753
     28 C                     0.048054       0.001975
     29 C                    -0.202006      -0.018033
     30 C                    -0.753774       0.001262
     31 H                     0.237565       0.001217
     32 H                     0.245401      -0.000817
     33 H                     0.244267      -0.000562
     34 C                    -0.748680       0.001110
     35 H                     0.235952       0.001090
     36 H                     0.243869      -0.000523
     37 H                     0.242624      -0.000629
     38 B                     0.609188       0.205554
     39 C                    -0.120719       0.225904
     40 C                    -0.389882      -0.142823
     41 H                     0.237975       0.005602
     42 C                     0.109430       0.233791
     43 C                     0.203834      -0.114049
     44 C                    -0.379873       0.133957
     45 H                     0.225746      -0.007960
     46 C                    -0.203222      -0.096396
     47 H                     0.232537       0.004735
     48 C                    -0.335542       0.141207
     49 H                     0.224777      -0.008272
     50 C                    -0.059700       0.140445
     51 C                     0.252030      -0.092482
     52 C                     0.197434      -0.114376
     53 C                    -0.372555       0.137937
     54 H                     0.223356      -0.008218
     55 C                    -0.204501      -0.097855
     56 H                     0.232005       0.004780
     57 C                    -0.332534       0.147185
     58 H                     0.224869      -0.008627
     59 C                     0.098348       0.237665
     60 C                    -0.389235      -0.142345
     61 H                     0.233219       0.005599
     62 C                    -0.125979       0.210819
     63 B                     0.608760       0.211978
     64 C                    -0.120409       0.217000
     65 C                    -0.382093      -0.145428
     66 H                     0.237535       0.005714
     67 C                     0.093572       0.241565
     68 C                     0.114617       0.238168
     69 C                    -0.397085      -0.145699
     70 H                     0.234247       0.005733
     71 C                    -0.126305       0.229186
     72 C                     0.200906      -0.116153
     73 C                    -0.373696       0.140229
     74 H                     0.224786      -0.008347
     75 C                    -0.205297      -0.099274
     76 H                     0.232899       0.004846
     77 C                    -0.332171       0.149045
     78 H                     0.224895      -0.008739
     79 C                    -0.059694       0.142848
     80 C                     0.252859      -0.093837
     81 C                     0.200654      -0.115432
     82 C                    -0.380268       0.135905
     83 H                     0.223609      -0.008098
     84 C                    -0.202747      -0.097813
     85 H                     0.231805       0.004806
     86 C                    -0.335465       0.143489
     87 H                     0.224963      -0.008401
     88 C                    -0.205002      -0.018415
     89 C                     0.046749       0.001897
     90 C                    -0.344819      -0.000133
     91 H                     0.230159       0.000283
     92 C                     0.306960      -0.000238
     93 C                    -0.343468      -0.000090
     94 H                     0.234451       0.000248
     95 C                     0.043457       0.001699
     96 N                    -0.738718       0.000018
     97 C                     0.340851      -0.000006
     98 C                     0.345113      -0.000007
     99 C                    -0.281133      -0.000001
    100 H                     0.231940       0.000000
    101 C                    -0.235786       0.000002
    102 H                     0.214895      -0.000000
    103 C                    -0.278841      -0.000001
    104 H                     0.232042       0.000001
    105 C                    -0.235878       0.000002
    106 H                     0.214523      -0.000000
    107 C                    -0.228851      -0.000003
    108 H                     0.213863       0.000000
    109 C                    -0.342593       0.000004
    110 H                     0.204701      -0.000000
    111 C                     0.094503      -0.000003
    112 C                    -0.228773      -0.000003
    113 H                     0.213847       0.000000
    114 C                    -0.342270       0.000003
    115 H                     0.204691      -0.000000
    116 C                     0.093768      -0.000003
    117 C                    -0.752776       0.001163
    118 H                     0.237877       0.001192
    119 H                     0.244379      -0.000692
    120 H                     0.244547      -0.000695
    121 C                    -0.747841       0.000928
    122 H                     0.235549       0.001067
    123 H                     0.242163      -0.000560
    124 H                     0.243728      -0.000583
  --------------------------------------------------------
  Sum of atomic charges =    -0.000000

                    Cartesian Multipole Moments
 -----------------------------------------------------------------
    Charge (ESU x 10^10)
                -0.0000
    Dipole Moment (Debye)
         X      -0.0066      Y       0.3313      Z      -0.1966
       Tot       0.3853
    Quadrupole Moments (Debye-Ang)
        XX    -416.1327     XY     -35.0821     YY    -411.6968
        XZ     -34.6644     YZ      25.5079     ZZ    -422.9306

 Total job time:  50875.46s(wall), 153881.61s(cpu)
        *  Thank you very much for using Q-Chem.  Have a nice day.  *
