 Q-Chem 5.0, Q-Chem, Inc., Pleasanton, CA (2017)
 Q-Chem 5.0.1 for Intel X86 EM64T Linux

User input:
--------------------------------------------------------------
$solvent
dielectric      4.33
dielectric_infi 1.83
$end

$rem
threads 8
jobtype	sp
method PBEh-3c
basis def2-mSVP
mem_static	1024
mem_total	14000
sym_ignore	true
cis_n_roots             2
cis_singlets            true
cis_triplets		false
rpa                     false
calc_soc 		true
cis_moments             true
cis_relaxed_density	true
solvent_method		pcm
$end

$pcm
StateSpecific   1
ChargeSeparation Excited
$end

$molecule
read moms1opt_eth.mol
$end

--------------------------------------------------------------

   14   -2123.3956197819      7.28E-09 Convergence criterion met
 Total energy in the final basis set = -2123.39561978
 Total job time:  6525.93s(wall), 16267.12s(cpu)
        *  Thank you very much for using Q-Chem.  Have a nice day.  *
 Q-Chem 5.0, Q-Chem, Inc., Pleasanton, CA (2017)
 Q-Chem 5.0.1 for Intel X86 EM64T Linux

User input:
--------------------------------------------------------------
$rem
threads 8
jobtype sp
method PBEh-3c
basis def2-mSVP
mem_static      1024
mem_total       14000
sym_ignore      true
cis_n_roots             6
cis_singlets            true
cis_triplets            true
rpa                     false
calc_soc                true
cis_moments             true
cis_relaxed_density     true
solvent_method          pcm
$end

$molecule
read
$end

$pcm
statespecific           Marcus
$end

$solvent
dielectric      4.33
dielectric_infi 1.83
$end

--------------------------------------------------------------

             Standard Nuclear Orientation (Angstroms)
    I     Atom           X                Y                Z
 ----------------------------------------------------------------
    1      C       0.0000000000     0.0000000000     0.0000000000
    2      C       0.0000000000     0.0000000000     1.4054750000
    3      H       0.9441564613     0.0000000000     1.9405342384
    4      C      -1.1802743572    -0.0010320851     2.1051197414
    5      C      -2.4328698884    -0.0036833537     1.4221605903
    6      C      -2.4572127133    -0.0023220846     0.0489580111
    7      H      -3.4127229632    -0.0071692811    -0.4674747862
    8      C      -1.2505442285    -0.0001560891    -0.6937819204
    9      C      -1.4356170947    -0.0042281752     3.5389809015
   10      C      -0.6492061054    -0.0028864659     4.6651606027
   11      H       0.4324000793     0.0033711230     4.6065519498
   12      C      -2.8357048753    -0.0101883510     3.6904785100
   13      C      -3.4814575211    -0.0159699429     4.9253215878
   14      C      -3.4898109046    -0.0099777606     2.4408400553
   15      C      -4.8622289311    -0.0162497583     2.4356955405
   16      H      -5.4306282300    -0.0166596621     1.5139070029
   17      C      -1.2803734327    -0.0083006915     5.9306982698
   18      H      -0.6594703548    -0.0068672441     6.8178384013
   19      C      -2.6494037984    -0.0149737117     6.0730257414
   20      H      -3.0907120896    -0.0191991229     7.0624020738
   21      C      -4.8958120698    -0.0224175374     4.8867901674
   22      H      -5.4644554069    -0.0270587924     5.8089312116
   23      C      -5.5477321160    -0.0225687494     3.6744226194
   24      H      -6.6302329132    -0.0275214505     3.6629424119
   25      B      -1.2439510951     0.0022447273    -2.2199497908
   26      C       0.0585494310    -0.0137521958    -3.0169081418
   27      C       0.0697915777    -0.0247858777    -4.4332805517
   28      H      -0.8672531451    -0.0331461954    -4.9828623319
   29      C       1.2575245686    -0.0293729025    -5.1238088240
   30      C       2.4910063718    -0.0235096696    -4.4069994819
   31      C       2.5024170797    -0.0174448017    -3.0337962825
   32      H       3.4475455711    -0.0163107244    -2.5002414678
   33      C       1.3000507750    -0.0122264562    -2.3052182307
   34      C       3.5834140146    -0.0276897463    -5.3693848132
   35      C       4.9535035728    -0.0225952713    -5.2788044784
   36      H       5.4626729052    -0.0130723707    -4.3227257851
   37      C       2.9867638201    -0.0374411715    -6.6452307632
   38      C       3.7061089555    -0.0436245442    -7.8369377566
   39      C       1.5791145990    -0.0393957448    -6.5537967944
   40      C       0.8589048198    -0.0490797219    -7.7211743988
   41      H      -0.2240804630    -0.0513998758    -7.7248483739
   42      C       5.7077233661    -0.0281606726    -6.4745336199
   43      H       6.7882075942    -0.0235124482    -6.4041838770
   44      C       5.1189858768    -0.0387363161    -7.7190369259
   45      H       5.7372492413    -0.0426606493    -8.6084923269
   46      C       2.9356836993    -0.0535068282    -9.0242176965
   47      H       3.4260419934    -0.0586994549    -9.9900595672
   48      C       1.5609252922    -0.0561809244    -8.9504074506
   49      H       0.9884942828    -0.0637027334    -9.8691710423
   50      B       1.3279139197    -0.0103373316    -0.7698131811
   51      C      -2.6178913536     0.0364903501    -2.9900682784
   52      C      -3.2934057612    -1.1581717418    -3.3469313648
   53      C      -2.7631500970    -2.4106625616    -2.9986169825
   54      H      -1.8312451234    -2.4612502337    -2.4488096667
   55      C      -3.4209114539    -3.5831936289    -3.3493827428
   56      H      -2.9978469750    -4.5385332811    -3.0709744157
   57      C      -4.6137458154    -3.5285972013    -4.0549370031
   58      H      -5.1230298779    -4.4423858435    -4.3293437856
   59      C      -5.1608259472    -2.2997993514    -4.4127662702
   60      H      -6.0925124843    -2.2625027579    -4.9635481624
   61      C      -4.5150779084    -1.1125956840    -4.0651893492
   62      C      -5.0484229732     0.1504253542    -4.4122801819
   63      H      -5.9805948529     0.1958920895    -4.9619799099
   64      C      -4.3999740879     1.3213252018    -4.0559699708
   65      H      -4.8341910864     2.2733895389    -4.3318860136
   66      C      -3.2040976835     1.2904957167    -3.3507452767
   67      C      -2.5121658770     2.5495522110    -2.9611643014
   68      H      -3.0615029117     3.4325641596    -3.2809837519
   69      H      -2.3777555153     2.5927418701    -1.8780162763
   70      H      -1.5094063985     2.5854710116    -3.3930653393
   71      C       2.6992484978    -0.0390252238     0.0238664981
   72      C       3.2725092531    -1.2435849628     0.3870194895
   73      C       4.4773763990    -1.2655164294     1.1259318587
   74      H       4.9068881672    -2.2224573357     1.4005090752
   75      C       5.1052058690    -0.1121426781     1.5019861044
   76      H       6.0275581175    -0.1478073523     2.0702125230
   77      C       4.5567238104     1.1394843426     1.1525028953
   78      C       5.1781456257     2.3539497278     1.5261831937
   79      H       6.1004082587     2.3148573637     2.0947453824
   80      C       4.6306858678     3.5572875055     1.1791212625
   81      H       5.1140273512     4.4810147424     1.4705271946
   82      C       3.4318733794     3.5963058545     0.4382441600
   83      H       3.0019676804     4.5512872395     0.1644934706
   84      C       2.8116418747     2.4358206034     0.0651035440
   85      H       1.8902326947     2.4802503326    -0.5039410959
   86      C       3.3484462085     1.1692730920     0.4070802377
   87      C       2.6197421858    -2.5466305002     0.0156310948
   88      H       3.2167659759    -3.4013369143     0.3345694446
   89      H       2.4744555150    -2.6280006487    -1.0632424944
   90      H       1.6339832280    -2.6425290974     0.4760383478
 ----------------------------------------------------------------

   14   -2123.3888936537      8.37E-09 Convergence criterion met
 Total energy in the final basis set = -2123.38889365

         TDDFT/TDA Excitation Energies
 ---------------------------------------------------

 Excited state   1: excitation energy (eV) =    2.0988
 Total energy for state  1:                 -2123.31176552 au
    Multiplicity: Triplet
    Trans. Mom.:  0.0000 X   0.0000 Y   0.0000 Z
    Strength   :     0.0000000000
    D(184) --> V(  1) amplitude =  0.9582

 Excited state   2: excitation energy (eV) =    2.1288
 Total energy for state  2:                 -2123.31066346 au
    Multiplicity: Singlet
    Trans. Mom.: -0.0980 X  -0.0065 Y   0.1950 Z
    Strength   :     0.0024865169
    D(184) --> V(  1) amplitude =  0.9799

 Excited state   3: excitation energy (eV) =    2.2141
 Total energy for state  3:                 -2123.30752639 au
    Multiplicity: Triplet
    Trans. Mom.:  0.0000 X   0.0000 Y   0.0000 Z
    Strength   :     0.0000000000
    D(177) --> V(  2) amplitude = -0.2315
    D(181) --> V(  1) amplitude =  0.8174
    D(182) --> V(  1) amplitude = -0.3882

 Excited state   4: excitation energy (eV) =    2.4191
 Total energy for state  4:                 -2123.29999494 au
    Multiplicity: Triplet
    Trans. Mom.:  0.0000 X   0.0000 Y   0.0000 Z
    Strength   :     0.0000000000
    D(180) --> V(  2) amplitude = -0.4595
    D(181) --> V(  1) amplitude =  0.3404
    D(182) --> V(  1) amplitude =  0.7039
    D(183) --> V(  1) amplitude =  0.2421

 Excited state   5: excitation energy (eV) =    2.4826
 Total energy for state  5:                 -2123.29765870 au
    Multiplicity: Triplet
    Trans. Mom.:  0.0000 X   0.0000 Y   0.0000 Z
    Strength   :     0.0000000000
    D(180) --> V(  1) amplitude =  0.7505
    D(180) --> V(  4) amplitude =  0.2285
    D(182) --> V(  2) amplitude = -0.5105

 Excited state   6: excitation energy (eV) =    2.6354
 Total energy for state  6:                 -2123.29204384 au
    Multiplicity: Triplet
    Trans. Mom.:  0.0000 X   0.0000 Y   0.0000 Z
    Strength   :     0.0000000000
    D(184) --> V(  6) amplitude = -0.9473

 Excited state   7: excitation energy (eV) =    2.7331
 Total energy for state  7:                 -2123.28845308 au
    Multiplicity: Triplet
    Trans. Mom.:  0.0000 X   0.0000 Y   0.0000 Z
    Strength   :     0.0000000000
    D(177) --> V(  1) amplitude = -0.7104
    D(181) --> V(  2) amplitude =  0.5284

 Excited state   8: excitation energy (eV) =    2.8277
 Total energy for state  8:                 -2123.28497744 au
    Multiplicity: Singlet
    Trans. Mom.: -0.2487 X  -0.0133 Y   0.3995 Z
    Strength   :     0.0153553576
    D(183) --> V(  1) amplitude =  0.9399

 Excited state   9: excitation energy (eV) =    2.8764
 Total energy for state  9:                 -2123.28318747 au
    Multiplicity: Singlet
    Trans. Mom.:  0.2294 X   0.0037 Y  -0.3874 Z
    Strength   :     0.0142830112
    D(181) --> V(  1) amplitude =  0.8588
    D(182) --> V(  1) amplitude = -0.3737
    D(183) --> V(  1) amplitude = -0.2494

 Excited state  10: excitation energy (eV) =    3.1171
 Total energy for state 10:                 -2123.27434321 au
    Multiplicity: Singlet
    Trans. Mom.: -1.9894 X   0.0105 Y   3.5311 Z
    Strength   :     1.2544456607
    D(181) --> V(  1) amplitude =  0.3990
    D(182) --> V(  1) amplitude =  0.8680

 Excited state  11: excitation energy (eV) =    3.4231
 Total energy for state 11:                 -2123.26309541 au
    Multiplicity: Singlet
    Trans. Mom.:  0.1663 X  -0.0069 Y   0.0759 Z
    Strength   :     0.0028079016
    D(180) --> V(  1) amplitude =  0.9344

 Excited state  12: excitation energy (eV) =    3.5185
 Total energy for state 12:                 -2123.25959262 au
    Multiplicity: Singlet
    Trans. Mom.: -0.1943 X  -0.0622 Y  -0.1193 Z
    Strength   :     0.0048159263
    D(184) --> V(  2) amplitude =  0.9884

 ---------------------------------------------------

                    Orbital Energies (a.u.)
 --------------------------------------------------------------

 Alpha MOs
 -- Occupied --
-10.473 -10.473 -10.471 -10.471 -10.471 -10.471 -10.470 -10.470
-10.470 -10.470 -10.469 -10.469 -10.468 -10.467 -10.467 -10.467
-10.466 -10.466 -10.465 -10.464 -10.464 -10.463 -10.463 -10.463
-10.462 -10.462 -10.462 -10.462 -10.461 -10.455 -10.455 -10.454
-10.454 -10.453 -10.452 -10.452 -10.450 -10.448 -10.445 -10.444
-10.443 -10.443 -10.443 -10.441 -10.439 -10.436 -10.435 -10.435
-10.434 -10.434 -10.433 -10.431 -10.424 -10.420  -6.957  -6.948
 -1.023  -1.022  -0.985  -0.969  -0.965  -0.965  -0.939  -0.938
 -0.931  -0.916  -0.911  -0.906  -0.878  -0.864  -0.862  -0.856
 -0.855  -0.852  -0.851  -0.840  -0.830  -0.821  -0.818  -0.816
 -0.810  -0.798  -0.773  -0.755  -0.742  -0.735  -0.732  -0.726
 -0.707  -0.697  -0.695  -0.689  -0.685  -0.678  -0.674  -0.673
 -0.658  -0.657  -0.651  -0.650  -0.603  -0.598  -0.596  -0.593
 -0.588  -0.583  -0.581  -0.581  -0.574  -0.565  -0.558  -0.556
 -0.549  -0.538  -0.535  -0.532  -0.530  -0.516  -0.513  -0.511
 -0.509  -0.502  -0.501  -0.499  -0.496  -0.495  -0.492  -0.492
 -0.490  -0.487  -0.484  -0.482  -0.480  -0.475  -0.471  -0.470
 -0.469  -0.466  -0.459  -0.453  -0.448  -0.447  -0.445  -0.445
 -0.440  -0.436  -0.433  -0.433  -0.429  -0.428  -0.424  -0.416
 -0.409  -0.403  -0.402  -0.401  -0.401  -0.398  -0.397  -0.393
 -0.391  -0.386  -0.379  -0.378  -0.371  -0.364  -0.359  -0.358
 -0.356  -0.339  -0.332  -0.328  -0.322  -0.312  -0.302  -0.301
 -0.290  -0.287  -0.271  -0.269  -0.265  -0.262  -0.255  -0.229

          Ground-State Mulliken Net Atomic Charges

     Atom                 Charge (a.u.)
  ----------------------------------------
      1 C                    -0.153727
      2 C                    -0.393866
      3 H                     0.244565
      4 C                     0.076120
      5 C                     0.101271
      6 C                    -0.398234
      7 H                     0.259007
      8 C                    -0.156244
      9 C                     0.178488
     10 C                    -0.387643
     11 H                     0.249167
     12 C                    -0.067339
     13 C                     0.221189
     14 C                     0.182527
     15 C                    -0.395581
     16 H                     0.256733
     17 C                    -0.232622
     18 H                     0.255887
     19 C                    -0.343848
     20 H                     0.253106
     21 C                    -0.348783
     22 H                     0.253512
     23 C                    -0.229287
     24 H                     0.257628
     25 B                     0.689674
     26 C                    -0.153838
     27 C                    -0.398267
     28 H                     0.259079
     29 C                     0.101442
     30 C                     0.077629
     31 C                    -0.396734
     32 H                     0.243667
     33 C                    -0.155860
     34 C                     0.177180
     35 C                    -0.387374
     36 H                     0.249352
     37 C                    -0.066739
     38 C                     0.222991
     39 C                     0.181178
     40 C                    -0.394560
     41 H                     0.256880
     42 C                    -0.232629
     43 H                     0.255941
     44 C                    -0.344904
     45 H                     0.253170
     46 C                    -0.349231
     47 H                     0.253416
     48 C                    -0.229425
     49 H                     0.257743
     50 B                     0.686757
     51 C                    -0.255214
     52 C                     0.100310
     53 C                    -0.365231
     54 H                     0.244922
     55 C                    -0.249437
     56 H                     0.243761
     57 C                    -0.253973
     58 H                     0.244237
     59 C                    -0.311310
     60 H                     0.244595
     61 C                     0.130386
     62 C                    -0.334632
     63 H                     0.242827
     64 C                    -0.284463
     65 H                     0.236676
     66 C                     0.027870
     67 C                    -0.766232
     68 H                     0.254804
     69 H                     0.244845
     70 H                     0.244751
     71 C                    -0.227303
     72 C                     0.006544
     73 C                    -0.288389
     74 H                     0.237707
     75 C                    -0.332425
     76 H                     0.241242
     77 C                     0.106208
     78 C                    -0.303636
     79 H                     0.242224
     80 C                    -0.258279
     81 H                     0.246719
     82 C                    -0.257748
     83 H                     0.248242
     84 C                    -0.352118
     85 H                     0.253415
     86 C                     0.073742
     87 C                    -0.765826
     88 H                     0.252862
     89 H                     0.249403
     90 H                     0.249363
  ----------------------------------------
  Sum of atomic charges =    -0.000000

                    Cartesian Multipole Moments
 -----------------------------------------------------------------
    Charge (ESU x 10^10)
                -0.0000
    Dipole Moment (Debye)
         X      -1.0648      Y      -0.1796      Z      -0.5877
       Tot       1.2294
    Quadrupole Moments (Debye-Ang)
        XX    -262.9237     XY      -2.2196     YY    -311.8793
        XZ      -1.3771     YZ      -1.4976     ZZ    -255.1758

 Total job time:  9608.72s(wall), 33049.14s(cpu)
        *  Thank you very much for using Q-Chem.  Have a nice day.  *
