 Q-Chem 5.0, Q-Chem, Inc., Pleasanton, CA (2017)
 Q-Chem 5.0.1 for Intel X86 EM64T Linux

User input:
--------------------------------------------------------------
$solvent
dielectric      1.0001
dielectric_infi 1.00009
$end

$rem
threads 8
jobtype	sp
method PBEh-3c
basis def2-mSVP
mem_static	1024
mem_total	14000
sym_ignore	true
cis_n_roots             2
cis_singlets            true
cis_triplets		false
rpa                     false
calc_soc 		true
cis_moments             true
cis_relaxed_density	true
solvent_method		pcm
$end

$pcm
StateSpecific   1
ChargeSeparation Excited
$end

$molecule
read moms1opt_vac.mol
$end

--------------------------------------------------------------

   15   -2123.3715598408      7.03E-09 Convergence criterion met
 Total energy in the final basis set = -2123.37155984
 Total job time:  6403.42s(wall), 16634.61s(cpu)
        *  Thank you very much for using Q-Chem.  Have a nice day.  *
 Q-Chem 5.0, Q-Chem, Inc., Pleasanton, CA (2017)
 Q-Chem 5.0.1 for Intel X86 EM64T Linux

User input:
--------------------------------------------------------------
$rem
threads 8
jobtype sp
method PBEh-3c
basis def2-mSVP
mem_static      1024
mem_total       14000
sym_ignore      true
cis_n_roots             6
cis_singlets            true
cis_triplets            true
rpa                     false
calc_soc                true
cis_moments             true
cis_relaxed_density     true
solvent_method          pcm
$end

$molecule
read
$end

$pcm
statespecific           Marcus
$end

$solvent
dielectric      1.0001
dielectric_infi 1.00009
$end

--------------------------------------------------------------

             Standard Nuclear Orientation (Angstroms)
    I     Atom           X                Y                Z
 ----------------------------------------------------------------
    1      C       0.0000000000     0.0000000000     0.0000000000
    2      C       0.0000000000     0.0000000000     1.4023360000
    3      H       0.9436364078     0.0000000000     1.9361318948
    4      C      -1.1832713488    -0.0018421582     2.0897734070
    5      C      -1.4470477753    -0.0095518927     3.5111423281
    6      C      -0.6625501380    -0.0085798069     4.6400531244
    7      H       0.4184704748     0.0047781739     4.5832001256
    8      C      -1.2986254020    -0.0245792834     5.8977853887
    9      H      -0.6849028774    -0.0237306928     6.7892023264
   10      C      -2.6698641721    -0.0417182666     6.0313510192
   11      H      -3.1130145607    -0.0549175432     7.0195154661
   12      C      -2.8493684694    -0.0249307713     3.6529559287
   13      C      -3.4998355417    -0.0425131314     4.8853697273
   14      C      -3.5021525965    -0.0243926105     2.4011883982
   15      C      -4.8751899723    -0.0437126611     2.3887090911
   16      H      -5.4367038529    -0.0477284417     1.4636755545
   17      C      -5.5610532067    -0.0617562149     3.6227651156
   18      H      -6.6428403103    -0.0776079897     3.6096275387
   19      C      -4.9121148250    -0.0611631508     4.8374737840
   20      H      -5.4856189338    -0.0759686243     5.7560347080
   21      C      -2.4537408724    -0.0072551676     1.3914871762
   22      C      -2.4773537107     0.0016354302     0.0211984465
   23      H      -3.4198773851     0.0000706131    -0.5140048130
   24      C      -1.2718373826     0.0085703662    -0.7118446213
   25      B       1.3287760090    -0.0209904855    -0.7552099938
   26      C       1.2913493425     0.0038111409    -2.2837337167
   27      C       2.4922487571     0.0101379671    -3.0084963613
   28      H       3.4351035619    -0.0008604836    -2.4733612019
   29      C       2.4716315171     0.0337526828    -4.3778615832
   30      C       3.5505605865     0.0515230346    -5.3385679019
   31      C       4.9219570358     0.0574162214    -5.2482189611
   32      H       5.4304397432     0.0484141058    -4.2924789213
   33      C       5.6691158475     0.0780665555    -6.4424809403
   34      H       6.7494075545     0.0833943998    -6.3784293153
   35      C       5.0740397015     0.0922156871    -7.6856323370
   36      H       5.6920107478     0.1078302734    -8.5747922526
   37      C       2.9468967296     0.0673848446    -6.6125518544
   38      C       3.6640451476     0.0872130557    -7.8056410328
   39      C       1.5378434649     0.0613327484    -6.5217954023
   40      C       0.8133506297     0.0736243820    -7.6875455198
   41      H      -0.2688191561     0.0677415823    -7.6859175078
   42      C       1.5136380463     0.0930583054    -8.9131358153
   43      H       0.9420168663     0.1025003246    -9.8316802858
   44      C       2.8890858498     0.1002932772    -8.9878768684
   45      H       3.3758775467     0.1157916989    -9.9549867162
   46      C       1.2168053608     0.0427473880    -5.1046144479
   47      C       0.0305689110     0.0355105045    -4.4173635414
   48      H      -0.9142974141     0.0410626319    -4.9486810830
   49      C       0.0240270413     0.0200676649    -3.0069182501
   50      B      -1.3019278295     0.0246831622    -2.2413818159
   51      C      -2.6747937154     0.0616279367    -3.0134384472
   52      C      -3.2572939651     1.2680478527    -3.3460284190
   53      C      -4.4789128192     1.2897843607    -4.0548314770
   54      H      -4.9211458940     2.2456078680    -4.3106962382
   55      C      -5.1080073813     0.1351337573    -4.4237133466
   56      H      -6.0436164179     0.1709426204    -4.9692037257
   57      C      -4.5491461757    -1.1178687231    -4.0980567366
   58      C      -5.1726819027    -2.3334968082    -4.4606220342
   59      H      -6.1081045083    -2.2989321767    -5.0068238380
   60      C      -4.6120072786    -3.5349292281    -4.1303770113
   61      H      -5.0983926457    -4.4594912561    -4.4130217558
   62      C      -3.3971822839    -3.5726854537    -3.4185836658
   63      H      -2.9578641279    -4.5267804261    -3.1575627629
   64      C      -2.7723449501    -2.4118698940    -3.0578946415
   65      H      -1.8374886365    -2.4547115925    -2.5110423106
   66      C      -3.3240092689    -1.1479183747    -3.3844995364
   67      C      -2.5974421787     2.5631334832    -2.9592825252
   68      H      -3.1773559307     3.4262521784    -3.2860018230
   69      H      -2.4730705483     2.6403993154    -1.8772137595
   70      H      -1.6009688779     2.6514647657    -3.3971609210
   71      C       2.6941024584    -0.0977285618     0.0385504079
   72      C       3.2226231314    -1.3241261082     0.3950381400
   73      C       4.4249054845    -1.3917462076     1.1339252469
   74      H       4.8208545042    -2.3639992460     1.4037973825
   75      C       5.0916940754    -0.2631695255     1.5135735626
   76      H       6.0122945548    -0.3345899230     2.0808626541
   77      C       4.5896254913     1.0088413397     1.1710960865
   78      C       5.2541369187     2.1973148408     1.5487621949
   79      H       6.1750054533     2.1231332345     2.1155673401
   80      C       4.7505083343     3.4204826770     1.2082188068
   81      H       5.2677287362     4.3243086392     1.5027328572
   82      C       3.5534851519     3.5063467922     0.4712408378
   83      H       3.1574544664     4.4772200362     0.2035247579
   84      C       2.8908526916     2.3717508797     0.0942216031
   85      H       1.9700705725     2.4518781423    -0.4715101396
   86      C       3.3832415200     1.0861286223     0.4276853491
   87      C       2.5249547880    -2.6019514537     0.0170441367
   88      H       3.0999356264    -3.4782128712     0.3169765662
   89      H       2.3626570642    -2.6684211985    -1.0602107680
   90      H       1.5436264055    -2.6766482616     0.4903941885
 ----------------------------------------------------------------

   15   -2123.3715598130      7.03E-09 Convergence criterion met
 Total energy in the final basis set = -2123.37155981

         TDDFT/TDA Excitation Energies
 ---------------------------------------------------

 Excited state   1: excitation energy (eV) =    1.9454
 Total energy for state  1:                 -2123.30006725 au
    Multiplicity: Triplet
    Trans. Mom.:  0.0000 X   0.0000 Y   0.0000 Z
    Strength   :     0.0000000000
    D(177) --> V(  2) amplitude =  0.2361
    D(182) --> V(  1) amplitude =  0.8983
    D(184) --> V(  1) amplitude =  0.2281

 Excited state   2: excitation energy (eV) =    2.3426
 Total energy for state  2:                 -2123.28546952 au
    Multiplicity: Triplet
    Trans. Mom.:  0.0000 X   0.0000 Y   0.0000 Z
    Strength   :     0.0000000000
    D(180) --> V(  2) amplitude =  0.4531
    D(181) --> V(  1) amplitude =  0.7763
    D(183) --> V(  1) amplitude = -0.2694

 Excited state   3: excitation energy (eV) =    2.4183
 Total energy for state  3:                 -2123.28268868 au
    Multiplicity: Triplet
    Trans. Mom.:  0.0000 X   0.0000 Y   0.0000 Z
    Strength   :     0.0000000000
    D(180) --> V(  1) amplitude =  0.7439
    D(180) --> V(  4) amplitude = -0.2199
    D(181) --> V(  2) amplitude =  0.4981

 Excited state   4: excitation energy (eV) =    2.5090
 Total energy for state  4:                 -2123.27935436 au
    Multiplicity: Triplet
    Trans. Mom.:  0.0000 X   0.0000 Y   0.0000 Z
    Strength   :     0.0000000000
    D(177) --> V(  1) amplitude = -0.7216
    D(182) --> V(  2) amplitude = -0.5234

 Excited state   5: excitation energy (eV) =    2.6081
 Total energy for state  5:                 -2123.27571479 au
    Multiplicity: Singlet
    Trans. Mom.: -0.0775 X   0.0030 Y   0.1221 Z
    Strength   :     0.0013362853
    D(182) --> V(  1) amplitude =  0.8101
    D(184) --> V(  1) amplitude =  0.5024

 Excited state   6: excitation energy (eV) =    2.6449
 Total energy for state  6:                 -2123.27436256 au
    Multiplicity: Triplet
    Trans. Mom.:  0.0000 X   0.0000 Y   0.0000 Z
    Strength   :     0.0000000000
    D(182) --> V(  1) amplitude = -0.2442
    D(183) --> V(  1) amplitude = -0.2903
    D(184) --> V(  1) amplitude =  0.8896

 Excited state   7: excitation energy (eV) =    2.6916
 Total energy for state  7:                 -2123.27264419 au
    Multiplicity: Singlet
    Trans. Mom.: -0.0162 X  -0.0006 Y   0.0169 Z
    Strength   :     0.0000361329
    D(182) --> V(  1) amplitude = -0.5253
    D(184) --> V(  1) amplitude =  0.8045

 Excited state   8: excitation energy (eV) =    2.7133
 Total energy for state  8:                 -2123.27184707 au
    Multiplicity: Triplet
    Trans. Mom.:  0.0000 X   0.0000 Y   0.0000 Z
    Strength   :     0.0000000000
    D(181) --> V(  1) amplitude =  0.2669
    D(183) --> V(  1) amplitude =  0.8860
    D(184) --> V(  1) amplitude =  0.2877

 Excited state   9: excitation energy (eV) =    2.7259
 Total energy for state  9:                 -2123.27138621 au
    Multiplicity: Singlet
    Trans. Mom.: -0.2669 X  -0.0151 Y   0.4835 Z
    Strength   :     0.0203848365
    D(183) --> V(  1) amplitude =  0.9461
    D(184) --> V(  1) amplitude =  0.2309

 Excited state  10: excitation energy (eV) =    3.1273
 Total energy for state 10:                 -2123.25663208 au
    Multiplicity: Singlet
    Trans. Mom.:  1.7854 X   0.0277 Y  -3.1514 Z
    Strength   :     1.0052110178
    D(181) --> V(  1) amplitude =  0.9450

 Excited state  11: excitation energy (eV) =    3.4396
 Total energy for state 11:                 -2123.24515576 au
    Multiplicity: Singlet
    Trans. Mom.:  0.2843 X   0.0327 Y   0.1421 Z
    Strength   :     0.0086045684
    D(180) --> V(  1) amplitude =  0.9120

 Excited state  12: excitation energy (eV) =    3.4821
 Total energy for state 12:                 -2123.24359565 au
    Multiplicity: Singlet
    Trans. Mom.:  0.8012 X   0.0678 Y   0.4626 Z
    Strength   :     0.0734174321
    D(177) --> V(  1) amplitude = -0.7176
    D(180) --> V(  1) amplitude = -0.2234
    D(182) --> V(  2) amplitude = -0.5366

 ---------------------------------------------------

                    Orbital Energies (a.u.)
 --------------------------------------------------------------

 Alpha MOs
 -- Occupied --
-10.465 -10.464 -10.464 -10.464 -10.464 -10.464 -10.463 -10.463
-10.462 -10.462 -10.462 -10.462 -10.461 -10.461 -10.461 -10.460
-10.459 -10.459 -10.459 -10.459 -10.458 -10.458 -10.453 -10.453
-10.452 -10.452 -10.451 -10.451 -10.451 -10.450 -10.450 -10.449
-10.446 -10.446 -10.444 -10.444 -10.443 -10.443 -10.442 -10.442
-10.442 -10.442 -10.442 -10.441 -10.441 -10.441 -10.435 -10.435
-10.434 -10.434 -10.428 -10.427 -10.427 -10.426  -6.943  -6.942
 -1.013  -1.013  -0.974  -0.974  -0.957  -0.955  -0.933  -0.933
 -0.921  -0.921  -0.904  -0.895  -0.870  -0.866  -0.856  -0.855
 -0.847  -0.846  -0.845  -0.844  -0.818  -0.815  -0.811  -0.808
 -0.807  -0.797  -0.764  -0.763  -0.733  -0.732  -0.728  -0.718
 -0.699  -0.696  -0.688  -0.687  -0.677  -0.671  -0.669  -0.668
 -0.667  -0.656  -0.642  -0.642  -0.598  -0.593  -0.592  -0.590
 -0.582  -0.576  -0.575  -0.574  -0.573  -0.565  -0.565  -0.547
 -0.547  -0.542  -0.530  -0.526  -0.526  -0.510  -0.508  -0.503
 -0.502  -0.501  -0.499  -0.498  -0.491  -0.491  -0.484  -0.483
 -0.482  -0.481  -0.479  -0.479  -0.478  -0.473  -0.471  -0.470
 -0.464  -0.464  -0.452  -0.451  -0.444  -0.443  -0.440  -0.438
 -0.437  -0.434  -0.432  -0.429  -0.428  -0.422  -0.419  -0.411
 -0.406  -0.399  -0.398  -0.395  -0.394  -0.394  -0.388  -0.386
 -0.385  -0.384  -0.377  -0.368  -0.366  -0.365  -0.355  -0.351
 -0.347  -0.335  -0.322  -0.321  -0.316  -0.314  -0.295  -0.294
 -0.276  -0.275  -0.274  -0.261  -0.254  -0.248  -0.244  -0.243

          Ground-State Mulliken Net Atomic Charges

     Atom                 Charge (a.u.)
  ----------------------------------------
      1 C                    -0.152927
      2 C                    -0.374972
      3 H                     0.233958
      4 C                     0.082947
      5 C                     0.200140
      6 C                    -0.369497
      7 H                     0.222966
      8 C                    -0.206466
      9 H                     0.227169
     10 C                    -0.330542
     11 H                     0.220299
     12 C                    -0.070630
     13 C                     0.251662
     14 C                     0.203938
     15 C                    -0.379948
     16 H                     0.222814
     17 C                    -0.203592
     18 H                     0.226739
     19 C                    -0.335199
     20 H                     0.220762
     21 C                     0.109685
     22 C                    -0.386010
     23 H                     0.233584
     24 C                    -0.158244
     25 B                     0.692038
     26 C                    -0.156965
     27 C                    -0.376552
     28 H                     0.232377
     29 C                     0.084180
     30 C                     0.199059
     31 C                    -0.369023
     32 H                     0.222966
     33 C                    -0.206482
     34 H                     0.227272
     35 C                    -0.331656
     36 H                     0.220407
     37 C                    -0.070417
     38 C                     0.253574
     39 C                     0.202812
     40 C                    -0.378853
     41 H                     0.222880
     42 C                    -0.203746
     43 H                     0.226814
     44 C                    -0.335553
     45 H                     0.220745
     46 C                     0.109563
     47 C                    -0.385275
     48 H                     0.233319
     49 C                    -0.156309
     50 B                     0.692521
     51 C                    -0.226480
     52 C                     0.017213
     53 C                    -0.265328
     54 H                     0.207771
     55 C                    -0.313989
     56 H                     0.209148
     57 C                     0.131873
     58 C                    -0.285574
     59 H                     0.209896
     60 C                    -0.231429
     61 H                     0.217227
     62 C                    -0.234813
     63 H                     0.219454
     64 C                    -0.327435
     65 H                     0.236700
     66 C                     0.083342
     67 C                    -0.756191
     68 H                     0.234282
     69 H                     0.247583
     70 H                     0.247269
     71 C                    -0.230844
     72 C                     0.016058
     73 C                    -0.264959
     74 H                     0.208306
     75 C                    -0.313801
     76 H                     0.209550
     77 C                     0.134183
     78 C                    -0.284770
     79 H                     0.210144
     80 C                    -0.231752
     81 H                     0.217474
     82 C                    -0.234463
     83 H                     0.219779
     84 C                    -0.327890
     85 H                     0.236027
     86 C                     0.084128
     87 C                    -0.755631
     88 H                     0.234561
     89 H                     0.247589
     90 H                     0.247459
  ----------------------------------------
  Sum of atomic charges =    -0.000000

                    Cartesian Multipole Moments
 -----------------------------------------------------------------
    Charge (ESU x 10^10)
                -0.0000
    Dipole Moment (Debye)
         X       0.1085      Y       0.0043      Z       0.0693
       Tot       0.1289
    Quadrupole Moments (Debye-Ang)
        XX    -279.1447     XY      -1.9430     YY    -315.3640
        XZ      -4.4552     YZ      -2.5023     ZZ    -272.5501

 Total job time:  9400.20s(wall), 33338.98s(cpu)
        *  Thank you very much for using Q-Chem.  Have a nice day.  *
