 Q-Chem 5.0, Q-Chem, Inc., Pleasanton, CA (2017)
 Q-Chem 5.0.1 for Intel X86 EM64T Linux

User input:
--------------------------------------------------------------
$solvent
dielectric      8.93
dielectric_infi 2.03
$end

$rem
threads 8
jobtype	sp
method PBEh-3c
basis def2-mSVP
mem_static	1024
mem_total	14000
sym_ignore	true
cis_n_roots             2
cis_singlets            true
cis_triplets		false
rpa                     false
calc_soc 		true
cis_moments             true
cis_relaxed_density	true
solvent_method		pcm
$end

$pcm
StateSpecific   1
ChargeSeparation Excited
$end

$molecule
read moms1opt_dcm.mol
$end

--------------------------------------------------------------

   14   -2123.4000627312      7.18E-09 Convergence criterion met
 Total energy in the final basis set = -2123.40006273
 Total job time:  6369.64s(wall), 15841.27s(cpu)
        *  Thank you very much for using Q-Chem.  Have a nice day.  *
 Q-Chem 5.0, Q-Chem, Inc., Pleasanton, CA (2017)
 Q-Chem 5.0.1 for Intel X86 EM64T Linux

User input:
--------------------------------------------------------------
$rem
threads 8
jobtype sp
method PBEh-3c
basis def2-mSVP
mem_static      1024
mem_total       14000
sym_ignore      true
cis_n_roots             6
cis_singlets            true
cis_triplets            true
rpa                     false
calc_soc                true
cis_moments             true
cis_relaxed_density     true
solvent_method          pcm
$end

$molecule
read
$end

$pcm
statespecific           Marcus
$end

$solvent
dielectric      8.93
dielectric_infi 2.03
$end

--------------------------------------------------------------

             Standard Nuclear Orientation (Angstroms)
    I     Atom           X                Y                Z
 ----------------------------------------------------------------
    1      C       0.0000000000     0.0000000000     0.0000000000
    2      C       0.0000000000     0.0000000000     1.4060270000
    3      H       0.9437795257     0.0000000000     1.9419655211
    4      C      -1.1802740965    -0.0012408833     2.1057659694
    5      C      -2.4332431573    -0.0035557174     1.4224775299
    6      C      -2.4576695758    -0.0034408255     0.0488346955
    7      H      -3.4130543893    -0.0076081196    -0.4675101271
    8      C      -1.2510903734    -0.0014280344    -0.6938446832
    9      C      -1.4358041029    -0.0030396868     3.5399588255
   10      C      -0.6494956479    -0.0012002009     4.6666130819
   11      H       0.4322297559     0.0030715923     4.6086809902
   12      C      -2.8361553886    -0.0069440603     3.6908156688
   13      C      -3.4824231380    -0.0094466268     4.9256982173
   14      C      -3.4902387656    -0.0071801520     2.4408933517
   15      C      -4.8629747693    -0.0102710467     2.4350312702
   16      H      -5.4310099169    -0.0102845217     1.5130381629
   17      C      -1.2812766405    -0.0036875543     5.9321654880
   18      H      -0.6607307192    -0.0020080581     6.8195623738
   19      C      -2.6507137910    -0.0078421198     6.0739337322
   20      H      -3.0926147616    -0.0096313272     7.0630627532
   21      C      -4.8971021234    -0.0129522081     4.8869093596
   22      H      -5.4658219176    -0.0149433582     5.8090116076
   23      C      -5.5486969551    -0.0133792663     3.6740106032
   24      H      -6.6311787727    -0.0159265722     3.6620400826
   25      B      -1.2477179665    -0.0010961170    -2.2208919233
   26      C       0.0564952310    -0.0118031565    -3.0165955061
   27      C       0.0668218424    -0.0186880674    -4.4329821290
   28      H      -0.8703247430    -0.0247914832    -4.9820560059
   29      C       1.2544869680    -0.0199489878    -5.1244206529
   30      C       2.4889980168    -0.0167419718    -4.4083395663
   31      C       2.5012943090    -0.0136177990    -3.0351061710
   32      H       3.4474169230    -0.0139133628    -2.5031007814
   33      C       1.2988888520    -0.0098715574    -2.3053339596
   34      C       3.5808632153    -0.0176047891    -5.3719490407
   35      C       4.9514131271    -0.0139636818    -5.2828628848
   36      H       5.4620701078    -0.0100307338    -4.3274546637
   37      C       2.9824629376    -0.0211508208    -6.6472118157
   38      C       3.7006141032    -0.0213472854    -7.8400200861
   39      C       1.5746611423    -0.0231767329    -6.5545722996
   40      C       0.8527894855    -0.0262283294    -7.7213484358
   41      H      -0.2301894096    -0.0278491760    -7.7238512142
   42      C       5.7042928181    -0.0139984230    -6.4797292042
   43      H       6.7848745910    -0.0105862958    -6.4107117573
   44      C       5.1138198031    -0.0176486799    -7.7238658226
   45      H       5.7308369509    -0.0172529694    -8.6142081235
   46      C       2.9289147659    -0.0245367224    -9.0268658363
   47      H       3.4184954452    -0.0247853995    -9.9931104243
   48      C       1.5539158797    -0.0269487136    -8.9514435476
   49      H       0.9803077469    -0.0291093255    -9.8694750213
   50      B       1.3277056070    -0.0075666843    -0.7701368472
   51      C      -2.6229970376     0.0175089905    -2.9915474672
   52      C      -3.2845966197    -1.1854866400    -3.3451336312
   53      C      -2.7430878145    -2.4324662350    -2.9932477745
   54      H      -1.8116153864    -2.4751720803    -2.4421034372
   55      C      -3.3888349533    -3.6127369468    -3.3417391378
   56      H      -2.9566476424    -4.5630401120    -3.0600058175
   57      C      -4.5810160607    -3.5721206300    -4.0489869181
   58      H      -5.0811429227    -4.4914248975    -4.3216502401
   59      C      -5.1395880291    -2.3490380159    -4.4108568659
   60      H      -6.0707085464    -2.3216156440    -4.9630896025
   61      C      -4.5058975200    -1.1545907304    -4.0653411070
   62      C      -5.0522902837     0.1007131237    -4.4174332760
   63      H      -5.9838994183     0.1345820537    -4.9688071090
   64      C      -4.4161309467     1.2799748220    -4.0634544973
   65      H      -4.8598788121     2.2264315208    -4.3433182274
   66      C      -3.2217742522     1.2633847414    -3.3565026917
   67      C      -2.5444246269     2.5318861438    -2.9700858515
   68      H      -3.1039746953     3.4068674748    -3.2940068833
   69      H      -2.4134350974     2.5812893381    -1.8868196132
   70      H      -1.5421415729     2.5787519352    -3.4020284484
   71      C       2.6997418957    -0.0275321248     0.0233063000
   72      C       3.2811408881    -1.2275715793     0.3893245295
   73      C       4.4867176054    -1.2402515948     1.1279351774
   74      H       4.9223843197    -2.1938256260     1.4045254062
   75      C       5.1076251380    -0.0819245386     1.5010633731
   76      H       6.0304281524    -0.1102086361     2.0689845962
   77      C       4.5507122410     1.1655099414     1.1487401769
   78      C       5.1651966322     2.3847258514     1.5196052784
   79      H       6.0879813223     2.3522242568     2.0877523687
   80      C       4.6100756154     3.5842545113     1.1703246634
   81      H       5.0878223615     4.5115828399     1.4595183052
   82      C       3.4102937909     3.6143142443     0.4300188076
   83      H       2.9743696880     4.5661301565     0.1545727581
   84      C       2.7969037579     2.4489284646     0.0595946193
   85      H       1.8747910810     2.4873497502    -0.5089495641
   86      C       3.3416656649     1.1859540297     0.4036757145
   87      C       2.6371721525    -2.5361283289     0.0218485370
   88      H       3.2416876395    -3.3857339919     0.3400703196
   89      H       2.4886000918    -2.6203740031    -1.0563810063
   90      H       1.6536593334    -2.6391440279     0.4856023462
 ----------------------------------------------------------------

   14   -2123.3915885768      8.05E-09 Convergence criterion met
 Total energy in the final basis set = -2123.39158858

         TDDFT/TDA Excitation Energies
 ---------------------------------------------------

 Excited state   1: excitation energy (eV) =    2.0077
 Total energy for state  1:                 -2123.31780623 au
    Multiplicity: Triplet
    Trans. Mom.:  0.0000 X   0.0000 Y   0.0000 Z
    Strength   :     0.0000000000
    D(184) --> V(  1) amplitude =  0.9731

 Excited state   2: excitation energy (eV) =    2.0335
 Total energy for state  2:                 -2123.31685808 au
    Multiplicity: Singlet
    Trans. Mom.: -0.0936 X  -0.0077 Y   0.1787 Z
    Strength   :     0.0020297401
    D(184) --> V(  1) amplitude =  0.9805

 Excited state   3: excitation energy (eV) =    2.2183
 Total energy for state  3:                 -2123.31006837 au
    Multiplicity: Triplet
    Trans. Mom.:  0.0000 X   0.0000 Y   0.0000 Z
    Strength   :     0.0000000000
    D(177) --> V(  2) amplitude =  0.2350
    D(181) --> V(  1) amplitude =  0.8517
    D(182) --> V(  1) amplitude =  0.3380

 Excited state   4: excitation energy (eV) =    2.4174
 Total energy for state  4:                 -2123.30275076 au
    Multiplicity: Triplet
    Trans. Mom.:  0.0000 X   0.0000 Y   0.0000 Z
    Strength   :     0.0000000000
    D(179) --> V(  2) amplitude = -0.4600
    D(181) --> V(  1) amplitude = -0.2849
    D(182) --> V(  1) amplitude =  0.7231
    D(183) --> V(  1) amplitude =  0.2506

 Excited state   5: excitation energy (eV) =    2.4821
 Total energy for state  5:                 -2123.30037341 au
    Multiplicity: Triplet
    Trans. Mom.:  0.0000 X   0.0000 Y   0.0000 Z
    Strength   :     0.0000000000
    D(179) --> V(  1) amplitude = -0.7511
    D(179) --> V(  4) amplitude = -0.2259
    D(182) --> V(  2) amplitude =  0.5144

 Excited state   6: excitation energy (eV) =    2.6358
 Total energy for state  6:                 -2123.29472594 au
    Multiplicity: Triplet
    Trans. Mom.:  0.0000 X   0.0000 Y   0.0000 Z
    Strength   :     0.0000000000
    D(184) --> V(  6) amplitude = -0.9008
    D(184) --> V(  7) amplitude =  0.3085

 Excited state   7: excitation energy (eV) =    2.7379
 Total energy for state  7:                 -2123.29097185 au
    Multiplicity: Triplet
    Trans. Mom.:  0.0000 X   0.0000 Y   0.0000 Z
    Strength   :     0.0000000000
    D(175) --> V(  1) amplitude =  0.2183
    D(177) --> V(  1) amplitude = -0.7088
    D(181) --> V(  2) amplitude = -0.5347

 Excited state   8: excitation energy (eV) =    2.8412
 Total energy for state  8:                 -2123.28717809 au
    Multiplicity: Singlet
    Trans. Mom.: -0.2616 X  -0.0141 Y   0.4210 Z
    Strength   :     0.0171118329
    D(181) --> V(  1) amplitude = -0.2608
    D(183) --> V(  1) amplitude =  0.9210

 Excited state   9: excitation energy (eV) =    2.8835
 Total energy for state  9:                 -2123.28562233 au
    Multiplicity: Singlet
    Trans. Mom.: -0.2359 X  -0.0051 Y   0.3947 Z
    Strength   :     0.0149378147
    D(181) --> V(  1) amplitude =  0.8683
    D(182) --> V(  1) amplitude =  0.2988
    D(183) --> V(  1) amplitude =  0.3093

 Excited state  10: excitation energy (eV) =    3.1056
 Total energy for state 10:                 -2123.27746085 au
    Multiplicity: Singlet
    Trans. Mom.: -2.0226 X   0.0070 Y   3.5933 Z
    Strength   :     1.2936745179
    D(181) --> V(  1) amplitude = -0.3354
    D(182) --> V(  1) amplitude =  0.8937

 Excited state  11: excitation energy (eV) =    3.3269
 Total energy for state 11:                 -2123.26932632 au
    Multiplicity: Singlet
    Trans. Mom.:  0.1103 X  -0.0032 Y  -0.2192 Z
    Strength   :     0.0049101725
    D(180) --> V(  1) amplitude =  0.9884

 Excited state  12: excitation energy (eV) =    3.4073
 Total energy for state 12:                 -2123.26637111 au
    Multiplicity: Singlet
    Trans. Mom.: -0.2278 X  -0.0317 Y  -0.1117 Z
    Strength   :     0.0054575450
    D(179) --> V(  1) amplitude = -0.7784
    D(184) --> V(  2) amplitude =  0.5554

 ---------------------------------------------------

                    Orbital Energies (a.u.)
 --------------------------------------------------------------

 Alpha MOs
 -- Occupied --
-10.475 -10.475 -10.474 -10.473 -10.473 -10.473 -10.472 -10.472
-10.471 -10.471 -10.470 -10.470 -10.470 -10.470 -10.469 -10.469
-10.468 -10.468 -10.468 -10.466 -10.465 -10.465 -10.464 -10.464
-10.464 -10.464 -10.464 -10.464 -10.464 -10.457 -10.457 -10.457
-10.456 -10.455 -10.454 -10.454 -10.452 -10.446 -10.446 -10.446
-10.445 -10.445 -10.443 -10.442 -10.439 -10.436 -10.435 -10.433
-10.432 -10.432 -10.430 -10.429 -10.423 -10.419  -6.960  -6.950
 -1.025  -1.024  -0.988  -0.970  -0.967  -0.964  -0.940  -0.940
 -0.934  -0.917  -0.910  -0.908  -0.881  -0.866  -0.864  -0.857
 -0.855  -0.853  -0.853  -0.839  -0.832  -0.823  -0.819  -0.818
 -0.812  -0.796  -0.775  -0.754  -0.743  -0.737  -0.734  -0.728
 -0.709  -0.698  -0.696  -0.688  -0.687  -0.680  -0.675  -0.675
 -0.658  -0.655  -0.653  -0.651  -0.604  -0.599  -0.597  -0.594
 -0.589  -0.585  -0.583  -0.582  -0.576  -0.564  -0.558  -0.556
 -0.551  -0.537  -0.536  -0.533  -0.531  -0.517  -0.515  -0.513
 -0.510  -0.504  -0.503  -0.500  -0.498  -0.495  -0.494  -0.492
 -0.491  -0.490  -0.485  -0.482  -0.481  -0.476  -0.472  -0.469
 -0.468  -0.466  -0.461  -0.455  -0.450  -0.449  -0.446  -0.445
 -0.441  -0.438  -0.434  -0.433  -0.429  -0.426  -0.424  -0.417
 -0.409  -0.404  -0.404  -0.403  -0.401  -0.400  -0.399  -0.396
 -0.391  -0.388  -0.382  -0.380  -0.369  -0.365  -0.361  -0.361
 -0.355  -0.339  -0.334  -0.331  -0.325  -0.310  -0.304  -0.303
 -0.292  -0.289  -0.271  -0.269  -0.267  -0.264  -0.258  -0.227

          Ground-State Mulliken Net Atomic Charges

     Atom                 Charge (a.u.)
  ----------------------------------------
      1 C                    -0.154479
      2 C                    -0.396627
      3 H                     0.245898
      4 C                     0.072478
      5 C                     0.097714
      6 C                    -0.399338
      7 H                     0.264929
      8 C                    -0.157288
      9 C                     0.174767
     10 C                    -0.390046
     11 H                     0.253386
     12 C                    -0.068126
     13 C                     0.215184
     14 C                     0.178544
     15 C                    -0.396431
     16 H                     0.263515
     17 C                    -0.237289
     18 H                     0.261107
     19 C                    -0.345757
     20 H                     0.259120
     21 C                    -0.350353
     22 H                     0.259546
     23 C                    -0.233918
     24 H                     0.263548
     25 B                     0.689794
     26 C                    -0.154763
     27 C                    -0.399306
     28 H                     0.265087
     29 C                     0.097784
     30 C                     0.074013
     31 C                    -0.399514
     32 H                     0.245081
     33 C                    -0.156530
     34 C                     0.173498
     35 C                    -0.389741
     36 H                     0.253617
     37 C                    -0.067581
     38 C                     0.216988
     39 C                     0.177291
     40 C                    -0.395375
     41 H                     0.263708
     42 C                    -0.237301
     43 H                     0.261147
     44 C                    -0.346818
     45 H                     0.259171
     46 C                    -0.350788
     47 H                     0.259433
     48 C                    -0.234063
     49 H                     0.263678
     50 B                     0.680928
     51 C                    -0.256952
     52 C                     0.101011
     53 C                    -0.370070
     54 H                     0.244586
     55 C                    -0.250932
     56 H                     0.247658
     57 C                    -0.257742
     58 H                     0.249054
     59 C                    -0.312095
     60 H                     0.251068
     61 C                     0.125313
     62 C                    -0.334969
     63 H                     0.249672
     64 C                    -0.287623
     65 H                     0.241879
     66 C                     0.029423
     67 C                    -0.767668
     68 H                     0.259100
     69 H                     0.243173
     70 H                     0.243042
     71 C                    -0.225840
     72 C                     0.004407
     73 C                    -0.291916
     74 H                     0.243249
     75 C                    -0.335354
     76 H                     0.247131
     77 C                     0.100753
     78 C                    -0.306537
     79 H                     0.248204
     80 C                    -0.262849
     81 H                     0.252169
     82 C                    -0.261261
     83 H                     0.253418
     84 C                    -0.356881
     85 H                     0.256023
     86 C                     0.070729
     87 C                    -0.766915
     88 H                     0.256529
     89 H                     0.249222
     90 H                     0.249270
  ----------------------------------------
  Sum of atomic charges =    -0.000000

                    Cartesian Multipole Moments
 -----------------------------------------------------------------
    Charge (ESU x 10^10)
                -0.0000
    Dipole Moment (Debye)
         X      -1.4996      Y      -0.2151      Z      -0.8342
       Tot       1.7295
    Quadrupole Moments (Debye-Ang)
        XX    -258.7216     XY      -2.1563     YY    -311.1737
        XZ      -0.2375     YZ      -1.4443     ZZ    -250.5888

 Total job time:  10209.68s(wall), 35859.77s(cpu)
        *  Thank you very much for using Q-Chem.  Have a nice day.  *
