 Q-Chem 5.0, Q-Chem, Inc., Pleasanton, CA (2017)
 Q-Chem 5.0.1 for Intel X86 EM64T Linux

User input:
--------------------------------------------------------------
$solvent
dielectric      2.38
dielectric_infi 2.25
$end

$rem
threads 8
jobtype	sp
method PBEh-3c
basis def2-mSVP
mem_static	1024
mem_total	14000
sym_ignore	true
cis_n_roots             2
cis_singlets            true
cis_triplets		false
rpa                     false
calc_soc 		true
cis_moments             true
cis_relaxed_density	true
solvent_method		pcm
$end

$pcm
StateSpecific   1
ChargeSeparation Excited
$end

$molecule
read moms1opt_tol.mol
$end

--------------------------------------------------------------

   14   -2123.3889812916      9.31E-09 Convergence criterion met
 Total energy in the final basis set = -2123.38898129
 Total job time:  5928.43s(wall), 14800.96s(cpu)
        *  Thank you very much for using Q-Chem.  Have a nice day.  *
 Q-Chem 5.0, Q-Chem, Inc., Pleasanton, CA (2017)
 Q-Chem 5.0.1 for Intel X86 EM64T Linux

User input:
--------------------------------------------------------------
$rem
threads 8
jobtype sp
method PBEh-3c
basis def2-mSVP
mem_static      1024
mem_total       14000
sym_ignore      true
cis_n_roots             6
cis_singlets            true
cis_triplets            true
rpa                     false
calc_soc                true
cis_moments             true
cis_relaxed_density     true
solvent_method          pcm
$end

$molecule
read
$end

$pcm
statespecific           Marcus
$end

$solvent
dielectric      2.38
dielectric_infi 2.25
$end

--------------------------------------------------------------

             Standard Nuclear Orientation (Angstroms)
    I     Atom           X                Y                Z
 ----------------------------------------------------------------
    1      C       0.0000000000     0.0000000000     0.0000000000
    2      C       0.0000000000     0.0000000000     1.4047450000
    3      H       0.9448080055     0.0000000000     1.9384475754
    4      C      -1.1802850856    -0.0007302034     2.1043857507
    5      C      -2.4325051495    -0.0032991121     1.4218824469
    6      C      -2.4568268224    -0.0010595576     0.0491677216
    7      H      -3.4125587882    -0.0065426627    -0.4672291529
    8      C      -1.2499159633     0.0004980099    -0.6935519605
    9      C      -1.4354047062    -0.0048043067     3.5378984290
   10      C      -0.6489653449    -0.0037710276     4.6635719467
   11      H       0.4325074405     0.0037832293     4.6042664070
   12      C      -2.8351993454    -0.0119334049     3.6901192824
   13      C      -3.4804592098    -0.0195786628     4.9248126387
   14      C      -3.4893026053    -0.0112726124     2.4408226726
   15      C      -4.8612875551    -0.0191105401     2.4362374045
   16      H      -5.4298473413    -0.0195401047     1.5145490309
   17      C      -1.2795039540    -0.0109551984     5.9290689479
   18      H      -0.6583067090    -0.0097445034     6.8159717103
   19      C      -2.6480316957    -0.0190534955     6.0719201365
   20      H      -3.0886898046    -0.0247459611     7.0615536962
   21      C      -4.8944355434    -0.0275153817     4.8863731287
   22      H      -5.4629985485    -0.0337192956     5.8085380692
   23      C      -5.5466523233    -0.0272958075     3.6746432893
   24      H      -6.6291538810    -0.0334812118     3.6636546985
   25      B      -1.2396941447     0.0038873186    -2.2189699475
   26      C       0.0607013709    -0.0171782821    -3.0172853691
   27      C       0.0727572825    -0.0315085126    -4.4338325875
   28      H      -0.8641311651    -0.0414679888    -4.9840333532
   29      C       1.2604738935    -0.0398525461    -5.1233027308
   30      C       2.4929212664    -0.0336799719    -4.4056961805
   31      C       2.5034770749    -0.0250050287    -3.0325541542
   32      H       3.4474682721    -0.0238771700    -2.4972147224
   33      C       1.3011663040    -0.0164053215    -2.3051367061
   34      C       3.5858192681    -0.0416823016    -5.3669917363
   35      C       4.9554477903    -0.0373470660    -5.2752723645
   36      H       5.4633250430    -0.0246974735    -4.3186391531
   37      C       2.9907445668    -0.0548737334    -6.6432764540
   38      C       3.7110574710    -0.0656832015    -7.8340022683
   39      C       1.5833158453    -0.0550336934    -6.5530320633
   40      C       0.8646769854    -0.0679386310    -7.7208448810
   41      H      -0.2183119297    -0.0693020755    -7.7255513377
   42      C       5.7107526995    -0.0474265380    -6.4698786555
   43      H       6.7911440395    -0.0433002819    -6.3984778000
   44      C       5.1235120962    -0.0617265551    -7.7145907026
   45      H       5.7428701843    -0.0691724241    -8.6032262802
   46      C       2.9417842215    -0.0787552954    -9.0215239306
   47      H       3.4329249309    -0.0876257047    -9.9869312855
   48      C       1.5673378364    -0.0798738765    -8.9492643821
   49      H       0.9959573950    -0.0899956333    -9.8686543900
   50      B       1.3283710052    -0.0136679925    -0.7695967829
   51      C      -2.6115815978     0.0547302918    -2.9878946546
   52      C      -3.3030855277    -1.1319061976    -3.3438216959
   53      C      -2.7864380088    -2.3888415308    -2.9928184643
   54      H      -1.8547421662    -2.4454174811    -2.4431496994
   55      C      -3.4577245848    -3.5538427115    -3.3410813190
   56      H      -3.0459983602    -4.5135909603    -3.0608856234
   57      C      -4.6500356032    -3.4865276192    -4.0469717386
   58      H      -5.1696375810    -4.3951465670    -4.3193479002
   59      C      -5.1827024083    -2.2531647730    -4.4074178992
   60      H      -6.1137070110    -2.2069738005    -4.9587669935
   61      C      -4.5236438637    -1.0726930855    -4.0621201742
   62      C      -5.0404547293     0.1974992642    -4.4110896776
   63      H      -5.9718188946     0.2540758077    -4.9612709728
   64      C      -4.3782463748     1.3600703730    -4.0565172579
   65      H      -4.8003290349     2.3172152678    -4.3338618215
   66      C      -3.1826668153     1.3160783421    -3.3498108523
   67      C      -2.4748609057     2.5658136566    -2.9604229010
   68      H      -3.0150134042     3.4566528461    -3.2745197531
   69      H      -2.3326297949     2.6028621476    -1.8780827459
   70      H      -1.4736362120     2.5900134395    -3.3967884078
   71      C       2.6984518902    -0.0502187336     0.0247428284
   72      C       3.2639443066    -1.2587777665     0.3858956020
   73      C       4.4673968676    -1.2889865419     1.1259729325
   74      H       4.8910897296    -2.2488723748     1.3992095322
   75      C       5.1012050815    -0.1401295287     1.5045912288
   76      H       6.0226940630    -0.1824081698     2.0737181460
   77      C       4.5608610584     1.1151969628     1.1570812786
   78      C       5.1885763217     2.3251901645     1.5331421067
   79      H       6.1100421965     2.2801147764     2.1024822209
   80      C       4.6484753045     3.5318849320     1.1876547714
   81      H       5.1369296202     4.4522434679     1.4810649243
   82      C       3.4508847423     3.5790315245     0.4460507678
   83      H       3.0267120937     4.5368751692     0.1735851491
   84      C       2.8243650632     2.4231324692     0.0705728429
   85      H       1.9036854316     2.4729041502    -0.4990026160
   86      C       3.3538148623     1.1534665758     0.4107100313
   87      C       2.6030236865    -2.5565121107     0.0106867162
   88      H       3.1957584783    -3.4160741336     0.3248092961
   89      H       2.4553141302    -2.6323400624    -1.0682272363
   90      H       1.6178196420    -2.6483266068     0.4731004420
 ----------------------------------------------------------------

   14   -2123.3884754864      9.50E-09 Convergence criterion met
 Total energy in the final basis set = -2123.38847549

         TDDFT/TDA Excitation Energies
 ---------------------------------------------------

 Excited state   1: excitation energy (eV) =    2.1853
 Total energy for state  1:                 -2123.30816853 au
    Multiplicity: Triplet
    Trans. Mom.:  0.0000 X   0.0000 Y   0.0000 Z
    Strength   :     0.0000000000
    D(177) --> V(  2) amplitude = -0.2305
    D(181) --> V(  1) amplitude =  0.7776
    D(182) --> V(  1) amplitude = -0.4757

 Excited state   2: excitation energy (eV) =    2.3963
 Total energy for state  2:                 -2123.30041367 au
    Multiplicity: Triplet
    Trans. Mom.:  0.0000 X   0.0000 Y   0.0000 Z
    Strength   :     0.0000000000
    D(180) --> V(  2) amplitude = -0.3906
    D(181) --> V(  1) amplitude =  0.4179
    D(182) --> V(  1) amplitude =  0.5326
    D(184) --> V(  1) amplitude =  0.5112

 Excited state   3: excitation energy (eV) =    2.4566
 Total energy for state  3:                 -2123.29819764 au
    Multiplicity: Triplet
    Trans. Mom.:  0.0000 X   0.0000 Y   0.0000 Z
    Strength   :     0.0000000000
    D(180) --> V(  2) amplitude =  0.2309
    D(182) --> V(  1) amplitude = -0.4104
    D(184) --> V(  1) amplitude =  0.8060

 Excited state   4: excitation energy (eV) =    2.4670
 Total energy for state  4:                 -2123.29781581 au
    Multiplicity: Singlet
    Trans. Mom.: -0.1326 X  -0.0070 Y   0.2803 Z
    Strength   :     0.0058125341
    D(184) --> V(  1) amplitude =  0.9775

 Excited state   5: excitation energy (eV) =    2.4782
 Total energy for state  5:                 -2123.29740286 au
    Multiplicity: Triplet
    Trans. Mom.:  0.0000 X   0.0000 Y   0.0000 Z
    Strength   :     0.0000000000
    D(180) --> V(  1) amplitude =  0.7458
    D(180) --> V(  4) amplitude = -0.2312
    D(182) --> V(  2) amplitude = -0.4932

 Excited state   6: excitation energy (eV) =    2.6353
 Total energy for state  6:                 -2123.29163145 au
    Multiplicity: Triplet
    Trans. Mom.:  0.0000 X   0.0000 Y   0.0000 Z
    Strength   :     0.0000000000
    D(184) --> V(  5) amplitude = -0.9487

 Excited state   7: excitation energy (eV) =    2.7207
 Total energy for state  7:                 -2123.28849129 au
    Multiplicity: Triplet
    Trans. Mom.:  0.0000 X   0.0000 Y   0.0000 Z
    Strength   :     0.0000000000
    D(177) --> V(  1) amplitude = -0.7115
    D(181) --> V(  2) amplitude =  0.5129

 Excited state   8: excitation energy (eV) =    2.7714
 Total energy for state  8:                 -2123.28662983 au
    Multiplicity: Singlet
    Trans. Mom.: -0.2635 X  -0.0132 Y   0.4178 Z
    Strength   :     0.0165760772
    D(183) --> V(  1) amplitude =  0.9645

 Excited state   9: excitation energy (eV) =    2.8450
 Total energy for state  9:                 -2123.28392245 au
    Multiplicity: Singlet
    Trans. Mom.:  0.2597 X   0.0013 Y  -0.4443 Z
    Strength   :     0.0184566046
    D(181) --> V(  1) amplitude =  0.8354
    D(182) --> V(  1) amplitude = -0.4722

 Excited state  10: excitation energy (eV) =    3.0897
 Total energy for state 10:                 -2123.27493037 au
    Multiplicity: Singlet
    Trans. Mom.: -2.0491 X   0.0170 Y   3.6338 Z
    Strength   :     1.3173979248
    D(181) --> V(  1) amplitude =  0.4772
    D(182) --> V(  1) amplitude =  0.8307

 Excited state  11: excitation energy (eV) =    3.4001
 Total energy for state 11:                 -2123.26352418 au
    Multiplicity: Singlet
    Trans. Mom.:  0.1750 X  -0.0188 Y   0.0767 Z
    Strength   :     0.0030709684
    D(180) --> V(  1) amplitude =  0.9405

 Excited state  12: excitation energy (eV) =    3.6411
 Total energy for state 12:                 -2123.25466590 au
    Multiplicity: Singlet
    Trans. Mom.: -0.9747 X  -0.0756 Y  -0.5586 Z
    Strength   :     0.1130994731
    D(177) --> V(  1) amplitude =  0.7968
    D(181) --> V(  2) amplitude = -0.4588

 ---------------------------------------------------

                    Orbital Energies (a.u.)
 --------------------------------------------------------------

 Alpha MOs
 -- Occupied --
-10.468 -10.468 -10.466 -10.466 -10.466 -10.466 -10.466 -10.466
-10.465 -10.465 -10.464 -10.464 -10.463 -10.463 -10.463 -10.462
-10.462 -10.462 -10.459 -10.459 -10.459 -10.459 -10.459 -10.459
-10.458 -10.457 -10.456 -10.455 -10.455 -10.455 -10.453 -10.451
-10.450 -10.450 -10.448 -10.447 -10.446 -10.446 -10.446 -10.446
-10.445 -10.445 -10.444 -10.444 -10.444 -10.442 -10.439 -10.439
-10.439 -10.438 -10.433 -10.432 -10.429 -10.426  -6.952  -6.946
 -1.018  -1.017  -0.979  -0.976  -0.963  -0.961  -0.934  -0.934
 -0.925  -0.921  -0.910  -0.901  -0.872  -0.868  -0.857  -0.857
 -0.849  -0.848  -0.848  -0.847  -0.826  -0.817  -0.813  -0.811
 -0.807  -0.806  -0.767  -0.762  -0.737  -0.731  -0.728  -0.722
 -0.702  -0.700  -0.691  -0.690  -0.681  -0.675  -0.672  -0.669
 -0.667  -0.658  -0.648  -0.647  -0.598  -0.596  -0.592  -0.589
 -0.584  -0.577  -0.577  -0.577  -0.573  -0.568  -0.566  -0.550
 -0.547  -0.545  -0.532  -0.528  -0.527  -0.514  -0.509  -0.506
 -0.504  -0.504  -0.501  -0.498  -0.495  -0.491  -0.487  -0.487
 -0.486  -0.483  -0.481  -0.480  -0.480  -0.476  -0.471  -0.471
 -0.467  -0.465  -0.454  -0.452  -0.450  -0.444  -0.442  -0.440
 -0.439  -0.438  -0.435  -0.432  -0.431  -0.426  -0.423  -0.415
 -0.409  -0.402  -0.399  -0.397  -0.396  -0.394  -0.393  -0.390
 -0.387  -0.382  -0.382  -0.373  -0.371  -0.368  -0.358  -0.357
 -0.353  -0.339  -0.326  -0.323  -0.320  -0.316  -0.297  -0.296
 -0.285  -0.281  -0.280  -0.264  -0.259  -0.257  -0.248  -0.237

          Ground-State Mulliken Net Atomic Charges

     Atom                 Charge (a.u.)
  ----------------------------------------
      1 C                    -0.151917
      2 C                    -0.388488
      3 H                     0.243861
      4 C                     0.082585
      5 C                     0.106866
      6 C                    -0.396109
      7 H                     0.244196
      8 C                    -0.154698
      9 C                     0.184519
     10 C                    -0.382890
     11 H                     0.243406
     12 C                    -0.065807
     13 C                     0.230247
     14 C                     0.188833
     15 C                    -0.393043
     16 H                     0.244002
     17 C                    -0.225132
     18 H                     0.248008
     19 C                    -0.339758
     20 H                     0.244186
     21 C                    -0.345184
     22 H                     0.244461
     23 C                    -0.221854
     24 H                     0.247866
     25 B                     0.686689
     26 C                    -0.151720
     27 C                    -0.396218
     28 H                     0.244156
     29 C                     0.107073
     30 C                     0.084273
     31 C                    -0.391408
     32 H                     0.242849
     33 C                    -0.154013
     34 C                     0.183223
     35 C                    -0.382569
     36 H                     0.243501
     37 C                    -0.065246
     38 C                     0.232015
     39 C                     0.187618
     40 C                    -0.392016
     41 H                     0.244076
     42 C                    -0.225158
     43 H                     0.248086
     44 C                    -0.340780
     45 H                     0.244283
     46 C                    -0.345588
     47 H                     0.244400
     48 C                    -0.221980
     49 H                     0.247972
     50 B                     0.701140
     51 C                    -0.247031
     52 C                     0.094757
     53 C                    -0.359024
     54 H                     0.250601
     55 C                    -0.249839
     56 H                     0.238629
     57 C                    -0.250269
     58 H                     0.237047
     59 C                    -0.313304
     60 H                     0.233829
     61 C                     0.136696
     62 C                    -0.338570
     63 H                     0.230721
     64 C                    -0.280815
     65 H                     0.228932
     66 C                     0.021498
     67 C                    -0.763789
     68 H                     0.246910
     69 H                     0.250072
     70 H                     0.250014
     71 C                    -0.230760
     72 C                     0.010848
     73 C                    -0.282273
     74 H                     0.229149
     75 C                    -0.327307
     76 H                     0.232168
     77 C                     0.114126
     78 C                    -0.298675
     79 H                     0.232954
     80 C                    -0.251074
     81 H                     0.237943
     82 C                    -0.251825
     83 H                     0.239542
     84 C                    -0.344970
     85 H                     0.249499
     86 C                     0.078767
     87 C                    -0.764451
     88 H                     0.247217
     89 H                     0.249785
     90 H                     0.249461
  ----------------------------------------
  Sum of atomic charges =    -0.000000

                    Cartesian Multipole Moments
 -----------------------------------------------------------------
    Charge (ESU x 10^10)
                -0.0000
    Dipole Moment (Debye)
         X       0.2480      Y      -0.0219      Z       0.1369
       Tot       0.2841
    Quadrupole Moments (Debye-Ang)
        XX    -270.6476     XY      -2.8464     YY    -313.2458
        XZ      -6.0998     YZ      -2.1133     ZZ    -261.9255

 Total job time:  8696.74s(wall), 30310.92s(cpu)
        *  Thank you very much for using Q-Chem.  Have a nice day.  *
