 Q-Chem 5.0, Q-Chem, Inc., Pleasanton, CA (2017)
 Q-Chem 5.0.1 for Intel X86 EM64T Linux

User input:
--------------------------------------------------------------
$solvent
dielectric      2.03
dielectric_infi 2.02
$end

$rem
threads 8
jobtype	sp
method PBEh-3c
basis def2-mSVP
mem_static	1024
mem_total	14000
sym_ignore	true
cis_n_roots             2
cis_singlets            true
cis_triplets		false
rpa                     false
calc_soc 		true
cis_moments             true
cis_relaxed_density	true
solvent_method		pcm
$end

$pcm
StateSpecific   1
ChargeSeparation Excited
$end

$molecule
read moms1opt_chx.mol
$end

--------------------------------------------------------------

   15   -2123.3865651432      4.51E-09 Convergence criterion met
 Total energy in the final basis set = -2123.38656514
 Total job time:  7129.54s(wall), 23416.70s(cpu)
        *  Thank you very much for using Q-Chem.  Have a nice day.  *
 Q-Chem 5.0, Q-Chem, Inc., Pleasanton, CA (2017)
 Q-Chem 5.0.1 for Intel X86 EM64T Linux

User input:
--------------------------------------------------------------
$rem
threads 8
jobtype sp
method PBEh-3c
basis def2-mSVP
mem_static      1024
mem_total       14000
sym_ignore      true
cis_n_roots             6
cis_singlets            true
cis_triplets            true
rpa                     false
calc_soc                true
cis_moments             true
cis_relaxed_density     true
solvent_method          pcm
$end

$molecule
read
$end

$pcm
statespecific           Marcus
$end

$solvent
dielectric      2.03
dielectric_infi 2.02
$end

--------------------------------------------------------------

             Standard Nuclear Orientation (Angstroms)
    I     Atom           X                Y                Z
 ----------------------------------------------------------------
    1      C       0.0000000000     0.0000000000     0.0000000000
    2      C       0.0000000000     0.0000000000     1.4045100000
    3      H       0.9449913389     0.0000000000     1.9378248213
    4      C      -1.1803127743    -0.0005291405     2.1041689376
    5      C      -2.4324645525    -0.0030517386     1.4218243642
    6      C      -2.4568558903    -0.0008896794     0.0493027812
    7      H      -3.4126633924    -0.0067897885    -0.4670296284
    8      C      -1.2497952709     0.0000989446    -0.6934397315
    9      C      -1.4353050669    -0.0047439587     3.5375443982
   10      C      -0.6488061471    -0.0039084898     4.6630569136
   11      H       0.4326251536     0.0038797617     4.6035187202
   12      C      -2.8350143858    -0.0121482329     3.6900092377
   13      C      -3.4800557612    -0.0203658608     4.9247013799
   14      C      -3.4891934909    -0.0114798799     2.4408832892
   15      C      -4.8610441516    -0.0198403160     2.4365435339
   16      H      -5.4297115474    -0.0202997780     1.5149250895
   17      C      -1.2790880924    -0.0115780903     5.9285370367
   18      H      -0.6577821226    -0.0104917811     6.8153454831
   19      C      -2.6474784934    -0.0200292750     6.0715756626
   20      H      -3.0879247190    -0.0261741548     7.0612855118
   21      C      -4.8939093481    -0.0288058540     4.8863803166
   22      H      -5.4623871195    -0.0354693632     5.8085816742
   23      C      -5.5462869073    -0.0285366764     3.6748767384
   24      H      -6.6287811786    -0.0350918532     3.6640759605
   25      B      -1.2384564512     0.0031964635    -2.2185974373
   26      C       0.0613660102    -0.0197172283    -3.0173287161
   27      C       0.0734939537    -0.0357391086    -4.4339032007
   28      H      -0.8634065463    -0.0469221395    -4.9841843458
   29      C       1.2611791397    -0.0453564834    -5.1231021109
   30      C       2.4933399995    -0.0385516526    -4.4053312213
   31      C       2.5037500165    -0.0284099007    -3.0321701306
   32      H       3.4474277330    -0.0269056332    -2.4963359281
   33      C       1.3015283653    -0.0183794006    -2.3050738638
   34      C       3.5863279884    -0.0481329790    -5.3663086015
   35      C       4.9558079834    -0.0438269997    -5.2742414100
   36      H       5.4633090415    -0.0296626469    -4.3174626259
   37      C       2.9916876981    -0.0631993417    -6.6427033113
   38      C       3.7122685582    -0.0760255417    -7.8331218898
   39      C       1.5843472154    -0.0630018940    -6.5527711623
   40      C       0.8661325704    -0.0777290343    -7.7206601834
   41      H      -0.2168513677    -0.0789912277    -7.7256132255
   42      C       5.7114220662    -0.0558766514    -6.4685203114
   43      H       6.7917809464    -0.0517509521    -6.3968411154
   44      C       5.1245939624    -0.0720942802    -7.7132541237
   45      H       5.7442477560    -0.0810630535    -8.6016536093
   46      C       2.9433015194    -0.0909171538    -9.0206798560
   47      H       3.4346201465    -0.1014123091    -9.9859702800
   48      C       1.5689639769    -0.0917578814    -8.9488426370
   49      H       0.9978750784    -0.1033360770    -9.8683895204
   50      B       1.3285263267    -0.0142027452    -0.7694386697
   51      C      -2.6095090908     0.0610241556    -2.9869870628
   52      C      -3.3089959562    -1.1220655868    -3.3399910892
   53      C      -2.7989074781    -2.3809006805    -2.9866346619
   54      H      -1.8667760671    -2.4402983905    -2.4379615596
   55      C      -3.4772492863    -3.5425922651    -3.3314316407
   56      H      -3.0708836561    -4.5041562108    -3.0496437711
   57      C      -4.6700641852    -3.4698638169    -4.0361824719
   58      H      -5.1951632756    -4.3761401292    -4.3058715191
   59      C      -5.1959817045    -2.2346031496    -4.3988415178
   60      H      -6.1273699206    -2.1845925485    -4.9492282825
   61      C      -4.5298149840    -1.0571260790    -4.0570335790
   62      C      -5.0390838148     0.2158483066    -4.4080427554
   63      H      -5.9707150204     0.2769992934    -4.9573231210
   64      C      -4.3694595707     1.3747785631    -4.0569126157
   65      H      -4.7859209514     2.3339741189    -4.3357289781
   66      C      -3.1730211346     1.3251804687    -3.3513633150
   67      C      -2.4567344545     2.5712275046    -2.9659127393
   68      H      -2.9929311935     3.4649960507    -3.2786009392
   69      H      -2.3095243101     2.6080031788    -1.8842605336
   70      H      -1.4571089764     2.5889682685    -3.4062048441
   71      C       2.6982580494    -0.0520479802     0.0249898126
   72      C       3.2616273553    -1.2613664121     0.3867268167
   73      C       4.4647503137    -1.2931241591     1.1270040463
   74      H       4.8868649370    -2.2535347143     1.4007913394
   75      C       5.1002353939    -0.1451427169     1.5050773998
   76      H       6.0215604632    -0.1886937189     2.0743413536
   77      C       4.5620583092     1.1108560386     1.1570320050
   78      C       5.1914787756     2.3199745760     1.5325592265
   79      H       6.1128023736     2.2738043332     2.1020075768
   80      C       4.6533215046     3.5272369135     1.1864808149
   81      H       5.1431883611     4.4469411756     1.4795209755
   82      C       3.4559880336     3.5759038038     0.4448107525
   83      H       3.0333434109     4.5342762510     0.1719098984
   84      C       2.8277286140     2.4209100803     0.0698620421
   85      H       1.9071916503     2.4715488089    -0.4998047887
   86      C       3.3552745726     1.1507367513     0.4105458217
   87      C       2.5984276687    -2.5580144853     0.0118882511
   88      H       3.1894146497    -3.4185879305     0.3265966656
   89      H       2.4511126672    -2.6339828184    -1.0670626877
   90      H       1.6129021518    -2.6477022398     0.4740177097
 ----------------------------------------------------------------

   15   -2123.3865162736      4.52E-09 Convergence criterion met
 Total energy in the final basis set = -2123.38651627

         TDDFT/TDA Excitation Energies
 ---------------------------------------------------

 Excited state   1: excitation energy (eV) =    2.1822
 Total energy for state  1:                 -2123.30632274 au
    Multiplicity: Triplet
    Trans. Mom.:  0.0000 X   0.0000 Y   0.0000 Z
    Strength   :     0.0000000000
    D(177) --> V(  2) amplitude = -0.2307
    D(181) --> V(  1) amplitude =  0.7598
    D(182) --> V(  1) amplitude = -0.5043

 Excited state   2: excitation energy (eV) =    2.3998
 Total energy for state  2:                 -2123.29832379 au
    Multiplicity: Triplet
    Trans. Mom.:  0.0000 X   0.0000 Y   0.0000 Z
    Strength   :     0.0000000000
    D(180) --> V(  2) amplitude = -0.4149
    D(181) --> V(  1) amplitude =  0.4490
    D(182) --> V(  1) amplitude =  0.5599
    D(184) --> V(  1) amplitude =  0.4159

 Excited state   3: excitation energy (eV) =    2.4724
 Total energy for state  3:                 -2123.29565681 au
    Multiplicity: Triplet
    Trans. Mom.:  0.0000 X   0.0000 Y   0.0000 Z
    Strength   :     0.0000000000
    D(180) --> V(  1) amplitude =  0.4375
    D(182) --> V(  1) amplitude = -0.2850
    D(182) --> V(  2) amplitude = -0.2844
    D(184) --> V(  1) amplitude =  0.7031

 Excited state   4: excitation energy (eV) =    2.4804
 Total energy for state  4:                 -2123.29536292 au
    Multiplicity: Triplet
    Trans. Mom.:  0.0000 X   0.0000 Y   0.0000 Z
    Strength   :     0.0000000000
    D(180) --> V(  1) amplitude =  0.6120
    D(182) --> V(  2) amplitude = -0.4007
    D(184) --> V(  1) amplitude = -0.5035

 Excited state   5: excitation energy (eV) =    2.4893
 Total energy for state  5:                 -2123.29503747 au
    Multiplicity: Singlet
    Trans. Mom.: -0.1280 X  -0.0062 Y   0.2914 Z
    Strength   :     0.0061816239
    D(184) --> V(  1) amplitude =  0.9770

 Excited state   6: excitation energy (eV) =    2.6365
 Total energy for state  6:                 -2123.28962763 au
    Multiplicity: Triplet
    Trans. Mom.:  0.0000 X   0.0000 Y   0.0000 Z
    Strength   :     0.0000000000
    D(184) --> V(  5) amplitude = -0.9473

 Excited state   7: excitation energy (eV) =    2.7183
 Total energy for state  7:                 -2123.28661921 au
    Multiplicity: Triplet
    Trans. Mom.:  0.0000 X   0.0000 Y   0.0000 Z
    Strength   :     0.0000000000
    D(177) --> V(  1) amplitude = -0.7119
    D(181) --> V(  2) amplitude =  0.5073

 Excited state   8: excitation energy (eV) =    2.7678
 Total energy for state  8:                 -2123.28479988 au
    Multiplicity: Singlet
    Trans. Mom.: -0.2523 X  -0.0124 Y   0.4022 Z
    Strength   :     0.0152992135
    D(183) --> V(  1) amplitude =  0.9648

 Excited state   9: excitation energy (eV) =    2.8432
 Total energy for state  9:                 -2123.28202898 au
    Multiplicity: Singlet
    Trans. Mom.:  0.2531 X   0.0009 Y  -0.4332 Z
    Strength   :     0.0175356072
    D(181) --> V(  1) amplitude =  0.8192
    D(182) --> V(  1) amplitude = -0.5004

 Excited state  10: excitation energy (eV) =    3.0990
 Total energy for state 10:                 -2123.27263000 au
    Multiplicity: Singlet
    Trans. Mom.: -2.0218 X   0.0199 Y   3.5829 Z
    Strength   :     1.2850355755
    D(181) --> V(  1) amplitude =  0.5047
    D(182) --> V(  1) amplitude =  0.8137

 Excited state  11: excitation energy (eV) =    3.4087
 Total energy for state 11:                 -2123.26124949 au
    Multiplicity: Singlet
    Trans. Mom.:  0.1778 X  -0.0209 Y   0.0755 Z
    Strength   :     0.0031519824
    D(180) --> V(  1) amplitude =  0.9402

 Excited state  12: excitation energy (eV) =    3.6411
 Total energy for state 12:                 -2123.25270797 au
    Multiplicity: Singlet
    Trans. Mom.: -0.9520 X  -0.0755 Y  -0.5465 Z
    Strength   :     0.1079923513
    D(177) --> V(  1) amplitude =  0.7942
    D(181) --> V(  2) amplitude = -0.4532
    D(182) --> V(  2) amplitude =  0.2270

 ---------------------------------------------------

                    Orbital Energies (a.u.)
 --------------------------------------------------------------

 Alpha MOs
 -- Occupied --
-10.467 -10.467 -10.466 -10.466 -10.465 -10.465 -10.465 -10.465
-10.465 -10.465 -10.464 -10.464 -10.462 -10.462 -10.462 -10.462
-10.461 -10.461 -10.459 -10.459 -10.459 -10.459 -10.458 -10.458
-10.457 -10.456 -10.455 -10.455 -10.454 -10.454 -10.453 -10.451
-10.449 -10.449 -10.447 -10.446 -10.446 -10.445 -10.445 -10.445
-10.445 -10.445 -10.445 -10.444 -10.443 -10.442 -10.439 -10.438
-10.438 -10.437 -10.432 -10.431 -10.428 -10.426  -6.951  -6.946
 -1.017  -1.017  -0.978  -0.976  -0.962  -0.960  -0.934  -0.934
 -0.924  -0.922  -0.909  -0.900  -0.872  -0.868  -0.857  -0.856
 -0.849  -0.848  -0.847  -0.847  -0.825  -0.816  -0.813  -0.810
 -0.807  -0.805  -0.766  -0.762  -0.737  -0.731  -0.727  -0.722
 -0.702  -0.700  -0.690  -0.689  -0.680  -0.674  -0.671  -0.668
 -0.667  -0.658  -0.647  -0.647  -0.598  -0.596  -0.592  -0.589
 -0.583  -0.577  -0.576  -0.576  -0.574  -0.568  -0.566  -0.549
 -0.547  -0.545  -0.532  -0.528  -0.527  -0.513  -0.509  -0.505
 -0.504  -0.504  -0.501  -0.497  -0.495  -0.491  -0.487  -0.486
 -0.486  -0.483  -0.481  -0.480  -0.479  -0.475  -0.471  -0.471
 -0.467  -0.465  -0.454  -0.452  -0.449  -0.444  -0.441  -0.440
 -0.439  -0.438  -0.435  -0.432  -0.431  -0.425  -0.422  -0.415
 -0.409  -0.402  -0.398  -0.396  -0.396  -0.394  -0.393  -0.389
 -0.387  -0.382  -0.382  -0.372  -0.370  -0.368  -0.357  -0.357
 -0.353  -0.339  -0.325  -0.323  -0.319  -0.316  -0.297  -0.296
 -0.284  -0.281  -0.279  -0.263  -0.259  -0.256  -0.248  -0.237

          Ground-State Mulliken Net Atomic Charges

     Atom                 Charge (a.u.)
  ----------------------------------------
      1 C                    -0.151592
      2 C                    -0.387519
      3 H                     0.242623
      4 C                     0.084224
      5 C                     0.108521
      6 C                    -0.395192
      7 H                     0.241981
      8 C                    -0.154491
      9 C                     0.186277
     10 C                    -0.381741
     11 H                     0.240722
     12 C                    -0.065471
     13 C                     0.233260
     14 C                     0.190783
     15 C                    -0.392153
     16 H                     0.240826
     17 C                    -0.222563
     18 H                     0.245144
     19 C                    -0.338548
     20 H                     0.240964
     21 C                    -0.344075
     22 H                     0.241227
     23 C                    -0.219223
     24 H                     0.244894
     25 B                     0.686419
     26 C                    -0.151427
     27 C                    -0.395545
     28 H                     0.241937
     29 C                     0.108785
     30 C                     0.085945
     31 C                    -0.390449
     32 H                     0.241562
     33 C                    -0.153623
     34 C                     0.184973
     35 C                    -0.381435
     36 H                     0.240795
     37 C                    -0.064893
     38 C                     0.235025
     39 C                     0.189545
     40 C                    -0.391155
     41 H                     0.240870
     42 C                    -0.222596
     43 H                     0.245232
     44 C                    -0.339563
     45 H                     0.241071
     46 C                    -0.344474
     47 H                     0.241181
     48 C                    -0.219349
     49 H                     0.245000
     50 B                     0.702551
     51 C                    -0.246572
     52 C                     0.095078
     53 C                    -0.356458
     54 H                     0.249526
     55 C                    -0.248458
     56 H                     0.236117
     57 C                    -0.247835
     58 H                     0.234345
     59 C                    -0.311980
     60 H                     0.230598
     61 C                     0.139436
     62 C                    -0.337327
     63 H                     0.227423
     64 C                    -0.278749
     65 H                     0.226065
     66 C                     0.021206
     67 C                    -0.762713
     68 H                     0.244920
     69 H                     0.250297
     70 H                     0.250244
     71 C                    -0.231299
     72 C                     0.011689
     73 C                    -0.280138
     74 H                     0.226278
     75 C                    -0.325545
     76 H                     0.229101
     77 C                     0.116755
     78 C                    -0.296866
     79 H                     0.229842
     80 C                    -0.248487
     81 H                     0.235147
     82 C                    -0.249637
     83 H                     0.236828
     84 C                    -0.342610
     85 H                     0.247638
     86 C                     0.080007
     87 C                    -0.763502
     88 H                     0.245459
     89 H                     0.249641
     90 H                     0.249273
  ----------------------------------------
  Sum of atomic charges =    -0.000000

                    Cartesian Multipole Moments
 -----------------------------------------------------------------
    Charge (ESU x 10^10)
                -0.0000
    Dipole Moment (Debye)
         X       0.3425      Y      -0.0169      Z       0.1871
       Tot       0.3906
    Quadrupole Moments (Debye-Ang)
        XX    -272.2845     XY      -2.7762     YY    -313.5989
        XZ      -6.2867     YZ      -2.1253     ZZ    -263.7312

 Total job time:  11773.34s(wall), 52004.17s(cpu)
        *  Thank you very much for using Q-Chem.  Have a nice day.  *
