 Q-Chem 5.0, Q-Chem, Inc., Pleasanton, CA (2017)
 Q-Chem 5.0.1 for Intel X86 EM64T Linux

User input:
--------------------------------------------------------------
$solvent
dielectric      2.38
dielectric_infi 2.25
$end

$rem
threads 8
jobtype	sp
method PBEh-3c
basis def2-mSVP
mem_static	1024
mem_total	14000
sym_ignore	true
cis_n_roots             2
cis_singlets            false
cis_triplets		true
rpa                     false
calc_soc 		true
cis_moments             true
cis_relaxed_density	true
solvent_method		pcm
$end

$pcm
StateSpecific   1
ChargeSeparation Excited
$end

$molecule
read ut1opt_tol.mol
$end

--------------------------------------------------------------

   14   -2123.3874614822      9.81E-09 Convergence criterion met
 Total energy in the final basis set = -2123.38746148
 Total job time:  5989.06s(wall), 16292.99s(cpu)
        *  Thank you very much for using Q-Chem.  Have a nice day.  *
 Q-Chem 5.0, Q-Chem, Inc., Pleasanton, CA (2017)
 Q-Chem 5.0.1 for Intel X86 EM64T Linux

User input:
--------------------------------------------------------------
$rem
threads 8
jobtype sp
method PBEh-3c
basis def2-mSVP
mem_static      1024
mem_total       14000
sym_ignore      true
cis_n_roots             6
cis_singlets            true
cis_triplets            true
rpa                     false
calc_soc                true
cis_moments             true
cis_relaxed_density     true
solvent_method          pcm
$end

$molecule
read
$end

$pcm
statespecific           Marcus
$end

$solvent
dielectric      2.38
dielectric_infi 2.25
$end

--------------------------------------------------------------

             Standard Nuclear Orientation (Angstroms)
    I     Atom           X                Y                Z
 ----------------------------------------------------------------
    1      C       0.0000000000     0.0000000000     0.0000000000
    2      C       0.0000000000     0.0000000000     1.4035030000
    3      H       0.9443183464     0.0000000000     1.9377202243
    4      C      -1.1811827196     0.0003756768     2.1034064551
    5      C      -2.4299427920     0.0097159764     1.4181118687
    6      C      -2.4535978673     0.0167170426     0.0451404787
    7      H      -3.4097280507     0.0379018343    -0.4669657421
    8      C      -1.2467516378    -0.0041617163    -0.6991047825
    9      C      -1.4384998261    -0.0012346155     3.5357092543
   10      C      -0.6541199416    -0.0071604518     4.6630193377
   11      H       0.4274865394    -0.0098093138     4.6059360031
   12      C      -2.8386482630     0.0053851646     3.6847398100
   13      C      -3.4864040085     0.0045658367     4.9179084156
   14      C      -3.4897943312     0.0129197850     2.4343423905
   15      C      -4.8616100204     0.0193028565     2.4261501827
   16      H      -5.4276264754     0.0254297655     1.5029613775
   17      C      -1.2872746456    -0.0077617719     5.9270440930
   18      H      -0.6681482416    -0.0118728939     6.8153143135
   19      C      -2.6563048434    -0.0026208578     6.0666647946
   20      H      -3.0989745636    -0.0032820167     7.0553911496
   21      C      -4.9001836478     0.0111866760     4.8762417011
   22      H      -5.4709192528     0.0110369102     5.7970585862
   23      C      -5.5497833939     0.0182260505     3.6630501447
   24      H      -6.6322013248     0.0236500995     3.6496874063
   25      B      -1.2297526175     0.0273360029    -2.2317629143
   26      C       0.0874502688     0.0161326848    -3.0173330724
   27      C       0.1142010382    -0.0256563131    -4.4312377286
   28      H      -0.8159133612    -0.0576622842    -4.9919083902
   29      C       1.3095233351    -0.0402558398    -5.1105884935
   30      C       2.5337588386    -0.0185175983    -4.3848415380
   31      C       2.5306096603    -0.0001504823    -3.0112349396
   32      H       3.4687058335     0.0044850494    -2.4658468419
   33      C       1.3204693665     0.0118710633    -2.2987679180
   34      C       3.6358247580    -0.0360206202    -5.3367816467
   35      C       5.0038417262    -0.0227240637    -5.2335745099
   36      H       5.5036580712     0.0098849521    -4.2731786584
   37      C       3.0514037943    -0.0750741776    -6.6169938316
   38      C       3.7812024501    -0.1057821555    -7.8011872755
   39      C       1.6436608026    -0.0810500686    -6.5380220719
   40      C       0.9341499961    -0.1223541131    -7.7100838504
   41      H      -0.1487061932    -0.1317099122    -7.7230309377
   42      C       5.7695487839    -0.0511581309    -6.4218173579
   43      H       6.8492005700    -0.0401854709    -6.3415235710
   44      C       5.1926316432    -0.0924611638    -7.6704062713
   45      H       5.8192619593    -0.1142047022    -8.5536729780
   46      C       3.0213393872    -0.1473208352    -8.9940971985
   47      H       3.5200976053    -0.1735124111    -9.9552550878
   48      C       1.6465533541    -0.1553197452    -8.9328701257
   49      H       1.0824866605    -0.1886852444    -9.8561067605
   50      B       1.3342927560     0.0048842423    -0.7612269512
   51      C      -2.5902026883     0.1221804813    -3.0031710892
   52      C      -3.4968809861    -0.9731175770    -3.0591568027
   53      C      -3.1758034893    -2.1983381701    -2.4556619362
   54      H      -2.2216626076    -2.3094934610    -1.9565643462
   55      C      -4.0656280461    -3.2664691976    -2.4876166327
   56      H      -3.7995498404    -4.1989319310    -2.0091755539
   57      C      -5.2812587321    -3.1380473583    -3.1388458692
   58      H      -5.9726885017    -3.9693307620    -3.1668420256
   59      C      -5.6125634937    -1.9420305152    -3.7709787067
   60      H      -6.5593356271    -1.8497610000    -4.2886784517
   61      C      -4.7349489212    -0.8594181072    -3.7427823846
   62      C      -5.0439388680     0.3638110606    -4.3883712570
   63      H      -5.9847451447     0.4586356454    -4.9163375041
   64      C      -4.1651875863     1.4342497400    -4.3418006378
   65      H      -4.4361791775     2.3625228510    -4.8282481780
   66      C      -2.9608180099     1.3488457904    -3.6599598987
   67      C      -2.0567502948     2.5283384987    -3.5743854876
   68      H      -2.5506424271     3.4390946705    -3.9083603578
   69      H      -1.7012398374     2.6698577560    -2.5512167286
   70      H      -1.1614613183     2.3831124744    -4.1834148345
   71      C       2.6989777998    -0.0157583409     0.0410836853
   72      C       3.2774763910    -1.2166613555     0.4059855542
   73      C       4.4785028882    -1.2297300271     1.1504823800
   74      H       4.9138769878    -2.1834921702     1.4266060515
   75      C       5.0959692814    -0.0720001998     1.5289869672
   76      H       6.0161552796    -0.1016283942     2.1009589141
   77      C       4.5407102762     1.1758662254     1.1778790681
   78      C       5.1513078652     2.3945376996     1.5539796803
   79      H       6.0714132978     2.3623406247     2.1263250956
   80      C       4.5964505100     3.5934466356     1.2048015747
   81      H       5.0715841304     4.5206706564     1.4983142718
   82      C       3.4005685073     3.6237030785     0.4595943726
   83      H       2.9643425776     4.5754164571     0.1847913605
   84      C       2.7905090292     2.4591954600     0.0838995328
   85      H       1.8707621796     2.4973858837    -0.4881252250
   86      C       3.3360613928     1.1972942152     0.4273242720
   87      C       2.6332198963    -2.5226871344     0.0309192269
   88      H       3.2407182614    -3.3744474194     0.3376508904
   89      H       2.4787994501    -2.5976736752    -1.0471115177
   90      H       1.6530411604    -2.6307951559     0.5004379706
 ----------------------------------------------------------------

   14   -2123.3874539926      9.98E-09 Convergence criterion met
 Total energy in the final basis set = -2123.38745399

         TDDFT/TDA Excitation Energies
 ---------------------------------------------------

 Excited state   1: excitation energy (eV) =    2.1974
 Total energy for state  1:                 -2123.30670238 au
    Multiplicity: Triplet
    Trans. Mom.:  0.0000 X   0.0000 Y   0.0000 Z
    Strength   :     0.0000000000
    D(181) --> V(  1) amplitude =  0.7541
    D(182) --> V(  1) amplitude =  0.4406
    D(184) --> V(  1) amplitude = -0.2842

 Excited state   2: excitation energy (eV) =    2.3184
 Total energy for state  2:                 -2123.30225312 au
    Multiplicity: Triplet
    Trans. Mom.:  0.0000 X   0.0000 Y   0.0000 Z
    Strength   :     0.0000000000
    D(181) --> V(  1) amplitude =  0.3192
    D(184) --> V(  1) amplitude =  0.7696
    D(184) --> V(  5) amplitude =  0.3086

 Excited state   3: excitation energy (eV) =    2.4235
 Total energy for state  3:                 -2123.29839197 au
    Multiplicity: Triplet
    Trans. Mom.:  0.0000 X   0.0000 Y   0.0000 Z
    Strength   :     0.0000000000
    D(180) --> V(  2) amplitude = -0.4383
    D(181) --> V(  1) amplitude = -0.3575
    D(182) --> V(  1) amplitude =  0.6831
    D(183) --> V(  1) amplitude = -0.2221

 Excited state   4: excitation energy (eV) =    2.4984
 Total energy for state  4:                 -2123.29564005 au
    Multiplicity: Triplet
    Trans. Mom.:  0.0000 X   0.0000 Y   0.0000 Z
    Strength   :     0.0000000000
    D(180) --> V(  1) amplitude =  0.7062
    D(182) --> V(  2) amplitude = -0.4706
    D(184) --> V(  5) amplitude = -0.2357

 Excited state   5: excitation energy (eV) =    2.5060
 Total energy for state  5:                 -2123.29536200 au
    Multiplicity: Singlet
    Trans. Mom.: -0.4539 X  -0.0048 Y  -0.7108 Z
    Strength   :     0.0436738418
    D(184) --> V(  1) amplitude =  0.9756

 Excited state   6: excitation energy (eV) =    2.7069
 Total energy for state  6:                 -2123.28797566 au
    Multiplicity: Triplet
    Trans. Mom.:  0.0000 X   0.0000 Y   0.0000 Z
    Strength   :     0.0000000000
    D(177) --> V(  1) amplitude = -0.4342
    D(181) --> V(  2) amplitude = -0.3612
    D(183) --> V(  1) amplitude = -0.2408
    D(184) --> V(  1) amplitude =  0.3016
    D(184) --> V(  5) amplitude = -0.5543

 Excited state   7: excitation energy (eV) =    2.7518
 Total energy for state  7:                 -2123.28632589 au
    Multiplicity: Triplet
    Trans. Mom.:  0.0000 X   0.0000 Y   0.0000 Z
    Strength   :     0.0000000000
    D(177) --> V(  1) amplitude = -0.4281
    D(181) --> V(  2) amplitude = -0.3263
    D(183) --> V(  1) amplitude =  0.6458
    D(184) --> V(  5) amplitude =  0.2486

 Excited state   8: excitation energy (eV) =    2.7827
 Total energy for state  8:                 -2123.28519332 au
    Multiplicity: Singlet
    Trans. Mom.:  0.2008 X   0.0057 Y  -0.4726 Z
    Strength   :     0.0179780957
    D(183) --> V(  1) amplitude =  0.9669

 Excited state   9: excitation energy (eV) =    2.8572
 Total energy for state  9:                 -2123.28245385 au
    Multiplicity: Singlet
    Trans. Mom.: -0.3049 X  -0.0028 Y   0.4521 Z
    Strength   :     0.0208163295
    D(181) --> V(  1) amplitude =  0.8544
    D(182) --> V(  1) amplitude =  0.4414

 Excited state  10: excitation energy (eV) =    3.0918
 Total energy for state 10:                 -2123.27383092 au
    Multiplicity: Singlet
    Trans. Mom.: -2.0913 X   0.0570 Y   3.5487 Z
    Strength   :     1.2854516449
    D(181) --> V(  1) amplitude = -0.4440
    D(182) --> V(  1) amplitude =  0.8483

 Excited state  11: excitation energy (eV) =    3.4131
 Total energy for state 11:                 -2123.26202338 au
    Multiplicity: Singlet
    Trans. Mom.: -0.0973 X   0.0462 Y  -0.0447 Z
    Strength   :     0.0011376496
    D(180) --> V(  1) amplitude =  0.9409

 Excited state  12: excitation energy (eV) =    3.6459
 Total energy for state 12:                 -2123.25346980 au
    Multiplicity: Singlet
    Trans. Mom.: -0.9542 X  -0.0807 Y  -0.5939 Z
    Strength   :     0.1134175891
    D(177) --> V(  1) amplitude = -0.7257
    D(178) --> V(  1) amplitude = -0.3335
    D(181) --> V(  2) amplitude = -0.4619

 ---------------------------------------------------

                    Orbital Energies (a.u.)
 --------------------------------------------------------------

 Alpha MOs
 -- Occupied --
-10.467 -10.467 -10.466 -10.465 -10.465 -10.465 -10.465 -10.465
-10.465 -10.464 -10.464 -10.464 -10.462 -10.462 -10.462 -10.462
-10.462 -10.461 -10.459 -10.459 -10.459 -10.458 -10.458 -10.458
-10.458 -10.457 -10.456 -10.456 -10.455 -10.454 -10.454 -10.454
-10.449 -10.449 -10.448 -10.448 -10.447 -10.446 -10.446 -10.446
-10.446 -10.445 -10.445 -10.445 -10.444 -10.444 -10.439 -10.439
-10.438 -10.437 -10.435 -10.432 -10.428 -10.427  -6.951  -6.947
 -1.017  -1.017  -0.978  -0.977  -0.963  -0.960  -0.934  -0.933
 -0.925  -0.923  -0.910  -0.901  -0.872  -0.869  -0.857  -0.856
 -0.850  -0.848  -0.847  -0.846  -0.825  -0.817  -0.813  -0.811
 -0.808  -0.805  -0.767  -0.764  -0.737  -0.731  -0.727  -0.722
 -0.703  -0.700  -0.690  -0.689  -0.680  -0.675  -0.671  -0.669
 -0.667  -0.658  -0.648  -0.647  -0.598  -0.596  -0.591  -0.589
 -0.584  -0.577  -0.577  -0.576  -0.574  -0.568  -0.567  -0.550
 -0.549  -0.544  -0.532  -0.528  -0.527  -0.514  -0.509  -0.506
 -0.505  -0.504  -0.501  -0.498  -0.495  -0.491  -0.487  -0.487
 -0.486  -0.483  -0.482  -0.481  -0.479  -0.475  -0.472  -0.470
 -0.466  -0.465  -0.454  -0.453  -0.449  -0.444  -0.441  -0.440
 -0.440  -0.438  -0.435  -0.433  -0.431  -0.425  -0.422  -0.416
 -0.409  -0.402  -0.398  -0.396  -0.396  -0.394  -0.393  -0.390
 -0.387  -0.384  -0.381  -0.372  -0.371  -0.369  -0.358  -0.356
 -0.353  -0.340  -0.326  -0.323  -0.321  -0.315  -0.297  -0.296
 -0.284  -0.282  -0.279  -0.264  -0.259  -0.257  -0.248  -0.238

          Ground-State Mulliken Net Atomic Charges

     Atom                 Charge (a.u.)
  ----------------------------------------
      1 C                    -0.155739
      2 C                    -0.386963
      3 H                     0.243546
      4 C                     0.080819
      5 C                     0.105221
      6 C                    -0.389799
      7 H                     0.246321
      8 C                    -0.164923
      9 C                     0.185056
     10 C                    -0.382984
     11 H                     0.243284
     12 C                    -0.066696
     13 C                     0.230665
     14 C                     0.188426
     15 C                    -0.393381
     16 H                     0.243980
     17 C                    -0.225055
     18 H                     0.247807
     19 C                    -0.340035
     20 H                     0.243915
     21 C                    -0.345559
     22 H                     0.244089
     23 C                    -0.221865
     24 H                     0.247418
     25 B                     0.660808
     26 C                    -0.151108
     27 C                    -0.405350
     28 H                     0.247129
     29 C                     0.103349
     30 C                     0.084763
     31 C                    -0.391916
     32 H                     0.242830
     33 C                    -0.151363
     34 C                     0.183743
     35 C                    -0.383337
     36 H                     0.243497
     37 C                    -0.065328
     38 C                     0.232268
     39 C                     0.187458
     40 C                    -0.393449
     41 H                     0.242799
     42 C                    -0.225092
     43 H                     0.248033
     44 C                    -0.341014
     45 H                     0.244097
     46 C                    -0.345958
     47 H                     0.244227
     48 C                    -0.221898
     49 H                     0.247627
     50 B                     0.694546
     51 C                    -0.222251
     52 C                     0.079381
     53 C                    -0.352002
     54 H                     0.256238
     55 C                    -0.240756
     56 H                     0.239727
     57 C                    -0.251734
     58 H                     0.237412
     59 C                    -0.313120
     60 H                     0.233864
     61 C                     0.138036
     62 C                    -0.337088
     63 H                     0.232366
     64 C                    -0.275686
     65 H                     0.229891
     66 C                     0.012883
     67 C                    -0.753022
     68 H                     0.246320
     69 H                     0.250866
     70 H                     0.253484
     71 C                    -0.228775
     72 C                     0.012740
     73 C                    -0.280610
     74 H                     0.228939
     75 C                    -0.327713
     76 H                     0.232007
     77 C                     0.114439
     78 C                    -0.298587
     79 H                     0.232816
     80 C                    -0.251148
     81 H                     0.237792
     82 C                    -0.251222
     83 H                     0.239395
     84 C                    -0.344548
     85 H                     0.249598
     86 C                     0.078948
     87 C                    -0.764041
     88 H                     0.246921
     89 H                     0.250059
     90 H                     0.249277
  ----------------------------------------
  Sum of atomic charges =    -0.000000

                    Cartesian Multipole Moments
 -----------------------------------------------------------------
    Charge (ESU x 10^10)
                -0.0000
    Dipole Moment (Debye)
         X       0.2208      Y      -0.0708      Z      -0.0067
       Tot       0.2320
    Quadrupole Moments (Debye-Ang)
        XX    -269.5582     XY      -1.1283     YY    -314.5287
        XZ      -6.2660     YZ      -5.1022     ZZ    -261.5673

 Total job time:  9811.77s(wall), 33454.63s(cpu)
        *  Thank you very much for using Q-Chem.  Have a nice day.  *
