 Q-Chem 5.0, Q-Chem, Inc., Pleasanton, CA (2017)
 Q-Chem 5.0.1 for Intel X86 EM64T Linux

User input:
--------------------------------------------------------------
$solvent
dielectric      8.93
dielectric_infi 2.03
$end

$rem
threads 8
jobtype	sp
method PBEh-3c
basis def2-mSVP
mem_static	1024
mem_total	14000
sym_ignore	true
cis_n_roots             2
cis_singlets            false
cis_triplets		true
rpa                     false
calc_soc 		true
cis_moments             true
cis_relaxed_density	true
solvent_method		pcm
$end

$pcm
StateSpecific   1
ChargeSeparation Excited
$end

$molecule
read ut1opt_dcm.mol
$end

--------------------------------------------------------------

   14   -2123.4000704274      7.19E-09 Convergence criterion met
 Total energy in the final basis set = -2123.40007043
 Total job time:  5143.36s(wall), 13026.00s(cpu)
        *  Thank you very much for using Q-Chem.  Have a nice day.  *
 Q-Chem 5.0, Q-Chem, Inc., Pleasanton, CA (2017)
 Q-Chem 5.0.1 for Intel X86 EM64T Linux

User input:
--------------------------------------------------------------
$rem
threads 8
jobtype sp
method PBEh-3c
basis def2-mSVP
mem_static      1024
mem_total       14000
sym_ignore      true
cis_n_roots             6
cis_singlets            true
cis_triplets            true
rpa                     false
calc_soc                true
cis_moments             true
cis_relaxed_density     true
solvent_method          pcm
$end

$molecule
read
$end

$pcm
statespecific           Marcus
$end

$solvent
dielectric      8.93
dielectric_infi 2.03
$end

--------------------------------------------------------------

             Standard Nuclear Orientation (Angstroms)
    I     Atom           X                Y                Z
 ----------------------------------------------------------------
    1      C       0.0000000000     0.0000000000     0.0000000000
    2      C       0.0000000000     0.0000000000     1.4060560000
    3      H       0.9437705667     0.0000000000     1.9419981471
    4      C      -1.1801993338    -0.0013815123     2.1058678594
    5      C      -2.4332792169    -0.0035404479     1.4226839752
    6      C      -2.4578998582    -0.0033275513     0.0491116307
    7      H      -3.4132962883    -0.0069334674    -0.4671359924
    8      C      -1.2512296182    -0.0020912277    -0.6936981620
    9      C      -1.4355730093    -0.0035802837     3.5400504208
   10      C      -0.6491296287    -0.0022231165     4.6666245981
   11      H       0.4325880046     0.0020635152     4.6085673444
   12      C      -2.8359079609    -0.0075782245     3.6910470356
   13      C      -3.4820212728    -0.0106602874     4.9260147284
   14      C      -3.4901512615    -0.0075319594     2.4412253290
   15      C      -4.8628895515    -0.0108303954     2.4355462332
   16      H      -5.4310595100    -0.0106516321     1.5136362130
   17      C      -1.2807548101    -0.0052436145     5.9322256747
   18      H      -0.6601018818    -0.0039132618     6.8195458736
   19      C      -2.6501911747    -0.0095064348     6.0741438890
   20      H      -3.0919975018    -0.0117398189     7.0633109985
   21      C      -4.8966960652    -0.0143625521     4.8874200727
   22      H      -5.4652888483    -0.0168099711     5.8095960220
   23      C      -5.5484471206    -0.0144548955     3.6745972375
   24      H      -6.6309287613    -0.0171662798     3.6627377120
   25      B      -1.2478375672    -0.0009600479    -2.2207139756
   26      C       0.0564104712    -0.0134181716    -3.0164520881
   27      C       0.0664123122    -0.0234898918    -4.4327989645
   28      H      -0.8708732833    -0.0319094481    -4.9816187222
   29      C       1.2540196552    -0.0262177136    -5.1243543599
   30      C       2.4885376756    -0.0209297031    -4.4084032758
   31      C       2.5010378725    -0.0152957591    -3.0351687242
   32      H       3.4472378750    -0.0146420024    -2.5033053876
   33      C       1.2987369618    -0.0105034837    -2.3052516000
   34      C       3.5803469035    -0.0241556377    -5.3720983543
   35      C       4.9508740132    -0.0199482820    -5.2830563611
   36      H       5.4615523090    -0.0130352004    -4.3276821186
   37      C       2.9818610085    -0.0315514208    -6.6472978068
   38      C       3.6999422101    -0.0353939664    -7.8401245162
   39      C       1.5740792895    -0.0336617631    -6.5545379171
   40      C       0.8521226108    -0.0407206418    -7.7212287959
   41      H      -0.2308507285    -0.0427619413    -7.7236635250
   42      C       5.7036983596    -0.0234291027    -6.4799736965
   43      H       6.7842813929    -0.0195721576    -6.4110465338
   44      C       5.1131532230    -0.0310801468    -7.7240402002
   45      H       5.7301129934    -0.0333710067    -8.6144194024
   46      C       2.9281527093    -0.0426433977    -9.0269045164
   47      H       3.4176206749    -0.0459124727    -9.9931995876
   48      C       1.5531753322    -0.0452324989    -8.9513699293
   49      H       0.9795033238    -0.0506336445    -9.8693493214
   50      B       1.3276317836    -0.0068706332    -0.7700813030
   51      C      -2.6221853943     0.0262697120    -2.9912199042
   52      C      -3.2962514861    -1.1717956171    -3.3362075789
   53      C      -2.7656485428    -2.4218844600    -2.9780769763
   54      H      -1.8330455847    -2.4696475025    -2.4290809437
   55      C      -3.4232180072    -3.5979849183    -3.3181759605
   56      H      -2.9995303918    -4.5507452500    -3.0318907519
   57      C      -4.6163350870    -3.5499460241    -4.0233654087
   58      H      -5.1258374735    -4.4659647430    -4.2896822635
   59      C      -5.1638180748    -2.3237010012    -4.3918388393
   60      H      -6.0955315808    -2.2909636928    -4.9427587855
   61      C      -4.5182412556    -1.1333515650    -4.0548605392
   62      C      -5.0526469644     0.1252357932    -4.4144012613
   63      H      -5.9848469745     0.1648022450    -4.9643775604
   64      C      -4.4037529475     1.2999176724    -4.0695915384
   65      H      -4.8382381614     2.2490932549    -4.3547309266
   66      C      -3.2081160914     1.2758011178    -3.3644591434
   67      C      -2.5169807920     2.5403746820    -2.9891490544
   68      H      -3.0734895979     3.4184195765    -3.3100151999
   69      H      -2.3733655646     2.5925233278    -1.9076969981
   70      H      -1.5194949612     2.5785851300    -3.4327893569
   71      C       2.6997926135    -0.0250638539     0.0231950664
   72      C       3.2817686955    -1.2243372208     0.3907584891
   73      C       4.4875113677    -1.2354340506     1.1291581527
   74      H       4.9235818774    -2.1884245512     1.4071159214
   75      C       5.1079883510    -0.0763173328     1.5005499458
   76      H       6.0309154761    -0.1034212406     2.0683232045
   77      C       4.5504565281     1.1703831896     1.1465795542
   78      C       5.1644722515     2.3904065429     1.5155646005
   79      H       6.0874024937     2.3591064642     2.0835446138
   80      C       4.6087947215     3.5891813283     1.1645887333
   81      H       5.0861936807     4.5171451148     1.4523108645
   82      C       3.4089128008     3.6176212446     0.4243792078
   83      H       2.9725509362     4.5688392133     0.1475641439
   84      C       2.7959683307     2.4514256931     0.0557926875
   85      H       1.8738058577     2.4885776714    -0.5127550910
   86      C       3.3412791012     1.1892037468     0.4017317440
   87      C       2.6381269570    -2.5336785184     0.0255109251
   88      H       3.2436482133    -3.3825310654     0.3437926193
   89      H       2.4880605970    -2.6191591547    -1.0524083610
   90      H       1.6553141334    -2.6368624969     0.4907325501
 ----------------------------------------------------------------

   15   -2123.3999265290      5.47E-09 Convergence criterion met
 Total energy in the final basis set = -2123.39992653

         TDDFT/TDA Excitation Energies
 ---------------------------------------------------

 Excited state   1: excitation energy (eV) =    2.1832
 Total energy for state  1:                 -2123.31969422 au
    Multiplicity: Triplet
    Trans. Mom.:  0.0000 X   0.0000 Y   0.0000 Z
    Strength   :     0.0000000000
    D(177) --> V(  2) amplitude =  0.2270
    D(181) --> V(  1) amplitude =  0.8373
    D(182) --> V(  1) amplitude =  0.3695

 Excited state   2: excitation energy (eV) =    2.3938
 Total energy for state  2:                 -2123.31195753 au
    Multiplicity: Triplet
    Trans. Mom.:  0.0000 X   0.0000 Y   0.0000 Z
    Strength   :     0.0000000000
    D(180) --> V(  2) amplitude =  0.4347
    D(181) --> V(  1) amplitude = -0.3397
    D(182) --> V(  1) amplitude =  0.6802
    D(183) --> V(  1) amplitude =  0.2213
    D(184) --> V(  1) amplitude =  0.2750

 Excited state   3: excitation energy (eV) =    2.4695
 Total energy for state  3:                 -2123.30917572 au
    Multiplicity: Triplet
    Trans. Mom.:  0.0000 X   0.0000 Y   0.0000 Z
    Strength   :     0.0000000000
    D(180) --> V(  1) amplitude =  0.7541
    D(180) --> V(  4) amplitude = -0.2317
    D(182) --> V(  2) amplitude =  0.5029

 Excited state   4: excitation energy (eV) =    2.5050
 Total energy for state  4:                 -2123.30787130 au
    Multiplicity: Triplet
    Trans. Mom.:  0.0000 X   0.0000 Y   0.0000 Z
    Strength   :     0.0000000000
    D(182) --> V(  1) amplitude = -0.2429
    D(184) --> V(  1) amplitude =  0.9151

 Excited state   5: excitation energy (eV) =    2.5249
 Total energy for state  5:                 -2123.30713775 au
    Multiplicity: Singlet
    Trans. Mom.: -0.1230 X  -0.0061 Y   0.2824 Z
    Strength   :     0.0058706611
    D(184) --> V(  1) amplitude =  0.9769

 Excited state   6: excitation energy (eV) =    2.6351
 Total energy for state  6:                 -2123.30308864 au
    Multiplicity: Triplet
    Trans. Mom.:  0.0000 X   0.0000 Y   0.0000 Z
    Strength   :     0.0000000000
    D(184) --> V(  5) amplitude = -0.9472

 Excited state   7: excitation energy (eV) =    2.7225
 Total energy for state  7:                 -2123.29987641 au
    Multiplicity: Triplet
    Trans. Mom.:  0.0000 X   0.0000 Y   0.0000 Z
    Strength   :     0.0000000000
    D(175) --> V(  1) amplitude =  0.2313
    D(177) --> V(  1) amplitude = -0.7114
    D(181) --> V(  2) amplitude = -0.5250

 Excited state   8: excitation energy (eV) =    2.7824
 Total energy for state  8:                 -2123.29767597 au
    Multiplicity: Singlet
    Trans. Mom.: -0.2540 X  -0.0133 Y   0.4112 Z
    Strength   :     0.0159355666
    D(183) --> V(  1) amplitude =  0.9531

 Excited state   9: excitation energy (eV) =    2.8394
 Total energy for state  9:                 -2123.29558014 au
    Multiplicity: Singlet
    Trans. Mom.: -0.2573 X  -0.0029 Y   0.4365 Z
    Strength   :     0.0178590710
    D(181) --> V(  1) amplitude =  0.8838
    D(182) --> V(  1) amplitude =  0.3484

 Excited state  10: excitation energy (eV) =    3.0751
 Total energy for state 10:                 -2123.28692033 au
    Multiplicity: Singlet
    Trans. Mom.: -2.0325 X   0.0113 Y   3.6087 Z
    Strength   :     1.2923370236
    D(181) --> V(  1) amplitude = -0.3644
    D(182) --> V(  1) amplitude =  0.8857

 Excited state  11: excitation energy (eV) =    3.3858
 Total energy for state 11:                 -2123.27549981 au
    Multiplicity: Singlet
    Trans. Mom.: -0.1554 X   0.0088 Y  -0.0791 Z
    Strength   :     0.0025281114
    D(180) --> V(  1) amplitude =  0.9440

 Excited state  12: excitation energy (eV) =    3.6419
 Total energy for state 12:                 -2123.26608859 au
    Multiplicity: Singlet
    Trans. Mom.: -0.9499 X  -0.0830 Y  -0.5435 Z
    Strength   :     0.1074840182
    D(177) --> V(  1) amplitude =  0.8120
    D(181) --> V(  2) amplitude =  0.4575

 ---------------------------------------------------

                    Orbital Energies (a.u.)
 --------------------------------------------------------------

 Alpha MOs
 -- Occupied --
-10.471 -10.470 -10.468 -10.468 -10.467 -10.467 -10.467 -10.466
-10.466 -10.466 -10.466 -10.465 -10.463 -10.463 -10.463 -10.463
-10.462 -10.462 -10.461 -10.461 -10.461 -10.459 -10.459 -10.459
-10.459 -10.459 -10.459 -10.459 -10.458 -10.458 -10.458 -10.456
-10.451 -10.451 -10.450 -10.450 -10.450 -10.450 -10.449 -10.449
-10.449 -10.448 -10.448 -10.448 -10.446 -10.446 -10.442 -10.442
-10.442 -10.441 -10.436 -10.436 -10.430 -10.428  -6.955  -6.950
 -1.019  -1.019  -0.981  -0.981  -0.965  -0.962  -0.935  -0.934
 -0.928  -0.926  -0.912  -0.902  -0.875  -0.872  -0.859  -0.859
 -0.853  -0.851  -0.848  -0.847  -0.828  -0.819  -0.814  -0.813
 -0.810  -0.807  -0.769  -0.766  -0.738  -0.732  -0.728  -0.723
 -0.705  -0.703  -0.693  -0.691  -0.681  -0.678  -0.674  -0.671
 -0.670  -0.661  -0.649  -0.649  -0.599  -0.598  -0.591  -0.589
 -0.584  -0.579  -0.577  -0.577  -0.577  -0.570  -0.569  -0.552
 -0.551  -0.545  -0.533  -0.529  -0.528  -0.515  -0.511  -0.508
 -0.507  -0.505  -0.504  -0.500  -0.496  -0.493  -0.489  -0.489
 -0.488  -0.484  -0.483  -0.483  -0.480  -0.478  -0.473  -0.471
 -0.467  -0.466  -0.456  -0.454  -0.451  -0.447  -0.443  -0.443
 -0.441  -0.441  -0.437  -0.434  -0.433  -0.428  -0.424  -0.418
 -0.412  -0.403  -0.399  -0.398  -0.398  -0.394  -0.394  -0.391
 -0.389  -0.385  -0.384  -0.376  -0.373  -0.372  -0.361  -0.360
 -0.355  -0.342  -0.330  -0.326  -0.324  -0.319  -0.298  -0.297
 -0.287  -0.286  -0.283  -0.266  -0.262  -0.259  -0.252  -0.242

          Ground-State Mulliken Net Atomic Charges

     Atom                 Charge (a.u.)
  ----------------------------------------
      1 C                    -0.151957
      2 C                    -0.392314
      3 H                     0.249739
      4 C                     0.077437
      5 C                     0.100277
      6 C                    -0.399487
      7 H                     0.248755
      8 C                    -0.154947
      9 C                     0.177840
     10 C                    -0.386883
     11 H                     0.255377
     12 C                    -0.065941
     13 C                     0.216829
     14 C                     0.180713
     15 C                    -0.396579
     16 H                     0.255465
     17 C                    -0.235905
     18 H                     0.260870
     19 C                    -0.343680
     20 H                     0.258793
     21 C                    -0.348858
     22 H                     0.258972
     23 C                    -0.233429
     24 H                     0.260205
     25 B                     0.683262
     26 C                    -0.152176
     27 C                    -0.399421
     28 H                     0.248804
     29 C                     0.100381
     30 C                     0.079100
     31 C                    -0.395117
     32 H                     0.248902
     33 C                    -0.153934
     34 C                     0.176535
     35 C                    -0.386582
     36 H                     0.255566
     37 C                    -0.065335
     38 C                     0.218661
     39 C                     0.179527
     40 C                    -0.395524
     41 H                     0.255555
     42 C                    -0.235917
     43 H                     0.260875
     44 C                    -0.344753
     45 H                     0.258827
     46 C                    -0.349271
     47 H                     0.258842
     48 C                    -0.233542
     49 H                     0.260299
     50 B                     0.695340
     51 C                    -0.243946
     52 C                     0.090139
     53 C                    -0.370774
     54 H                     0.258650
     55 C                    -0.258128
     56 H                     0.250748
     57 C                    -0.262580
     58 H                     0.249450
     59 C                    -0.321834
     60 H                     0.247561
     61 C                     0.123643
     62 C                    -0.347311
     63 H                     0.244158
     64 C                    -0.291248
     65 H                     0.241883
     66 C                     0.018298
     67 C                    -0.768101
     68 H                     0.254564
     69 H                     0.251157
     70 H                     0.251369
     71 C                    -0.228076
     72 C                     0.007611
     73 C                    -0.291087
     74 H                     0.241795
     75 C                    -0.334825
     76 H                     0.245750
     77 C                     0.101581
     78 C                    -0.306369
     79 H                     0.246768
     80 C                    -0.262587
     81 H                     0.250154
     82 C                    -0.261126
     83 H                     0.251078
     84 C                    -0.355373
     85 H                     0.257135
     86 C                     0.073014
     87 C                    -0.769045
     88 H                     0.254804
     89 H                     0.250492
     90 H                     0.250413
  ----------------------------------------
  Sum of atomic charges =    -0.000000

                    Cartesian Multipole Moments
 -----------------------------------------------------------------
    Charge (ESU x 10^10)
                -0.0000
    Dipole Moment (Debye)
         X       0.3646      Y       0.0140      Z       0.2039
       Tot       0.4180
    Quadrupole Moments (Debye-Ang)
        XX    -264.3268     XY      -3.3856     YY    -311.9122
        XZ      -8.1649     YZ      -2.5866     ZZ    -253.2117

 Total job time:  8461.04s(wall), 28960.64s(cpu)
        *  Thank you very much for using Q-Chem.  Have a nice day.  *
