 Q-Chem 5.0, Q-Chem, Inc., Pleasanton, CA (2017)
 Q-Chem 5.0.1 for Intel X86 EM64T Linux

User input:
--------------------------------------------------------------
$solvent
dielectric      1.0001
dielectric_infi 1.00009
$end

$rem
threads 8
jobtype	sp
method PBEh-3c
basis def2-mSVP
mem_static	1024
mem_total	14000
sym_ignore	true
cis_n_roots             2
cis_singlets            false
cis_triplets		true
rpa                     false
calc_soc 		true
cis_moments             true
cis_relaxed_density	true
solvent_method		pcm
$end

$pcm
StateSpecific   1
ChargeSeparation Excited
$end

$molecule
read ut1opt_vac.mol
$end

--------------------------------------------------------------

   15   -2123.3709445396      7.18E-09 Convergence criterion met
 Total energy in the final basis set = -2123.37094454
 Total job time:  5493.76s(wall), 13825.46s(cpu)
        *  Thank you very much for using Q-Chem.  Have a nice day.  *
 Q-Chem 5.0, Q-Chem, Inc., Pleasanton, CA (2017)
 Q-Chem 5.0.1 for Intel X86 EM64T Linux

User input:
--------------------------------------------------------------
$rem
threads 8
jobtype sp
method PBEh-3c
basis def2-mSVP
mem_static      1024
mem_total       14000
sym_ignore      true
cis_n_roots             6
cis_singlets            true
cis_triplets            true
rpa                     false
calc_soc                true
cis_moments             true
cis_relaxed_density     true
solvent_method          pcm
$end

$molecule
read
$end

$pcm
statespecific           Marcus
$end

$solvent
dielectric      1.0001
dielectric_infi 1.00009
$end

--------------------------------------------------------------

             Standard Nuclear Orientation (Angstroms)
    I     Atom           X                Y                Z
 ----------------------------------------------------------------
    1      C       0.0000000000     0.0000000000     0.0000000000
    2      C       0.0000000000     0.0000000000     1.4022440000
    3      H       0.9435308444     0.0000000000     1.9363036129
    4      C      -1.1832979005    -0.0035230696     2.0902261978
    5      C      -1.4508561281    -0.0126113965     3.5082859931
    6      C      -0.6682044143    -0.0114387987     4.6403802215
    7      H       0.4129066640     0.0029418142     4.5856903946
    8      C      -1.3068116675    -0.0285368560     5.8961535058
    9      H      -0.6952483242    -0.0275666669     6.7890699931
   10      C      -2.6788334313    -0.0467537406     6.0264691890
   11      H      -3.1244702490    -0.0606387809     7.0134900443
   12      C      -2.8541805936    -0.0292417365     3.6472481392
   13      C      -3.5065466504    -0.0476938255     4.8778663504
   14      C      -3.5054874968    -0.0285141342     2.3940476213
   15      C      -4.8800012282    -0.0484174439     2.3797671414
   16      H      -5.4399406632    -0.0521933216     1.4537810444
   17      C      -5.5671942426    -0.0673415253     3.6122375865
   18      H      -6.6489744010    -0.0836374124     3.5979672998
   19      C      -4.9192840522    -0.0670260681     4.8281715999
   20      H      -5.4937891110    -0.0825025939     5.7460922134
   21      C      -2.4584475008    -0.0102121674     1.3866059416
   22      C      -2.4778039488    -0.0007523375     0.0161682786
   23      H      -3.4190631969    -0.0030572282    -0.5213678925
   24      C      -1.2704145609     0.0096957058    -0.7134769514
   25      B       1.3284800004    -0.0201544259    -0.7548508781
   26      C       1.2947034943     0.0100474072    -2.2829742858
   27      C       2.4978284988     0.0224759032    -3.0041456988
   28      H       3.4392629440     0.0129469829    -2.4663828040
   29      C       2.4816735520     0.0481029769    -4.3737707104
   30      C       3.5591219307     0.0700045595    -5.3329069042
   31      C       4.9318083048     0.0797341585    -5.2415119883
   32      H       5.4393156445     0.0709862742    -4.2852490377
   33      C       5.6798335783     0.1039943893    -6.4346784078
   34      H       6.7600708766     0.1123125953    -6.3697465149
   35      C       5.0854700157     0.1180499548    -7.6785663021
   36      H       5.7038428501     0.1365869462    -8.5673821669
   37      C       2.9565056622     0.0857715418    -6.6080648690
   38      C       3.6747210694     0.1091862263    -7.7995677557
   39      C       1.5468580814     0.0756099140    -6.5195407711
   40      C       0.8236894680     0.0874511292    -7.6876914817
   41      H      -0.2584670359     0.0784431711    -7.6875848252
   42      C       1.5255915642     0.1105060111    -8.9116309033
   43      H       0.9557003300     0.1195568250    -9.8312724396
   44      C       2.9016543436     0.1216887578    -8.9836977984
   45      H       3.3903232555     0.1398090260    -9.9498170957
   46      C       1.2227535833     0.0540183740    -5.1051851359
   47      C       0.0365407468     0.0425258677    -4.4179275221
   48      H      -0.9080464430     0.0466037699    -4.9498543748
   49      C       0.0295875449     0.0264923068    -3.0074157844
   50      B      -1.2963849412     0.0295223467    -2.2426529286
   51      C      -2.6673010994     0.0636165992    -3.0163043686
   52      C      -3.2508083108     1.2694817273    -3.3473365631
   53      C      -4.4713199868     1.2895515559    -4.0579364179
   54      H      -4.9152867307     2.2447346305    -4.3130283663
   55      C      -5.0968827183     0.1338282487    -4.4294264894
   56      H      -6.0316661733     0.1682831653    -4.9763658842
   57      C      -4.5357852365    -1.1185076089    -4.1049753058
   58      C      -5.1559121855    -2.3351018674    -4.4704503543
   59      H      -6.0905226380    -2.3018357829    -5.0180696469
   60      C      -4.5929428635    -3.5355450116    -4.1412040290
   61      H      -5.0766163344    -4.4608272645    -4.4260376121
   62      C      -3.3790357670    -3.5717403351    -3.4274417845
   63      H      -2.9380245840    -4.5252568228    -3.1672878379
   64      C      -2.7575169556    -2.4102746798    -3.0638925195
   65      H      -1.8234588265    -2.4531147910    -2.5155038613
   66      C      -3.3118539830    -1.1472628845    -3.3895626610
   67      C      -2.5928280060     2.5641863478    -2.9565288957
   68      H      -3.1714067194     3.4277111210    -3.2842503229
   69      H      -2.4730094622     2.6403858422    -1.8737448560
   70      H      -1.5947433136     2.6535596516    -3.3907977992
   71      C       2.6922967059    -0.0950953183     0.0397227230
   72      C       3.2243451003    -1.3215528703     0.3889298594
   73      C       4.4261124443    -1.3885668108     1.1285643190
   74      H       4.8257463673    -2.3607294393     1.3931175380
   75      C       5.0875078635    -0.2592891732     1.5154394558
   76      H       6.0077280954    -0.3301344472     2.0833580347
   77      C       4.5807287286     1.0127451806     1.1798717038
   78      C       5.2399292687     2.2017926050     1.5651086155
   79      H       6.1603648643     2.1281604377     2.1326327088
   80      C       4.7317602662     3.4246601404     1.2307532954
   81      H       5.2448717510     4.3289285623     1.5309498243
   82      C       3.5353698277     3.5099916749     0.4925112889
   83      H       3.1360297156     4.4807761307     0.2295487266
   84      C       2.8778003574     2.3750735980     0.1082042208
   85      H       1.9577999466     2.4559821532    -0.4588264334
   86      C       3.3750504391     1.0897627568     0.4355348181
   87      C       2.5311044281    -2.5987796632     0.0011829222
   88      H       3.1052949031    -3.4755378067     0.3008397224
   89      H       2.3762497001    -2.6611266144    -1.0775509043
   90      H       1.5469153962    -2.6772185808     0.4681086609
 ----------------------------------------------------------------

   15   -2123.3709445080      7.19E-09 Convergence criterion met
 Total energy in the final basis set = -2123.37094451

         TDDFT/TDA Excitation Energies
 ---------------------------------------------------

 Excited state   1: excitation energy (eV) =    1.9269
 Total energy for state  1:                 -2123.30013221 au
    Multiplicity: Triplet
    Trans. Mom.:  0.0000 X   0.0000 Y   0.0000 Z
    Strength   :     0.0000000000
    D(177) --> V(  2) amplitude =  0.2381
    D(182) --> V(  1) amplitude =  0.8955
    D(184) --> V(  1) amplitude =  0.2388

 Excited state   2: excitation energy (eV) =    2.3297
 Total energy for state  2:                 -2123.28533069 au
    Multiplicity: Triplet
    Trans. Mom.:  0.0000 X   0.0000 Y   0.0000 Z
    Strength   :     0.0000000000
    D(180) --> V(  2) amplitude =  0.4555
    D(181) --> V(  1) amplitude =  0.7756
    D(183) --> V(  1) amplitude = -0.2701

 Excited state   3: excitation energy (eV) =    2.4037
 Total energy for state  3:                 -2123.28260956 au
    Multiplicity: Triplet
    Trans. Mom.:  0.0000 X   0.0000 Y   0.0000 Z
    Strength   :     0.0000000000
    D(180) --> V(  1) amplitude =  0.7400
    D(180) --> V(  4) amplitude = -0.2170
    D(181) --> V(  2) amplitude =  0.4958

 Excited state   4: excitation energy (eV) =    2.4861
 Total energy for state  4:                 -2123.27958313 au
    Multiplicity: Triplet
    Trans. Mom.:  0.0000 X   0.0000 Y   0.0000 Z
    Strength   :     0.0000000000
    D(177) --> V(  1) amplitude = -0.7151
    D(182) --> V(  2) amplitude = -0.5216

 Excited state   5: excitation energy (eV) =    2.5943
 Total energy for state  5:                 -2123.27560701 au
    Multiplicity: Singlet
    Trans. Mom.: -0.0732 X   0.0024 Y   0.1253 Z
    Strength   :     0.0013393103
    D(182) --> V(  1) amplitude =  0.8334
    D(184) --> V(  1) amplitude =  0.4665

 Excited state   6: excitation energy (eV) =    2.6416
 Total energy for state  6:                 -2123.27386905 au
    Multiplicity: Triplet
    Trans. Mom.:  0.0000 X   0.0000 Y   0.0000 Z
    Strength   :     0.0000000000
    D(182) --> V(  1) amplitude = -0.2563
    D(183) --> V(  1) amplitude = -0.2900
    D(184) --> V(  1) amplitude =  0.8864

 Excited state   7: excitation energy (eV) =    2.6859
 Total energy for state  7:                 -2123.27223941 au
    Multiplicity: Singlet
    Trans. Mom.: -0.0175 X  -0.0001 Y   0.0227 Z
    Strength   :     0.0000542075
    D(182) --> V(  1) amplitude = -0.4890
    D(184) --> V(  1) amplitude =  0.8242

 Excited state   8: excitation energy (eV) =    2.7100
 Total energy for state  8:                 -2123.27135470 au
    Multiplicity: Triplet
    Trans. Mom.:  0.0000 X   0.0000 Y   0.0000 Z
    Strength   :     0.0000000000
    D(181) --> V(  1) amplitude =  0.2688
    D(183) --> V(  1) amplitude =  0.8857
    D(184) --> V(  1) amplitude =  0.2882

 Excited state   9: excitation energy (eV) =    2.7223
 Total energy for state  9:                 -2123.27090209 au
    Multiplicity: Singlet
    Trans. Mom.: -0.2778 X  -0.0164 Y   0.4885 Z
    Strength   :     0.0210771823
    D(183) --> V(  1) amplitude =  0.9449
    D(184) --> V(  1) amplitude =  0.2367

 Excited state  10: excitation energy (eV) =    3.1191
 Total energy for state 10:                 -2123.25631970 au
    Multiplicity: Singlet
    Trans. Mom.:  1.7931 X   0.0351 Y  -3.1556 Z
    Strength   :     1.0067349468
    D(181) --> V(  1) amplitude =  0.9452

 Excited state  11: excitation energy (eV) =    3.4301
 Total energy for state 11:                 -2123.24488961 au
    Multiplicity: Singlet
    Trans. Mom.:  0.3836 X   0.0426 Y   0.1999 Z
    Strength   :     0.0158748390
    D(177) --> V(  1) amplitude = -0.2558
    D(180) --> V(  1) amplitude =  0.8776
    D(182) --> V(  2) amplitude = -0.2161

 Excited state  12: excitation energy (eV) =    3.4603
 Total energy for state 12:                 -2123.24378218 au
    Multiplicity: Singlet
    Trans. Mom.:  0.7685 X   0.0619 Y   0.4466 Z
    Strength   :     0.0672962826
    D(177) --> V(  1) amplitude = -0.6818
    D(180) --> V(  1) amplitude = -0.3317
    D(182) --> V(  2) amplitude = -0.5220

 ---------------------------------------------------

                    Orbital Energies (a.u.)
 --------------------------------------------------------------

 Alpha MOs
 -- Occupied --
-10.465 -10.465 -10.464 -10.464 -10.464 -10.464 -10.463 -10.463
-10.462 -10.462 -10.462 -10.462 -10.461 -10.461 -10.461 -10.460
-10.459 -10.459 -10.459 -10.459 -10.458 -10.458 -10.453 -10.452
-10.452 -10.452 -10.451 -10.451 -10.451 -10.450 -10.450 -10.449
-10.446 -10.446 -10.444 -10.443 -10.443 -10.443 -10.442 -10.442
-10.442 -10.442 -10.442 -10.441 -10.441 -10.441 -10.435 -10.435
-10.434 -10.433 -10.428 -10.427 -10.427 -10.425  -6.943  -6.942
 -1.013  -1.013  -0.974  -0.974  -0.957  -0.954  -0.933  -0.933
 -0.921  -0.921  -0.904  -0.895  -0.870  -0.866  -0.856  -0.855
 -0.847  -0.847  -0.845  -0.844  -0.818  -0.815  -0.811  -0.808
 -0.806  -0.796  -0.764  -0.763  -0.733  -0.732  -0.729  -0.718
 -0.699  -0.696  -0.688  -0.687  -0.677  -0.671  -0.669  -0.668
 -0.667  -0.656  -0.642  -0.641  -0.598  -0.593  -0.592  -0.590
 -0.582  -0.576  -0.575  -0.574  -0.573  -0.565  -0.565  -0.547
 -0.546  -0.542  -0.530  -0.526  -0.526  -0.510  -0.508  -0.503
 -0.502  -0.501  -0.499  -0.498  -0.491  -0.491  -0.484  -0.483
 -0.481  -0.481  -0.479  -0.479  -0.478  -0.473  -0.471  -0.470
 -0.464  -0.464  -0.452  -0.451  -0.444  -0.443  -0.440  -0.438
 -0.437  -0.433  -0.432  -0.428  -0.428  -0.421  -0.419  -0.411
 -0.406  -0.399  -0.398  -0.395  -0.394  -0.394  -0.388  -0.386
 -0.385  -0.384  -0.376  -0.368  -0.366  -0.365  -0.354  -0.351
 -0.347  -0.335  -0.322  -0.322  -0.316  -0.314  -0.295  -0.294
 -0.276  -0.275  -0.274  -0.261  -0.254  -0.247  -0.244  -0.243

          Ground-State Mulliken Net Atomic Charges

     Atom                 Charge (a.u.)
  ----------------------------------------
      1 C                    -0.152469
      2 C                    -0.374263
      3 H                     0.233802
      4 C                     0.080665
      5 C                     0.200082
      6 C                    -0.368409
      7 H                     0.223167
      8 C                    -0.206411
      9 H                     0.227254
     10 C                    -0.330136
     11 H                     0.220437
     12 C                    -0.069643
     13 C                     0.250398
     14 C                     0.203737
     15 C                    -0.378748
     16 H                     0.222974
     17 C                    -0.203602
     18 H                     0.226819
     19 C                    -0.334874
     20 H                     0.220881
     21 C                     0.107161
     22 C                    -0.385301
     23 H                     0.233452
     24 C                    -0.157813
     25 B                     0.692047
     26 C                    -0.156340
     27 C                    -0.376328
     28 H                     0.232309
     29 C                     0.082258
     30 C                     0.198878
     31 C                    -0.368211
     32 H                     0.223108
     33 C                    -0.206415
     34 H                     0.227334
     35 C                    -0.331257
     36 H                     0.220526
     37 C                    -0.069079
     38 C                     0.252259
     39 C                     0.202450
     40 C                    -0.377882
     41 H                     0.223019
     42 C                    -0.203742
     43 H                     0.226876
     44 C                    -0.335273
     45 H                     0.220848
     46 C                     0.107490
     47 C                    -0.384755
     48 H                     0.233194
     49 C                    -0.155716
     50 B                     0.692492
     51 C                    -0.226692
     52 C                     0.018187
     53 C                    -0.265906
     54 H                     0.207693
     55 C                    -0.313770
     56 H                     0.209056
     57 C                     0.131129
     58 C                    -0.285685
     59 H                     0.209856
     60 C                    -0.231421
     61 H                     0.217177
     62 C                    -0.234788
     63 H                     0.219453
     64 C                    -0.327230
     65 H                     0.236792
     66 C                     0.083514
     67 C                    -0.756690
     68 H                     0.234375
     69 H                     0.247644
     70 H                     0.247415
     71 C                    -0.231107
     72 C                     0.017018
     73 C                    -0.265533
     74 H                     0.208230
     75 C                    -0.313599
     76 H                     0.209459
     77 C                     0.133496
     78 C                    -0.284914
     79 H                     0.210107
     80 C                    -0.231740
     81 H                     0.217427
     82 C                    -0.234437
     83 H                     0.219783
     84 C                    -0.327698
     85 H                     0.236174
     86 C                     0.084265
     87 C                    -0.756188
     88 H                     0.234662
     89 H                     0.247708
     90 H                     0.247528
  ----------------------------------------
  Sum of atomic charges =    -0.000000

                    Cartesian Multipole Moments
 -----------------------------------------------------------------
    Charge (ESU x 10^10)
                -0.0000
    Dipole Moment (Debye)
         X       0.1068      Y       0.0094      Z       0.0752
       Tot       0.1309
    Quadrupole Moments (Debye-Ang)
        XX    -279.0465     XY      -1.9159     YY    -315.3730
        XZ      -4.6335     YZ      -2.4938     ZZ    -272.3280

 Total job time:  9536.83s(wall), 33562.46s(cpu)
        *  Thank you very much for using Q-Chem.  Have a nice day.  *
