 Q-Chem 5.0, Q-Chem, Inc., Pleasanton, CA (2017)
 Q-Chem 5.0.1 for Intel X86 EM64T Linux

User input:
--------------------------------------------------------------
$solvent
dielectric      4.33
dielectric_infi 1.83
$end

$rem
threads 8
jobtype	sp
method PBEh-3c
basis def2-mSVP
mem_static	1024
mem_total	14000
sym_ignore	true
cis_n_roots             2
cis_singlets            false
cis_triplets		true
rpa                     false
calc_soc 		true
cis_moments             true
cis_relaxed_density	true
solvent_method		pcm
$end

$pcm
StateSpecific   1
ChargeSeparation Excited
$end

$molecule
read ut1opt_eth.mol
$end

--------------------------------------------------------------

   14   -2123.3951944394      7.49E-09 Convergence criterion met
 Total energy in the final basis set = -2123.39519444
 Total job time:  6935.72s(wall), 23774.12s(cpu)
        *  Thank you very much for using Q-Chem.  Have a nice day.  *
 Q-Chem 5.0, Q-Chem, Inc., Pleasanton, CA (2017)
 Q-Chem 5.0.1 for Intel X86 EM64T Linux

User input:
--------------------------------------------------------------
$rem
threads 8
jobtype sp
method PBEh-3c
basis def2-mSVP
mem_static      1024
mem_total       14000
sym_ignore      true
cis_n_roots             6
cis_singlets            true
cis_triplets            true
rpa                     false
calc_soc                true
cis_moments             true
cis_relaxed_density     true
solvent_method          pcm
$end

$molecule
read
$end

$pcm
statespecific           Marcus
$end

$solvent
dielectric      4.33
dielectric_infi 1.83
$end

--------------------------------------------------------------

             Standard Nuclear Orientation (Angstroms)
    I     Atom           X                Y                Z
 ----------------------------------------------------------------
    1      C       0.0000000000     0.0000000000     0.0000000000
    2      C       0.0000000000     0.0000000000     1.4049620000
    3      H       0.9441471390     0.0000000000     1.9399281579
    4      C      -1.1802600529    -0.0023721917     2.1052921652
    5      C      -2.4321913870    -0.0018041518     1.4218206030
    6      C      -2.4570604791     0.0034674599     0.0487859234
    7      H      -3.4129303904     0.0084528878    -0.4654256872
    8      C      -1.2502271811    -0.0029414869    -0.6955607569
    9      C      -1.4355453066    -0.0072451749     3.5385575258
   10      C      -0.6491220204    -0.0092872718     4.6649715175
   11      H       0.4324910263    -0.0045242038     4.6064599594
   12      C      -2.8357490924    -0.0113967095     3.6897681811
   13      C      -3.4816083987    -0.0190478200     4.9244742076
   14      C      -3.4895789132    -0.0080360102     2.4401273772
   15      C      -4.8620059819    -0.0129069873     2.4345611999
   16      H      -5.4300481578    -0.0108687801     1.5125676282
   17      C      -1.2804553672    -0.0164417129     5.9302545638
   18      H      -0.6597805443    -0.0176189335     6.8175352566
   19      C      -2.6496338575    -0.0216166879     6.0722539589
   20      H      -3.0910069101    -0.0272841857     7.0615832419
   21      C      -4.8958973898    -0.0239125074     4.8856552255
   22      H      -5.4647189687    -0.0300293785     5.8076718484
   23      C      -5.5476737223    -0.0208982847     3.6731494335
   24      H      -6.6301600775    -0.0246207042     3.6615407131
   25      B      -1.2411843107     0.0124235649    -2.2238887715
   26      C       0.0674634946    -0.0089457076    -3.0161624739
   27      C       0.0844730885    -0.0390996218    -4.4317591875
   28      H      -0.8497372597    -0.0570389456    -4.9861865733
   29      C       1.2746916078    -0.0547047036    -5.1185389472
   30      C       2.5053236903    -0.0432921997    -4.3988380785
   31      C       2.5116123545    -0.0270029262    -3.0257210943
   32      H       3.4545463356    -0.0254165539    -2.4883875157
   33      C       1.3062168975    -0.0123235458    -2.3023754192
   34      C       3.6009662777    -0.0604086569    -5.3580542628
   35      C       4.9704886077    -0.0556729737    -5.2636411559
   36      H       5.4769550778    -0.0340415036    -4.3063328507
   37      C       3.0078627189    -0.0860712047    -6.6351833708
   38      C       3.7303587704    -0.1100363360    -7.8246462215
   39      C       1.6000936624    -0.0849747019    -6.5477018493
   40      C       0.8829515726    -0.1110237291    -7.7164230562
   41      H      -0.2000205822    -0.1131420529    -7.7229674162
   42      C       5.7281989213    -0.0783170567    -6.4571882707
   43      H       6.8084637879    -0.0740965937    -6.3838598465
   44      C       5.1429144267    -0.1054453358    -7.7029229212
   45      H       5.7636032803    -0.1226973398    -8.5905223702
   46      C       2.9630765905    -0.1361862881    -9.0137073946
   47      H       3.4560277290    -0.1560653057    -9.9780319805
   48      C       1.5882011024    -0.1366151665    -8.9437148903
   49      H       1.0181837798    -0.1574969890    -9.8637328964
   50      B       1.3298359456    -0.0072971397    -0.7664089644
   51      C      -2.6100888114     0.0901899394    -2.9952461598
   52      C      -3.4414176981    -1.0494003090    -3.1529355140
   53      C      -3.0661737067    -2.2890127665    -2.6106461132
   54      H      -2.1343146458    -2.3701390135    -2.0650040135
   55      C      -3.8762221369    -3.4078651988    -2.7624082312
   56      H      -3.5702650313    -4.3524993931    -2.3343223426
   57      C      -5.0671873645    -3.3141913180    -3.4659872917
   58      H      -5.6948553708    -4.1864199462    -3.5881189302
   59      C      -5.4582215384    -2.0991418222    -4.0219086765
   60      H      -6.3877111664    -2.0318671184    -4.5735716215
   61      C      -4.6601428957    -0.9648358207    -3.8731185991
   62      C      -5.0340298983     0.2819627959    -4.4283894958
   63      H      -5.9626613790     0.3562207549    -4.9809035357
   64      C      -4.2352351917     1.4011747499    -4.2659498913
   65      H      -4.5526516114     2.3450887749    -4.6897102301
   66      C      -3.0423651077     1.3349766519    -3.5581227477
   67      C      -2.2031204272     2.5512514605    -3.3735998968
   68      H      -2.7212554492     3.4519853110    -3.6968551926
   69      H      -1.9094344786     2.6661503361    -2.3282912666
   70      H      -1.2742032269     2.4673331192    -3.9423014140
   71      C       2.6996846279    -0.0291558073     0.0297726791
   72      C       3.2761196736    -1.2302402356     0.3990704510
   73      C       4.4807375938    -1.2446523970     1.1385853166
   74      H       4.9131631949    -2.1988688311     1.4179771760
   75      C       5.1050049395    -0.0875256151     1.5088172425
   76      H       6.0274460605    -0.1176814115     2.0772146147
   77      C       4.5528821370     1.1607618559     1.1530460007
   78      C       5.1707750129     2.3788721398     1.5205382947
   79      H       6.0931676906     2.3452542373     2.0892262111
   80      C       4.6197306629     3.5788234176     1.1674139942
   81      H       5.1002144607     4.5054831809     1.4541382142
   82      C       3.4206856086     3.6104288411     0.4266208227
   83      H       2.9876942934     4.5626918260     0.1482900496
   84      C       2.8039011824     2.4462521884     0.0593330105
   85      H       1.8821829903     2.4855650056    -0.5095171909
   86      C       3.3447381618     1.1831085295     0.4072696775
   87      C       2.6269264773    -2.5368556002     0.0343435551
   88      H       3.2314959005    -3.3882498478     0.3478219598
   89      H       2.4715147022    -2.6195215493    -1.0429829798
   90      H       1.6462558443    -2.6377920661     0.5044731202
 ----------------------------------------------------------------

   15   -2123.3950819885      4.43E-09 Convergence criterion met
 Total energy in the final basis set = -2123.39508199

         TDDFT/TDA Excitation Energies
 ---------------------------------------------------

 Excited state   1: excitation energy (eV) =    2.1851
 Total energy for state  1:                 -2123.31478065 au
    Multiplicity: Triplet
    Trans. Mom.:  0.0000 X   0.0000 Y   0.0000 Z
    Strength   :     0.0000000000
    D(177) --> V(  2) amplitude = -0.2161
    D(181) --> V(  1) amplitude =  0.8051
    D(182) --> V(  1) amplitude =  0.4163

 Excited state   2: excitation energy (eV) =    2.3787
 Total energy for state  2:                 -2123.30766578 au
    Multiplicity: Triplet
    Trans. Mom.:  0.0000 X   0.0000 Y   0.0000 Z
    Strength   :     0.0000000000
    D(180) --> V(  2) amplitude =  0.2978
    D(181) --> V(  1) amplitude =  0.3512
    D(182) --> V(  1) amplitude = -0.3931
    D(184) --> V(  1) amplitude =  0.6393

 Excited state   3: excitation energy (eV) =    2.4269
 Total energy for state  3:                 -2123.30589601 au
    Multiplicity: Triplet
    Trans. Mom.:  0.0000 X   0.0000 Y   0.0000 Z
    Strength   :     0.0000000000
    D(180) --> V(  1) amplitude = -0.2945
    D(180) --> V(  2) amplitude = -0.3277
    D(182) --> V(  1) amplitude =  0.5659
    D(182) --> V(  2) amplitude =  0.2239
    D(184) --> V(  1) amplitude =  0.4495

 Excited state   4: excitation energy (eV) =    2.4961
 Total energy for state  4:                 -2123.30335243 au
    Multiplicity: Triplet
    Trans. Mom.:  0.0000 X   0.0000 Y   0.0000 Z
    Strength   :     0.0000000000
    D(180) --> V(  1) amplitude =  0.6605
    D(182) --> V(  2) amplitude = -0.4255
    D(184) --> V(  1) amplitude =  0.3351
    D(184) --> V(  5) amplitude = -0.2617

 Excited state   5: excitation energy (eV) =    2.5189
 Total energy for state  5:                 -2123.30251255 au
    Multiplicity: Singlet
    Trans. Mom.:  0.2146 X  -0.0011 Y   0.5363 Z
    Strength   :     0.0205907203
    D(184) --> V(  1) amplitude =  0.9762

 Excited state   6: excitation energy (eV) =    2.6899
 Total energy for state  6:                 -2123.29622969 au
    Multiplicity: Triplet
    Trans. Mom.:  0.0000 X   0.0000 Y   0.0000 Z
    Strength   :     0.0000000000
    D(177) --> V(  1) amplitude = -0.2409
    D(184) --> V(  1) amplitude =  0.3637
    D(184) --> V(  5) amplitude =  0.7608

 Excited state   7: excitation energy (eV) =    2.7323
 Total energy for state  7:                 -2123.29467190 au
    Multiplicity: Triplet
    Trans. Mom.:  0.0000 X   0.0000 Y   0.0000 Z
    Strength   :     0.0000000000
    D(177) --> V(  1) amplitude =  0.6332
    D(181) --> V(  2) amplitude = -0.4800
    D(184) --> V(  5) amplitude =  0.2489

 Excited state   8: excitation energy (eV) =    2.7851
 Total energy for state  8:                 -2123.29273257 au
    Multiplicity: Singlet
    Trans. Mom.: -0.2109 X  -0.0091 Y   0.4229 Z
    Strength   :     0.0152447473
    D(183) --> V(  1) amplitude =  0.9578

 Excited state   9: excitation energy (eV) =    2.8435
 Total energy for state  9:                 -2123.29058441 au
    Multiplicity: Singlet
    Trans. Mom.:  0.2674 X   0.0016 Y  -0.4285 Z
    Strength   :     0.0177717732
    D(181) --> V(  1) amplitude =  0.8684
    D(182) --> V(  1) amplitude =  0.3951

 Excited state  10: excitation energy (eV) =    3.0910
 Total energy for state 10:                 -2123.28149008 au
    Multiplicity: Singlet
    Trans. Mom.:  2.0241 X  -0.0445 Y  -3.5118 Z
    Strength   :     1.2443261148
    D(181) --> V(  1) amplitude = -0.4066
    D(182) --> V(  1) amplitude =  0.8663

 Excited state  11: excitation energy (eV) =    3.4047
 Total energy for state 11:                 -2123.26996029 au
    Multiplicity: Singlet
    Trans. Mom.: -0.1291 X   0.0361 Y  -0.0738 Z
    Strength   :     0.0019540917
    D(180) --> V(  1) amplitude =  0.9431

 Excited state  12: excitation energy (eV) =    3.6454
 Total energy for state 12:                 -2123.26111746 au
    Multiplicity: Singlet
    Trans. Mom.: -0.9179 X  -0.0812 Y  -0.5475 Z
    Strength   :     0.1026014259
    D(177) --> V(  1) amplitude =  0.7553
    D(178) --> V(  1) amplitude =  0.2807
    D(181) --> V(  2) amplitude = -0.4575

 ---------------------------------------------------

                    Orbital Energies (a.u.)
 --------------------------------------------------------------

 Alpha MOs
 -- Occupied --
-10.469 -10.469 -10.467 -10.467 -10.467 -10.466 -10.466 -10.466
-10.465 -10.465 -10.465 -10.465 -10.463 -10.462 -10.462 -10.462
-10.462 -10.462 -10.460 -10.460 -10.460 -10.459 -10.459 -10.459
-10.459 -10.458 -10.458 -10.457 -10.457 -10.457 -10.456 -10.455
-10.450 -10.450 -10.449 -10.449 -10.449 -10.448 -10.448 -10.448
-10.447 -10.447 -10.447 -10.447 -10.445 -10.445 -10.441 -10.441
-10.440 -10.439 -10.435 -10.434 -10.429 -10.428  -6.953  -6.949
 -1.018  -1.018  -0.980  -0.979  -0.964  -0.961  -0.934  -0.934
 -0.927  -0.925  -0.911  -0.902  -0.874  -0.870  -0.858  -0.858
 -0.852  -0.850  -0.848  -0.847  -0.827  -0.818  -0.814  -0.812
 -0.809  -0.806  -0.768  -0.765  -0.738  -0.732  -0.728  -0.722
 -0.704  -0.702  -0.692  -0.690  -0.681  -0.677  -0.673  -0.670
 -0.668  -0.660  -0.648  -0.648  -0.598  -0.597  -0.591  -0.589
 -0.584  -0.578  -0.577  -0.577  -0.575  -0.569  -0.568  -0.551
 -0.550  -0.545  -0.532  -0.528  -0.528  -0.515  -0.510  -0.507
 -0.506  -0.505  -0.503  -0.499  -0.496  -0.492  -0.488  -0.488
 -0.487  -0.484  -0.483  -0.482  -0.479  -0.477  -0.472  -0.471
 -0.466  -0.466  -0.455  -0.453  -0.450  -0.446  -0.442  -0.442
 -0.440  -0.440  -0.436  -0.433  -0.432  -0.426  -0.423  -0.417
 -0.411  -0.403  -0.398  -0.397  -0.397  -0.394  -0.393  -0.390
 -0.388  -0.385  -0.383  -0.374  -0.372  -0.371  -0.360  -0.359
 -0.354  -0.341  -0.329  -0.325  -0.323  -0.317  -0.298  -0.296
 -0.286  -0.284  -0.282  -0.265  -0.260  -0.258  -0.250  -0.241

          Ground-State Mulliken Net Atomic Charges

     Atom                 Charge (a.u.)
  ----------------------------------------
      1 C                    -0.153907
      2 C                    -0.390518
      3 H                     0.247052
      4 C                     0.079545
      5 C                     0.101283
      6 C                    -0.393482
      7 H                     0.247970
      8 C                    -0.160511
      9 C                     0.180950
     10 C                    -0.385277
     11 H                     0.250525
     12 C                    -0.066106
     13 C                     0.222621
     14 C                     0.183687
     15 C                    -0.395678
     16 H                     0.250823
     17 C                    -0.231555
     18 H                     0.255647
     19 C                    -0.342271
     20 H                     0.252838
     21 C                    -0.347822
     22 H                     0.252951
     23 C                    -0.228817
     24 H                     0.255053
     25 B                     0.668651
     26 C                    -0.151646
     27 C                    -0.401453
     28 H                     0.248377
     29 C                     0.101253
     30 C                     0.082458
     31 C                    -0.394728
     32 H                     0.246317
     33 C                    -0.151043
     34 C                     0.179565
     35 C                    -0.385468
     36 H                     0.250684
     37 C                    -0.065228
     38 C                     0.224283
     39 C                     0.183075
     40 C                    -0.394993
     41 H                     0.250450
     42 C                    -0.231622
     43 H                     0.255709
     44 C                    -0.343410
     45 H                     0.252895
     46 C                    -0.348190
     47 H                     0.252936
     48 C                    -0.228915
     49 H                     0.255210
     50 B                     0.693282
     51 C                    -0.232209
     52 C                     0.084629
     53 C                    -0.361422
     54 H                     0.258307
     55 C                    -0.250456
     56 H                     0.246276
     57 C                    -0.258255
     58 H                     0.244564
     59 C                    -0.318375
     60 H                     0.242040
     61 C                     0.130691
     62 C                    -0.343122
     63 H                     0.239419
     64 C                    -0.284470
     65 H                     0.237008
     66 C                     0.013312
     67 C                    -0.760627
     68 H                     0.250977
     69 H                     0.251269
     70 H                     0.252775
     71 C                    -0.227909
     72 C                     0.009695
     73 C                    -0.286841
     74 H                     0.236605
     75 C                    -0.332231
     76 H                     0.240236
     77 C                     0.107014
     78 C                    -0.303374
     79 H                     0.241182
     80 C                    -0.258106
     81 H                     0.245247
     82 C                    -0.257262
     83 H                     0.246457
     84 C                    -0.351005
     85 H                     0.254184
     86 C                     0.075387
     87 C                    -0.767121
     88 H                     0.251498
     89 H                     0.250440
     90 H                     0.250119
  ----------------------------------------
  Sum of atomic charges =    -0.000000

                    Cartesian Multipole Moments
 -----------------------------------------------------------------
    Charge (ESU x 10^10)
                -0.0000
    Dipole Moment (Debye)
         X       0.3432      Y      -0.0766      Z       0.0833
       Tot       0.3614
    Quadrupole Moments (Debye-Ang)
        XX    -266.8927     XY      -1.6284     YY    -313.1323
        XZ      -7.3999     YZ      -4.5490     ZZ    -256.1184

 Total job time:  11894.37s(wall), 51772.01s(cpu)
        *  Thank you very much for using Q-Chem.  Have a nice day.  *
