 Q-Chem 5.1, Q-Chem, Inc., Pleasanton, CA (2018)
 Q-Chem 5.1.1 for Intel X86 EM64T Linux

User input:
--------------------------------------------------------------
$solvent
dielectric      2.38
dielectric_infi 2.25
$end

$rem
threads 8
jobtype	sp
method PBEh-3c
basis def2-mSVP
mem_static	1024
mem_total	14000
sym_ignore	true
cis_n_roots             2
cis_singlets            false
cis_triplets		true
rpa                     false
calc_soc 		true
cis_moments             true
cis_relaxed_density	true
solvent_method		pcm
$end

$pcm
StateSpecific   1
ChargeSeparation Excited
$end

$molecule
read utleopt_tol.mol
$end

--------------------------------------------------------------

   23   -2123.3193143243      6.13e-09  Convergence criterion met
 Total energy in the final basis set =    -2123.3193143243
 Total job time:  9278.56s(wall), 39203.69s(cpu)
        *  Thank you very much for using Q-Chem.  Have a nice day.  *
 Q-Chem 5.1, Q-Chem, Inc., Pleasanton, CA (2018)
 Q-Chem 5.1.1 for Intel X86 EM64T Linux

User input:
--------------------------------------------------------------
$rem
threads 8
jobtype sp
method PBEh-3c
basis def2-mSVP
mem_static      1024
mem_total       14000
sym_ignore      true
cis_n_roots             6
cis_singlets            true
cis_triplets            true
rpa                     false
calc_soc                true
cis_moments             true
cis_relaxed_density     true
solvent_method          pcm
$end

$molecule
read
$end

$pcm
statespecific           Marcus
$end

$solvent
dielectric      2.38
dielectric_infi 2.25
$end

--------------------------------------------------------------

             Standard Nuclear Orientation (Angstroms)
    I     Atom           X                Y                Z
 ----------------------------------------------------------------
    1      C       0.0000000000     0.0000000000     0.0000000000
    2      C       0.0000000000     0.0000000000     1.4056350000
    3      H       0.9398173947     0.0000000000     1.9447249755
    4      C      -1.1888195451     0.0063997642     2.0947173110
    5      C      -2.4243028988     0.0187031994     1.3912669717
    6      C      -2.4432933159     0.0123988328     0.0171496506
    7      H      -3.3881255682     0.0204625378    -0.5149833529
    8      C      -1.2373023313     0.0007560838    -0.7024009295
    9      C      -3.5089019019     0.0387005443     2.3741509647
   10      C      -4.8789153475     0.0670531952     2.3149041539
   11      H      -5.4122145183     0.0803764137     1.3724171108
   12      C      -2.8891504259     0.0300078780     3.6375219723
   13      C      -3.5815895994     0.0431451646     4.8455531157
   14      C      -1.4862389764     0.0110310912     3.5282053697
   15      C      -0.7428027113     0.0026154664     4.6798383577
   16      H       0.3394863982    -0.0122006598     4.6620304311
   17      C      -1.4182711137     0.0122200951     5.9232525902
   18      H      -0.8294064396     0.0045610362     6.8311478527
   19      C      -2.7903904716     0.0317828690     6.0187976212
   20      H      -3.2657330778     0.0400333788     6.9923254313
   21      C      -5.6089889682     0.0824943158     3.5272408383
   22      H      -6.6901023298     0.1062689082     3.4788484333
   23      C      -4.9948694698     0.0693706388     4.7581853924
   24      H      -5.5941291890     0.0813467275     5.6606998934
   25      B      -1.2755570017     0.0021421012    -2.2433935492
   26      C       0.0462531785     0.0556076875    -3.0243095354
   27      C       0.0369972226     0.1402784188    -4.4053003619
   28      H      -0.9085638450     0.1570721502    -4.9358428708
   29      C       1.2308678440     0.2205217335    -5.1106780818
   30      C       1.5064584588     0.3681903524    -6.4897309636
   31      C       0.7247658669     0.4878766079    -7.6335124833
   32      H      -0.3562616112     0.4626155634    -7.5870343343
   33      C       1.3780920559     0.6536877619    -8.8595573195
   34      H       0.7809629380     0.7509955570    -9.7568737607
   35      C       2.7604612090     0.7038365401    -8.9723938770
   36      H       3.2111784704     0.8382539331    -9.9475879863
   37      C       3.5844386149     0.5875922016    -7.8255020029
   38      C       2.9207128570     0.4188940507    -6.6142225912
   39      C       4.9973838035     0.6323415050    -7.7519459404
   40      H       5.5812279614     0.7615458229    -8.6544343428
   41      C       5.6410095125     0.5164690774    -6.5292673089
   42      H       6.7221801534     0.5564092166    -6.5081595032
   43      C       4.9543667441     0.3540197034    -5.3185238520
   44      H       5.4996628002     0.2740139423    -4.3874076115
   45      C       3.5673892008     0.3055516454    -5.3557006944
   46      C       2.5343024837     0.1866590894    -4.3836892245
   47      C       2.5392475000     0.0968499519    -2.9995986907
   48      H       3.4771402570     0.0839818075    -2.4560143724
   49      C       1.3428641673     0.0470872346    -2.2940246691
   50      B       1.3434643999     0.0117867085    -0.7571381391
   51      C       2.6837603436     0.0177875571     0.0689353741
   52      C       3.2603802087     1.2155468664     0.4423904789
   53      C       4.4212226725     1.2152119650     1.2483743452
   54      H       4.8641793415     2.1633792761     1.5310249216
   55      C       4.9860171575     0.0497069754     1.6824944048
   56      H       5.8725941066     0.0703232848     2.3052072179
   57      C       4.4180183519    -1.1939673971     1.3322269953
   58      C       4.9623661552    -2.4189048967     1.7805707143
   59      H       5.8478406287    -2.3997402133     2.4051637134
   60      C       4.3825432329    -3.6089248917     1.4398912975
   61      H       4.8045064133    -4.5411748000     1.7920198868
   62      C       3.2297175361    -3.6257643466     0.6293554797
   63      H       2.7730905755    -4.5707255163     0.3650871747
   64      C       2.6861549751    -2.4552823264     0.1788780368
   65      H       1.7978432948    -2.4832300965    -0.4422862891
   66      C       3.2588164691    -1.2040380245     0.5151563108
   67      C       2.6407064342     2.5248835991     0.0360891850
   68      H       3.2797191655     3.3701911055     0.2909716721
   69      H       2.4498568346     2.5697350231    -1.0376375049
   70      H       1.6811541885     2.6800267460     0.5356023479
   71      C      -2.6605071016    -0.0519218542    -2.9948706151
   72      C      -3.2561734203    -1.2698673661    -3.2565029479
   73      C      -4.5059697694    -1.3198323039    -3.9143972388
   74      H      -4.9556579068    -2.2853344284    -4.1150641082
   75      C      -5.1537103107    -0.1806772581    -4.2978191017
   76      H      -6.1108601885    -0.2361614930    -4.8030888378
   77      C      -4.5863738485     1.0834856216    -4.0357989349
   78      C      -5.2377464895     2.2829140537    -4.4070349216
   79      H      -6.1943425106     2.2232125693    -4.9131895341
   80      C      -4.6783764347     3.4990431473    -4.1326533543
   81      H      -5.1865793651     4.4108649594    -4.4188284663
   82      C      -3.4360742803     3.5676822531    -3.4706957288
   83      H      -2.9990344169     4.5330578093    -3.2501993910
   84      C      -2.7829304146     2.4231160013    -3.1054447317
   85      H      -1.8301408066     2.4960463475    -2.5934830709
   86      C      -3.3301774838     1.1439706365    -3.3768734820
   87      C      -2.6019660461    -2.5512685281    -2.8205638439
   88      H      -3.1112713408    -3.4236400403    -3.2293459262
   89      H      -1.5579748503    -2.6029358626    -3.1357423372
   90      H      -2.6104358017    -2.6465276951    -1.7321814340
 ----------------------------------------------------------------

   23   -2123.3192685713      6.31e-09  Convergence criterion met
 Total energy in the final basis set =    -2123.3192685713

         TDDFT/TDA Excitation Energies
 ---------------------------------------------------

 Excited state   1: excitation energy (eV) =    0.8511
 Total energy for state  1:                 -2123.28799174 au
    <S**2>     :  2.1205
    Trans. Mom.: -0.2481 X   0.0077 Y  -0.2267 Z
    Strength   :     0.0023566012
    D(180) --> S(  1) amplitude =  0.8135 beta
    D(181) --> S(  1) amplitude = -0.4769 beta
    D(182) --> S(  1) amplitude = -0.2239 beta

 Excited state   2: excitation energy (eV) =    1.2483
 Total energy for state  2:                 -2123.27339572 au
    <S**2>     :  2.2013
    Trans. Mom.:  0.0952 X   0.0011 Y  -0.0323 Z
    Strength   :     0.0003092761
    D(183) --> S(  1) amplitude =  0.9837 beta

 Excited state   3: excitation energy (eV) =    1.3047
 Total energy for state  3:                 -2123.27132085 au
    <S**2>     :  2.1996
    Trans. Mom.: -0.1062 X   0.0425 Y  -0.0721 Z
    Strength   :     0.0005846602
    D(180) --> S(  1) amplitude =  0.1548 beta
    D(181) --> S(  1) amplitude = -0.1779 beta
    D(182) --> S(  1) amplitude =  0.9631 beta

 Excited state   4: excitation energy (eV) =    1.5422
 Total energy for state  4:                 -2123.26259419 au
    <S**2>     :  2.1673
    Trans. Mom.: -1.0760 X  -0.1335 Y   1.9135 Z
    Strength   :     0.1827557318
    S(  2) --> V(  1) amplitude =  0.8346 alpha
    S(  2) --> V(  3) amplitude = -0.1932 alpha
    D(179) --> S(  1) amplitude = -0.4573 beta

 Excited state   5: excitation energy (eV) =    1.7533
 Total energy for state  5:                 -2123.25483436 au
    <S**2>     :  2.2295
    Trans. Mom.:  0.1499 X  -0.0017 Y  -0.0627 Z
    Strength   :     0.0011339479
    D(174) --> S(  1) amplitude =  0.1761 beta
    D(180) --> S(  1) amplitude =  0.5046 beta
    D(181) --> S(  1) amplitude =  0.8309 beta

 Excited state   6: excitation energy (eV) =    1.9464
 Total energy for state  6:                 -2123.24774083 au
    <S**2>     :  2.2228
    Trans. Mom.: -2.2523 X  -0.1857 Y   3.9787 Z
    Strength   :     0.9984149964
    S(  2) --> V(  1) amplitude =  0.4299 alpha
    S(  2) --> V(  3) amplitude = -0.1607 alpha
    D(179) --> S(  1) amplitude =  0.8559 beta

 ---------------------------------------------------

                    Orbital Energies (a.u.)
 --------------------------------------------------------------

 Alpha MOs
 -- Occupied --
-10.488 -10.487 -10.472 -10.470 -10.469 -10.469 -10.467 -10.467
-10.466 -10.466 -10.464 -10.464 -10.464 -10.464 -10.463 -10.462
-10.462 -10.461 -10.460 -10.460 -10.460 -10.460 -10.460 -10.457
-10.457 -10.455 -10.454 -10.454 -10.453 -10.453 -10.453 -10.452
-10.452 -10.451 -10.451 -10.448 -10.446 -10.446 -10.445 -10.445
-10.444 -10.444 -10.444 -10.444 -10.444 -10.444 -10.442 -10.442
-10.436 -10.436 -10.427 -10.427 -10.427 -10.426  -6.937  -6.937
 -1.030  -1.016  -0.977  -0.976  -0.970  -0.960  -0.940  -0.932
 -0.923  -0.923  -0.915  -0.902  -0.876  -0.868  -0.867  -0.855
 -0.854  -0.846  -0.846  -0.845  -0.828  -0.822  -0.814  -0.810
 -0.808  -0.807  -0.765  -0.764  -0.746  -0.738  -0.727  -0.722
 -0.701  -0.698  -0.693  -0.692  -0.681  -0.673  -0.673  -0.670
 -0.669  -0.658  -0.651  -0.646  -0.604  -0.597  -0.594  -0.589
 -0.586  -0.579  -0.578  -0.575  -0.575  -0.567  -0.566  -0.548
 -0.548  -0.546  -0.536  -0.529  -0.528  -0.514  -0.513  -0.507
 -0.506  -0.505  -0.503  -0.503  -0.500  -0.496  -0.492  -0.486
 -0.486  -0.485  -0.480  -0.480  -0.479  -0.475  -0.471  -0.471
 -0.466  -0.465  -0.454  -0.453  -0.448  -0.447  -0.446  -0.441
 -0.439  -0.439  -0.438  -0.432  -0.430  -0.428  -0.424  -0.413
 -0.409  -0.407  -0.404  -0.402  -0.395  -0.395  -0.395  -0.389
 -0.389  -0.385  -0.382  -0.381  -0.371  -0.369  -0.358  -0.356
 -0.352  -0.345  -0.338  -0.325  -0.320  -0.318  -0.313  -0.298
 -0.294  -0.279  -0.278  -0.278  -0.267  -0.259  -0.247  -0.246
 -0.186

 Beta MOs
 -- Occupied --
-10.481 -10.480 -10.473 -10.472 -10.472 -10.468 -10.467 -10.467
-10.464 -10.464 -10.463 -10.463 -10.463 -10.462 -10.462 -10.462
-10.462 -10.462 -10.461 -10.461 -10.461 -10.459 -10.459 -10.457
-10.457 -10.454 -10.454 -10.453 -10.453 -10.453 -10.452 -10.451
-10.451 -10.450 -10.448 -10.448 -10.446 -10.446 -10.445 -10.445
-10.444 -10.444 -10.444 -10.444 -10.444 -10.444 -10.442 -10.442
-10.436 -10.435 -10.428 -10.427 -10.427 -10.426  -6.936  -6.935
 -1.022  -1.015  -0.976  -0.976  -0.961  -0.959  -0.936  -0.932
 -0.923  -0.923  -0.910  -0.901  -0.873  -0.867  -0.866  -0.854
 -0.851  -0.846  -0.846  -0.845  -0.819  -0.819  -0.813  -0.809
 -0.808  -0.798  -0.765  -0.764  -0.736  -0.735  -0.726  -0.720
 -0.699  -0.698  -0.690  -0.688  -0.679  -0.673  -0.670  -0.669
 -0.669  -0.657  -0.648  -0.645  -0.601  -0.595  -0.591  -0.588
 -0.584  -0.577  -0.576  -0.575  -0.574  -0.566  -0.565  -0.548
 -0.548  -0.544  -0.533  -0.528  -0.526  -0.514  -0.511  -0.506
 -0.504  -0.503  -0.503  -0.500  -0.494  -0.492  -0.485  -0.485
 -0.484  -0.483  -0.480  -0.479  -0.479  -0.474  -0.471  -0.470
 -0.466  -0.464  -0.452  -0.452  -0.446  -0.446  -0.441  -0.439
 -0.438  -0.437  -0.432  -0.429  -0.428  -0.422  -0.415  -0.412
 -0.406  -0.402  -0.401  -0.396  -0.394  -0.394  -0.393  -0.387
 -0.385  -0.385  -0.379  -0.371  -0.369  -0.362  -0.355  -0.351
 -0.343  -0.337  -0.332  -0.324  -0.319  -0.315  -0.299  -0.294
 -0.278  -0.278  -0.268  -0.263  -0.256  -0.246  -0.246

          Ground-State Mulliken Net Atomic Charges

     Atom                 Charge (a.u.)    Spin (a.u.)
  --------------------------------------------------------
      1 C                    -0.143286       0.014651
      2 C                    -0.392627      -0.005164
      3 H                     0.243527      -0.000206
      4 C                     0.094919       0.032706
      5 C                     0.085087       0.036541
      6 C                    -0.393639      -0.008543
      7 H                     0.242929      -0.000020
      8 C                    -0.147072       0.017313
      9 C                     0.186860      -0.020742
     10 C                    -0.389709       0.024263
     11 H                     0.242291      -0.001416
     12 C                    -0.065108       0.018400
     13 C                     0.229101      -0.014410
     14 C                     0.187450      -0.019836
     15 C                    -0.391677       0.023137
     16 H                     0.242274      -0.001351
     17 C                    -0.223249      -0.016235
     18 H                     0.246666       0.000791
     19 C                    -0.345102       0.022655
     20 H                     0.242487      -0.001303
     21 C                    -0.223980      -0.016690
     22 H                     0.246809       0.000808
     23 C                    -0.343757       0.023692
     24 H                     0.242567      -0.001365
     25 B                     0.654057       0.165672
     26 C                    -0.142213       0.335011
     27 C                    -0.364302      -0.250902
     28 H                     0.252854       0.010184
     29 C                     0.071802       0.453599
     30 C                     0.190157      -0.203237
     31 C                    -0.373799       0.304638
     32 H                     0.245344      -0.017961
     33 C                    -0.221837      -0.206254
     34 H                     0.250488       0.009761
     35 C                    -0.347074       0.335066
     36 H                     0.245778      -0.019521
     37 C                     0.240226      -0.194865
     38 C                    -0.064837       0.280320
     39 C                    -0.350635       0.314568
     40 H                     0.245169      -0.018316
     41 C                    -0.220833      -0.202003
     42 H                     0.249364       0.009672
     43 C                    -0.381160       0.293770
     44 H                     0.243997      -0.017283
     45 C                     0.192711      -0.211263
     46 C                     0.087051       0.458596
     47 C                    -0.377154      -0.271401
     48 H                     0.251797       0.011284
     49 C                    -0.143218       0.378699
     50 B                     0.657647       0.167135
     51 C                    -0.224084      -0.015876
     52 C                     0.012119       0.000984
     53 C                    -0.282179       0.000412
     54 H                     0.227154       0.000157
     55 C                    -0.327754      -0.000505
     56 H                     0.230354       0.000026
     57 C                     0.113593       0.000058
     58 C                    -0.300868       0.000023
     59 H                     0.231775       0.000007
     60 C                    -0.250914       0.000173
     61 H                     0.236605       0.000024
     62 C                    -0.252279      -0.000513
     63 H                     0.238094       0.000069
     64 C                    -0.340347       0.003254
     65 H                     0.250075      -0.001726
     66 C                     0.075874       0.001184
     67 C                    -0.760287       0.000987
     68 H                     0.243953       0.000895
     69 H                     0.247271      -0.000822
     70 H                     0.248789      -0.000364
     71 C                    -0.218766      -0.016222
     72 C                     0.010059       0.001308
     73 C                    -0.283459      -0.000027
     74 H                     0.227363       0.000149
     75 C                    -0.327169       0.000060
     76 H                     0.230438      -0.000008
     77 C                     0.113209      -0.000141
     78 C                    -0.299764       0.000354
     79 H                     0.231593      -0.000008
     80 C                    -0.251111      -0.000089
     81 H                     0.236602       0.000038
     82 C                    -0.251421      -0.000110
     83 H                     0.237973       0.000045
     84 C                    -0.341659       0.002938
     85 H                     0.249656      -0.001635
     86 C                     0.073695       0.001487
     87 C                    -0.760007       0.001082
     88 H                     0.244129       0.000743
     89 H                     0.247602      -0.000811
     90 H                     0.248956      -0.000247
  --------------------------------------------------------
  Sum of atomic charges =    -0.000000

                    Cartesian Multipole Moments
 -----------------------------------------------------------------
    Charge (ESU x 10^10)
                -0.0000
    Dipole Moment (Debye)
         X       0.9575      Y       0.5032      Z      -1.8454
       Tot       2.1390
    Quadrupole Moments (Debye-Ang)
        XX    -274.1065     XY       5.4172     YY    -313.6175
        XZ      -9.5440     YZ      -3.8037     ZZ    -255.7327

 Total job time:  14501.71s(wall), 54413.33s(cpu)
        *  Thank you very much for using Q-Chem.  Have a nice day.  *
