 Q-Chem 5.1, Q-Chem, Inc., Pleasanton, CA (2018)
 Q-Chem 5.1.1 for Intel X86 EM64T Linux

User input:
--------------------------------------------------------------
$solvent
dielectric      2.03
dielectric_infi 2.02
$end

$rem
threads 8
jobtype	sp
method PBEh-3c
basis def2-mSVP
mem_static	1024
mem_total	14000
sym_ignore	true
cis_n_roots             2
cis_singlets            false
cis_triplets		true
rpa                     false
calc_soc 		true
cis_moments             true
cis_relaxed_density	true
solvent_method		pcm
$end

$pcm
StateSpecific   1
ChargeSeparation Excited
$end

$molecule
read utleopt_chx.mol
$end

--------------------------------------------------------------

   23   -2123.3169968979      6.68e-09  Convergence criterion met
 Total energy in the final basis set =    -2123.3169968979
 Total job time:  9693.71s(wall), 41014.30s(cpu)
        *  Thank you very much for using Q-Chem.  Have a nice day.  *
 Q-Chem 5.1, Q-Chem, Inc., Pleasanton, CA (2018)
 Q-Chem 5.1.1 for Intel X86 EM64T Linux

User input:
--------------------------------------------------------------
$rem
threads 8
jobtype sp
method PBEh-3c
basis def2-mSVP
mem_static      1024
mem_total       14000
sym_ignore      true
cis_n_roots             6
cis_singlets            true
cis_triplets            true
rpa                     false
calc_soc                true
cis_moments             true
cis_relaxed_density     true
solvent_method          pcm
$end

$molecule
read
$end

$pcm
statespecific           Marcus
$end

$solvent
dielectric      2.03
dielectric_infi 2.02
$end

--------------------------------------------------------------

             Standard Nuclear Orientation (Angstroms)
    I     Atom           X                Y                Z
 ----------------------------------------------------------------
    1      C       0.0000000000     0.0000000000     0.0000000000
    2      C       0.0000000000     0.0000000000     1.4055460000
    3      H       0.9399945631     0.0000000000     1.9442988392
    4      C      -1.1888384122     0.0062134709     2.0944977498
    5      C      -2.4241913880     0.0185919558     1.3909895262
    6      C      -2.4431729165     0.0119933413     0.0169354704
    7      H      -3.3877715610     0.0200226727    -0.5156044785
    8      C      -1.2371907959     0.0002274688    -0.7024347234
    9      C      -3.5088235643     0.0387764095     2.3737824471
   10      C      -4.8787192315     0.0673896890     2.3144377881
   11      H      -5.4118697949     0.0809246286     1.3718869233
   12      C      -2.8892897901     0.0299329099     3.6371890113
   13      C      -3.5818161924     0.0430447453     4.8450805142
   14      C      -1.4864305905     0.0107239623     3.5279247198
   15      C      -0.7432161417     0.0019285476     4.6795754467
   16      H       0.3390531747    -0.0132241578     4.6618205125
   17      C      -1.4187093649     0.0114751060     5.9228685252
   18      H      -0.8299580486     0.0034978542     6.8308238353
   19      C      -2.7907125569     0.0313438149     6.0182765300
   20      H      -3.2660476551     0.0395338145     6.9917985011
   21      C      -5.6089240369     0.0828590842     3.5265830238
   22      H      -6.6900172549     0.1068517868     3.4780943944
   23      C      -4.9949855486     0.0695296207     4.7574793181
   24      H      -5.5944196683     0.0815233750     5.6598669548
   25      B      -1.2754014290     0.0005151906    -2.2433390046
   26      C       0.0464168506     0.0545297382    -3.0243175986
   27      C       0.0370865000     0.1386275562    -4.4052367326
   28      H      -0.9087860476     0.1547279489    -4.9352575145
   29      C       1.2308679433     0.2191880873    -5.1107272472
   30      C       1.5064408589     0.3663190083    -6.4897673122
   31      C       0.7247662832     0.4852700820    -7.6336451287
   32      H      -0.3562398657     0.4598721301    -7.5871413819
   33      C       1.3779465650     0.6505819602    -8.8596639621
   34      H       0.7807970393     0.7473260598    -9.7570169190
   35      C       2.7602429713     0.7009764288    -8.9725319832
   36      H       3.2108302438     0.8349820120    -9.9478339501
   37      C       3.5842641040     0.5855438797    -7.8257229635
   38      C       2.9205854093     0.4173355432    -6.6143243785
   39      C       4.9970888014     0.6306108246    -7.7521055353
   40      H       5.5809865958     0.7594579810    -8.6545995031
   41      C       5.6407502427     0.5154932849    -6.5294152324
   42      H       6.7219063749     0.5556236615    -6.5083866398
   43      C       4.9542451474     0.3535555824    -5.3187392724
   44      H       5.4996020675     0.2740478132    -4.3876369382
   45      C       3.5672293896     0.3047940940    -5.3557494711
   46      C       2.5343616519     0.1861304041    -4.3837130815
   47      C       2.5392175964     0.0971455373    -2.9994828165
   48      H       3.4768274232     0.0849526853    -2.4553691723
   49      C       1.3429708431     0.0472731527    -2.2940001196
   50      B       1.3434369973     0.0130634585    -0.7570328615
   51      C       2.6836773464     0.0226379686     0.0689294378
   52      C       3.2577618507     1.2221139979     0.4405878107
   53      C       4.4185718245     1.2253370506     1.2464174619
   54      H       4.8595765048     2.1748038343     1.5276973701
   55      C       4.9857445254     0.0616879267     1.6820917842
   56      H       5.8723139377     0.0851042052     2.3046867401
   57      C       4.4204065833    -1.1836309758     1.3337709273
   58      C       4.9671406288    -2.4067472619     1.7838174321
   59      H       5.8526144818    -2.3849794313     2.4082965048
   60      C       4.3896972326    -3.5983252006     1.4450126083
   61      H       4.8135611670    -4.5291685467     1.7985182909
   62      C       3.2369065773    -3.6186952434     0.6347114549
   63      H       2.7820951680    -4.5649384742     0.3720026575
   64      C       2.6910136471    -2.4500789309     0.1825631839
   65      H       1.8026183656    -2.4804493936    -0.4383154196
   66      C       3.2612297151    -1.1973052454     0.5168674295
   67      C       2.6350777598     2.5294819194     0.0325342685
   68      H       3.2720678939     3.3766742989     0.2862702182
   69      H       2.4442883262     2.5725434443    -1.0412682543
   70      H       1.6751365045     2.6830837814     0.5317499876
   71      C      -2.6600370344    -0.0561126075    -2.9950221337
   72      C      -3.2541401813    -1.2751299623    -3.2549102640
   73      C      -4.5034341663    -1.3275515583    -3.9133160148
   74      H      -4.9519736267    -2.2938594191    -4.1125894998
   75      C      -5.1521095777    -0.1898130587    -4.2990112255
   76      H      -6.1088902075    -0.2472869185    -4.8047255369
   77      C      -4.5864522954     1.0753721745    -4.0388615149
   78      C      -5.2387582819     2.2734400690    -4.4124179763
   79      H      -6.1949719559     2.2119853561    -4.9190485935
   80      C      -4.6809069315     3.4905138134    -4.1397158558
   81      H      -5.1899254969     4.4012826938    -4.4277128722
   82      C      -3.4392205309     3.5615906315    -3.4771095879
   83      H      -3.0034023238     4.5277746590    -3.2578576718
   84      C      -2.7851436546     2.4184267105    -3.1095816091
   85      H      -1.8328408319     2.4929634266    -2.5970031403
   86      C      -3.3308035747     1.1383502598    -3.3793148057
   87      C      -2.5984516173    -2.5549506668    -2.8165809811
   88      H      -3.1070276175    -3.4287515910    -3.2232311777
   89      H      -1.5546452512    -2.6062643627    -3.1324148830
   90      H      -2.6060736229    -2.6479613549    -1.7280159163
 ----------------------------------------------------------------

   23   -2123.3169927083      6.64e-09  Convergence criterion met
 Total energy in the final basis set =    -2123.3169927083

         TDDFT/TDA Excitation Energies
 ---------------------------------------------------

 Excited state   1: excitation energy (eV) =    0.8588
 Total energy for state  1:                 -2123.28543190 au
    <S**2>     :  2.1211
    Trans. Mom.: -0.2415 X   0.0069 Y  -0.2188 Z
    Strength   :     0.0022355588
    D(180) --> S(  1) amplitude =  0.8200 beta
    D(181) --> S(  1) amplitude = -0.4621 beta
    D(182) --> S(  1) amplitude = -0.2275 beta

 Excited state   2: excitation energy (eV) =    1.2438
 Total energy for state  2:                 -2123.27128533 au
    <S**2>     :  2.2017
    Trans. Mom.:  0.0951 X   0.0014 Y  -0.0341 Z
    Strength   :     0.0003108456
    D(183) --> S(  1) amplitude =  0.9835 beta

 Excited state   3: excitation energy (eV) =    1.3002
 Total energy for state  3:                 -2123.26921115 au
    <S**2>     :  2.2000
    Trans. Mom.: -0.1077 X   0.0424 Y  -0.0731 Z
    Strength   :     0.0005965278
    D(180) --> S(  1) amplitude =  0.1600 beta
    D(181) --> S(  1) amplitude = -0.1755 beta
    D(182) --> S(  1) amplitude =  0.9620 beta

 Excited state   4: excitation energy (eV) =    1.5467
 Total energy for state  4:                 -2123.26015345 au
    <S**2>     :  2.1691
    Trans. Mom.: -1.0016 X  -0.1261 Y   1.7817 Z
    Strength   :     0.1589118170
    S(  2) --> V(  1) amplitude =  0.8231 alpha
    S(  2) --> V(  3) amplitude = -0.1892 alpha
    D(179) --> S(  1) amplitude = -0.4772 beta

 Excited state   5: excitation energy (eV) =    1.7486
 Total energy for state  5:                 -2123.25273111 au
    <S**2>     :  2.2299
    Trans. Mom.:  0.1436 X  -0.0021 Y  -0.0541 Z
    Strength   :     0.0010089701
    D(174) --> S(  1) amplitude =  0.1764 beta
    D(180) --> S(  1) amplitude =  0.4890 beta
    D(181) --> S(  1) amplitude =  0.8398 beta

 Excited state   6: excitation energy (eV) =    1.9541
 Total energy for state  6:                 -2123.24517941 au
    <S**2>     :  2.2226
    Trans. Mom.: -2.2444 X  -0.1840 Y   3.9632 Z
    Strength   :     0.9947539024
    S(  2) --> V(  1) amplitude =  0.4476 alpha
    S(  2) --> V(  3) amplitude = -0.1667 alpha
    D(179) --> S(  1) amplitude =  0.8435 beta

 ---------------------------------------------------

                    Orbital Energies (a.u.)
 --------------------------------------------------------------

 Alpha MOs
 -- Occupied --
-10.488 -10.486 -10.472 -10.470 -10.469 -10.468 -10.467 -10.467
-10.466 -10.466 -10.464 -10.463 -10.463 -10.463 -10.463 -10.462
-10.462 -10.461 -10.460 -10.460 -10.460 -10.459 -10.459 -10.457
-10.456 -10.455 -10.454 -10.453 -10.452 -10.452 -10.452 -10.452
-10.452 -10.450 -10.450 -10.447 -10.445 -10.445 -10.444 -10.444
-10.444 -10.444 -10.443 -10.443 -10.443 -10.443 -10.441 -10.441
-10.436 -10.435 -10.427 -10.426 -10.426 -10.426  -6.936  -6.936
 -1.029  -1.015  -0.976  -0.976  -0.969  -0.959  -0.940  -0.931
 -0.923  -0.922  -0.915  -0.902  -0.875  -0.867  -0.867  -0.855
 -0.854  -0.846  -0.845  -0.845  -0.827  -0.822  -0.813  -0.810
 -0.808  -0.807  -0.765  -0.764  -0.746  -0.738  -0.727  -0.722
 -0.700  -0.697  -0.693  -0.691  -0.680  -0.673  -0.673  -0.670
 -0.669  -0.657  -0.650  -0.645  -0.604  -0.597  -0.594  -0.589
 -0.585  -0.578  -0.577  -0.575  -0.574  -0.566  -0.565  -0.548
 -0.547  -0.546  -0.536  -0.529  -0.528  -0.514  -0.513  -0.506
 -0.505  -0.505  -0.503  -0.502  -0.499  -0.495  -0.492  -0.486
 -0.486  -0.484  -0.480  -0.479  -0.479  -0.474  -0.471  -0.470
 -0.466  -0.465  -0.454  -0.453  -0.447  -0.447  -0.446  -0.440
 -0.439  -0.438  -0.437  -0.432  -0.429  -0.428  -0.424  -0.413
 -0.408  -0.407  -0.404  -0.402  -0.395  -0.394  -0.394  -0.388
 -0.388  -0.385  -0.381  -0.381  -0.371  -0.369  -0.357  -0.356
 -0.351  -0.345  -0.338  -0.324  -0.319  -0.317  -0.313  -0.298
 -0.293  -0.278  -0.277  -0.277  -0.266  -0.258  -0.246  -0.245
 -0.185

 Beta MOs
 -- Occupied --
-10.481 -10.479 -10.473 -10.472 -10.471 -10.468 -10.467 -10.466
-10.464 -10.463 -10.463 -10.462 -10.462 -10.462 -10.462 -10.462
-10.462 -10.461 -10.461 -10.460 -10.460 -10.459 -10.459 -10.457
-10.457 -10.454 -10.453 -10.452 -10.452 -10.452 -10.452 -10.450
-10.450 -10.450 -10.447 -10.447 -10.445 -10.445 -10.444 -10.444
-10.444 -10.444 -10.443 -10.443 -10.443 -10.443 -10.441 -10.441
-10.435 -10.435 -10.427 -10.427 -10.426 -10.426  -6.935  -6.935
 -1.022  -1.015  -0.976  -0.975  -0.961  -0.958  -0.936  -0.931
 -0.922  -0.922  -0.909  -0.901  -0.873  -0.867  -0.865  -0.853
 -0.851  -0.845  -0.845  -0.844  -0.819  -0.818  -0.813  -0.809
 -0.807  -0.797  -0.764  -0.764  -0.736  -0.735  -0.726  -0.720
 -0.699  -0.697  -0.690  -0.688  -0.679  -0.672  -0.670  -0.669
 -0.668  -0.656  -0.647  -0.645  -0.601  -0.594  -0.591  -0.588
 -0.584  -0.577  -0.576  -0.574  -0.574  -0.566  -0.565  -0.547
 -0.547  -0.543  -0.533  -0.527  -0.526  -0.513  -0.510  -0.505
 -0.504  -0.503  -0.502  -0.499  -0.493  -0.491  -0.485  -0.485
 -0.483  -0.483  -0.479  -0.479  -0.478  -0.474  -0.471  -0.470
 -0.466  -0.464  -0.452  -0.452  -0.446  -0.445  -0.440  -0.439
 -0.438  -0.436  -0.432  -0.429  -0.427  -0.422  -0.414  -0.412
 -0.406  -0.402  -0.401  -0.396  -0.394  -0.393  -0.393  -0.387
 -0.385  -0.384  -0.378  -0.370  -0.369  -0.361  -0.355  -0.351
 -0.342  -0.336  -0.332  -0.324  -0.318  -0.314  -0.299  -0.293
 -0.277  -0.277  -0.267  -0.263  -0.256  -0.246  -0.245

          Ground-State Mulliken Net Atomic Charges

     Atom                 Charge (a.u.)    Spin (a.u.)
  --------------------------------------------------------
      1 C                    -0.143072       0.014916
      2 C                    -0.391537      -0.005251
      3 H                     0.242341      -0.000198
      4 C                     0.096671       0.032723
      5 C                     0.086763       0.036493
      6 C                    -0.392667      -0.008565
      7 H                     0.241698      -0.000015
      8 C                    -0.146911       0.017499
      9 C                     0.188607      -0.020631
     10 C                    -0.388609       0.024049
     11 H                     0.239554      -0.001407
     12 C                    -0.064704       0.018476
     13 C                     0.232059      -0.014340
     14 C                     0.189208      -0.019741
     15 C                    -0.390598       0.022940
     16 H                     0.239582      -0.001342
     17 C                    -0.220669      -0.016116
     18 H                     0.243823       0.000787
     19 C                    -0.343887       0.022491
     20 H                     0.239308      -0.001297
     21 C                    -0.221415      -0.016564
     22 H                     0.243966       0.000804
     23 C                    -0.342525       0.023512
     24 H                     0.239386      -0.001358
     25 B                     0.655534       0.163734
     26 C                    -0.142261       0.336316
     27 C                    -0.363567      -0.251860
     28 H                     0.251381       0.010248
     29 C                     0.072917       0.454221
     30 C                     0.191187      -0.203386
     31 C                    -0.372874       0.305572
     32 H                     0.242505      -0.018049
     33 C                    -0.219523      -0.206584
     34 H                     0.247543       0.009798
     35 C                    -0.346393       0.335706
     36 H                     0.242438      -0.019614
     37 C                     0.242881      -0.195340
     38 C                    -0.065049       0.280119
     39 C                    -0.349920       0.315619
     40 H                     0.241866      -0.018429
     41 C                    -0.218449      -0.202377
     42 H                     0.246445       0.009708
     43 C                    -0.380249       0.294832
     44 H                     0.241114      -0.017381
     45 C                     0.193801      -0.211146
     46 C                     0.088189       0.459043
     47 C                    -0.376601      -0.272041
     48 H                     0.250335       0.011333
     49 C                    -0.143299       0.379336
     50 B                     0.659168       0.165094
     51 C                    -0.224634      -0.015685
     52 C                     0.012777       0.000952
     53 C                    -0.280046       0.000417
     54 H                     0.224393       0.000155
     55 C                    -0.325945      -0.000514
     56 H                     0.227384       0.000027
     57 C                     0.116207       0.000063
     58 C                    -0.299023       0.000022
     59 H                     0.228740       0.000008
     60 C                    -0.248333       0.000174
     61 H                     0.233899       0.000024
     62 C                    -0.250053      -0.000511
     63 H                     0.235489       0.000068
     64 C                    -0.338063       0.003236
     65 H                     0.248267      -0.001709
     66 C                     0.077017       0.001162
     67 C                    -0.759267       0.001000
     68 H                     0.242324       0.000889
     69 H                     0.246878      -0.000817
     70 H                     0.248745      -0.000362
     71 C                    -0.219206      -0.016049
     72 C                     0.010898       0.001287
     73 C                    -0.281282      -0.000031
     74 H                     0.224619       0.000148
     75 C                    -0.325403       0.000064
     76 H                     0.227469      -0.000008
     77 C                     0.115798      -0.000142
     78 C                    -0.297926       0.000362
     79 H                     0.228567      -0.000008
     80 C                    -0.248570      -0.000092
     81 H                     0.233896       0.000038
     82 C                    -0.249188      -0.000099
     83 H                     0.235387       0.000044
     84 C                    -0.339518       0.002927
     85 H                     0.247973      -0.001622
     86 C                     0.074567       0.001471
     87 C                    -0.758988       0.001085
     88 H                     0.242506       0.000736
     89 H                     0.247205      -0.000800
     90 H                     0.248949      -0.000245
  --------------------------------------------------------
  Sum of atomic charges =    -0.000000

                    Cartesian Multipole Moments
 -----------------------------------------------------------------
    Charge (ESU x 10^10)
                -0.0000
    Dipole Moment (Debye)
         X       0.8639      Y       0.4782      Z      -1.6736
       Tot       1.9431
    Quadrupole Moments (Debye-Ang)
        XX    -275.5586     XY       5.2574     YY    -313.9167
        XZ      -8.8999     YZ      -3.6598     ZZ    -258.3415

 Total job time:  14985.41s(wall), 54995.05s(cpu)
        *  Thank you very much for using Q-Chem.  Have a nice day.  *
