 Q-Chem 5.1, Q-Chem, Inc., Pleasanton, CA (2018)
 Q-Chem 5.1.1 for Intel X86 EM64T Linux

User input:
--------------------------------------------------------------
$solvent
dielectric      2.03
dielectric_infi 2.02
$end

$rem
threads 8
jobtype	sp
method PBEh-3c
basis def2-mSVP
mem_static	1024
mem_total	14000
sym_ignore	true
cis_n_roots             2
cis_singlets            false
cis_triplets		true
rpa                     false
calc_soc 		true
cis_moments             true
cis_relaxed_density	true
solvent_method		pcm
$end

$pcm
StateSpecific   1
ChargeSeparation Excited
$end

$molecule
read utleopt_chx.mol
$end

--------------------------------------------------------------

   15   -2123.3821893159      4.75e-09  Convergence criterion met
 Total energy in the final basis set =    -2123.3821893159
 Total job time:  4914.37s(wall), 19168.05s(cpu)
        *  Thank you very much for using Q-Chem.  Have a nice day.  *
 Q-Chem 5.1, Q-Chem, Inc., Pleasanton, CA (2018)
 Q-Chem 5.1.1 for Intel X86 EM64T Linux

User input:
--------------------------------------------------------------
$rem
threads 8
jobtype sp
method PBEh-3c
basis def2-mSVP
mem_static      1024
mem_total       14000
sym_ignore      true
cis_n_roots             6
cis_singlets            true
cis_triplets            true
rpa                     false
calc_soc                true
cis_moments             true
cis_relaxed_density     true
solvent_method          pcm
$end

$molecule
read
$end

$pcm
statespecific           Marcus
$end

$solvent
dielectric      2.03
dielectric_infi 2.02
$end

--------------------------------------------------------------

             Standard Nuclear Orientation (Angstroms)
    I     Atom           X                Y                Z
 ----------------------------------------------------------------
    1      C       0.0000000000     0.0000000000     0.0000000000
    2      C       0.0000000000     0.0000000000     1.4055460000
    3      H       0.9399945631     0.0000000000     1.9442988392
    4      C      -1.1888384122     0.0062134709     2.0944977498
    5      C      -2.4241913880     0.0185919558     1.3909895262
    6      C      -2.4431729165     0.0119933413     0.0169354704
    7      H      -3.3877715610     0.0200226727    -0.5156044785
    8      C      -1.2371907959     0.0002274688    -0.7024347234
    9      C      -3.5088235643     0.0387764095     2.3737824471
   10      C      -4.8787192315     0.0673896890     2.3144377881
   11      H      -5.4118697949     0.0809246286     1.3718869233
   12      C      -2.8892897901     0.0299329099     3.6371890113
   13      C      -3.5818161924     0.0430447453     4.8450805142
   14      C      -1.4864305905     0.0107239623     3.5279247198
   15      C      -0.7432161417     0.0019285476     4.6795754467
   16      H       0.3390531747    -0.0132241578     4.6618205125
   17      C      -1.4187093649     0.0114751060     5.9228685252
   18      H      -0.8299580486     0.0034978542     6.8308238353
   19      C      -2.7907125569     0.0313438149     6.0182765300
   20      H      -3.2660476551     0.0395338145     6.9917985011
   21      C      -5.6089240369     0.0828590842     3.5265830238
   22      H      -6.6900172549     0.1068517868     3.4780943944
   23      C      -4.9949855486     0.0695296207     4.7574793181
   24      H      -5.5944196683     0.0815233750     5.6598669548
   25      B      -1.2754014290     0.0005151906    -2.2433390046
   26      C       0.0464168506     0.0545297382    -3.0243175986
   27      C       0.0370865000     0.1386275562    -4.4052367326
   28      H      -0.9087860476     0.1547279489    -4.9352575145
   29      C       1.2308679433     0.2191880873    -5.1107272472
   30      C       1.5064408589     0.3663190083    -6.4897673122
   31      C       0.7247662832     0.4852700820    -7.6336451287
   32      H      -0.3562398657     0.4598721301    -7.5871413819
   33      C       1.3779465650     0.6505819602    -8.8596639621
   34      H       0.7807970393     0.7473260598    -9.7570169190
   35      C       2.7602429713     0.7009764288    -8.9725319832
   36      H       3.2108302438     0.8349820120    -9.9478339501
   37      C       3.5842641040     0.5855438797    -7.8257229635
   38      C       2.9205854093     0.4173355432    -6.6143243785
   39      C       4.9970888014     0.6306108246    -7.7521055353
   40      H       5.5809865958     0.7594579810    -8.6545995031
   41      C       5.6407502427     0.5154932849    -6.5294152324
   42      H       6.7219063749     0.5556236615    -6.5083866398
   43      C       4.9542451474     0.3535555824    -5.3187392724
   44      H       5.4996020675     0.2740478132    -4.3876369382
   45      C       3.5672293896     0.3047940940    -5.3557494711
   46      C       2.5343616519     0.1861304041    -4.3837130815
   47      C       2.5392175964     0.0971455373    -2.9994828165
   48      H       3.4768274232     0.0849526853    -2.4553691723
   49      C       1.3429708431     0.0472731527    -2.2940001196
   50      B       1.3434369973     0.0130634585    -0.7570328615
   51      C       2.6836773464     0.0226379686     0.0689294378
   52      C       3.2577618507     1.2221139979     0.4405878107
   53      C       4.4185718245     1.2253370506     1.2464174619
   54      H       4.8595765048     2.1748038343     1.5276973701
   55      C       4.9857445254     0.0616879267     1.6820917842
   56      H       5.8723139377     0.0851042052     2.3046867401
   57      C       4.4204065833    -1.1836309758     1.3337709273
   58      C       4.9671406288    -2.4067472619     1.7838174321
   59      H       5.8526144818    -2.3849794313     2.4082965048
   60      C       4.3896972326    -3.5983252006     1.4450126083
   61      H       4.8135611670    -4.5291685467     1.7985182909
   62      C       3.2369065773    -3.6186952434     0.6347114549
   63      H       2.7820951680    -4.5649384742     0.3720026575
   64      C       2.6910136471    -2.4500789309     0.1825631839
   65      H       1.8026183656    -2.4804493936    -0.4383154196
   66      C       3.2612297151    -1.1973052454     0.5168674295
   67      C       2.6350777598     2.5294819194     0.0325342685
   68      H       3.2720678939     3.3766742989     0.2862702182
   69      H       2.4442883262     2.5725434443    -1.0412682543
   70      H       1.6751365045     2.6830837814     0.5317499876
   71      C      -2.6600370344    -0.0561126075    -2.9950221337
   72      C      -3.2541401813    -1.2751299623    -3.2549102640
   73      C      -4.5034341663    -1.3275515583    -3.9133160148
   74      H      -4.9519736267    -2.2938594191    -4.1125894998
   75      C      -5.1521095777    -0.1898130587    -4.2990112255
   76      H      -6.1088902075    -0.2472869185    -4.8047255369
   77      C      -4.5864522954     1.0753721745    -4.0388615149
   78      C      -5.2387582819     2.2734400690    -4.4124179763
   79      H      -6.1949719559     2.2119853561    -4.9190485935
   80      C      -4.6809069315     3.4905138134    -4.1397158558
   81      H      -5.1899254969     4.4012826938    -4.4277128722
   82      C      -3.4392205309     3.5615906315    -3.4771095879
   83      H      -3.0034023238     4.5277746590    -3.2578576718
   84      C      -2.7851436546     2.4184267105    -3.1095816091
   85      H      -1.8328408319     2.4929634266    -2.5970031403
   86      C      -3.3308035747     1.1383502598    -3.3793148057
   87      C      -2.5984516173    -2.5549506668    -2.8165809811
   88      H      -3.1070276175    -3.4287515910    -3.2232311777
   89      H      -1.5546452512    -2.6062643627    -3.1324148830
   90      H      -2.6060736229    -2.6479613549    -1.7280159163
 ----------------------------------------------------------------

   15   -2123.3821881373      4.96e-09  Convergence criterion met
 Total energy in the final basis set =    -2123.3821881373

         TDDFT/TDA Excitation Energies
 ---------------------------------------------------

 Excited state   1: excitation energy (eV) =    1.8842
 Total energy for state  1:                 -2123.31294611 au
    Multiplicity: Triplet
    Trans. Mom.:  0.0000 X   0.0000 Y   0.0000 Z
    Strength   :     0.0000000000
    D(182) --> V(  1) amplitude =  0.8565
    D(184) --> V(  1) amplitude = -0.3243

 Excited state   2: excitation energy (eV) =    2.2404
 Total energy for state  2:                 -2123.29985404 au
    Multiplicity: Triplet
    Trans. Mom.:  0.0000 X   0.0000 Y   0.0000 Z
    Strength   :     0.0000000000
    D(180) --> V(  1) amplitude = -0.5589
    D(180) --> V(  2) amplitude =  0.3784
    D(181) --> V(  1) amplitude =  0.5846
    D(181) --> V(  2) amplitude = -0.2233
    D(183) --> V(  1) amplitude = -0.2161

 Excited state   3: excitation energy (eV) =    2.4756
 Total energy for state  3:                 -2123.29121197 au
    Multiplicity: Triplet
    Trans. Mom.:  0.0000 X   0.0000 Y   0.0000 Z
    Strength   :     0.0000000000
    D(180) --> V(  1) amplitude =  0.5024
    D(180) --> V(  2) amplitude =  0.2586
    D(181) --> V(  1) amplitude =  0.4577
    D(181) --> V(  2) amplitude =  0.4911

 Excited state   4: excitation energy (eV) =    2.5451
 Total energy for state  4:                 -2123.28865732 au
    Multiplicity: Triplet
    Trans. Mom.:  0.0000 X   0.0000 Y   0.0000 Z
    Strength   :     0.0000000000
    D(177) --> V(  1) amplitude = -0.2480
    D(179) --> V(  1) amplitude =  0.6313
    D(182) --> V(  2) amplitude =  0.5141

 Excited state   5: excitation energy (eV) =    2.5958
 Total energy for state  5:                 -2123.28679583 au
    Multiplicity: Singlet
    Trans. Mom.: -0.3240 X   0.0281 Y  -0.3369 Z
    Strength   :     0.0139456431
    D(182) --> V(  1) amplitude =  0.8509
    D(184) --> V(  1) amplitude = -0.4507

 Excited state   6: excitation energy (eV) =    2.7092
 Total energy for state  6:                 -2123.28262742 au
    Multiplicity: Triplet
    Trans. Mom.:  0.0000 X   0.0000 Y   0.0000 Z
    Strength   :     0.0000000000
    D(182) --> V(  1) amplitude =  0.3571
    D(184) --> V(  1) amplitude =  0.8751

 Excited state   7: excitation energy (eV) =    2.7481
 Total energy for state  7:                 -2123.28119807 au
    Multiplicity: Singlet
    Trans. Mom.: -0.0689 X   0.0473 Y  -0.1544 Z
    Strength   :     0.0020756256
    D(182) --> V(  1) amplitude =  0.4550
    D(184) --> V(  1) amplitude =  0.8581

 Excited state   8: excitation energy (eV) =    2.7760
 Total energy for state  8:                 -2123.28017153 au
    Multiplicity: Triplet
    Trans. Mom.:  0.0000 X   0.0000 Y   0.0000 Z
    Strength   :     0.0000000000
    D(181) --> V(  1) amplitude =  0.2795
    D(183) --> V(  1) amplitude =  0.9107

 Excited state   9: excitation energy (eV) =    2.7871
 Total energy for state  9:                 -2123.27976376 au
    Multiplicity: Singlet
    Trans. Mom.: -0.5682 X  -0.0132 Y   0.7122 Z
    Strength   :     0.0566901574
    D(183) --> V(  1) amplitude =  0.9681

 Excited state  10: excitation energy (eV) =    3.0670
 Total energy for state 10:                 -2123.26947745 au
    Multiplicity: Singlet
    Trans. Mom.:  1.9899 X   0.1787 Y  -3.6008 Z
    Strength   :     1.2741683009
    D(181) --> V(  1) amplitude =  0.9315

 Excited state  11: excitation energy (eV) =    3.3744
 Total energy for state 11:                 -2123.25818171 au
    Multiplicity: Singlet
    Trans. Mom.:  0.8736 X  -0.1056 Y   0.3835 Z
    Strength   :     0.0761727504
    D(177) --> V(  1) amplitude = -0.2187
    D(179) --> V(  1) amplitude =  0.5809
    D(180) --> V(  1) amplitude =  0.2949
    D(182) --> V(  2) amplitude =  0.5927
    D(184) --> V(  2) amplitude = -0.2245

 Excited state  12: excitation energy (eV) =    3.3884
 Total energy for state 12:                 -2123.25766746 au
    Multiplicity: Singlet
    Trans. Mom.: -0.1604 X  -0.1134 Y  -0.3027 Z
    Strength   :     0.0108115525
    D(180) --> V(  1) amplitude =  0.8632
    D(181) --> V(  2) amplitude =  0.2154

 ---------------------------------------------------

                    Orbital Energies (a.u.)
 --------------------------------------------------------------

 Alpha MOs
 -- Occupied --
-10.469 -10.469 -10.469 -10.467 -10.467 -10.467 -10.466 -10.464
-10.463 -10.463 -10.463 -10.463 -10.463 -10.462 -10.461 -10.461
-10.461 -10.461 -10.461 -10.460 -10.458 -10.457 -10.456 -10.456
-10.455 -10.455 -10.455 -10.455 -10.453 -10.453 -10.453 -10.453
-10.450 -10.447 -10.446 -10.446 -10.446 -10.445 -10.445 -10.445
-10.445 -10.444 -10.444 -10.444 -10.443 -10.443 -10.439 -10.438
-10.435 -10.434 -10.430 -10.429 -10.428 -10.428  -6.947  -6.947
 -1.015  -1.015  -0.977  -0.977  -0.960  -0.955  -0.936  -0.932
 -0.924  -0.924  -0.907  -0.898  -0.872  -0.868  -0.861  -0.855
 -0.851  -0.847  -0.847  -0.845  -0.820  -0.817  -0.813  -0.810
 -0.809  -0.797  -0.766  -0.765  -0.738  -0.734  -0.727  -0.718
 -0.700  -0.699  -0.689  -0.689  -0.678  -0.674  -0.671  -0.670
 -0.668  -0.658  -0.646  -0.641  -0.600  -0.594  -0.592  -0.589
 -0.583  -0.577  -0.576  -0.575  -0.575  -0.567  -0.567  -0.549
 -0.549  -0.542  -0.531  -0.528  -0.526  -0.511  -0.511  -0.505
 -0.504  -0.502  -0.502  -0.500  -0.492  -0.492  -0.485  -0.485
 -0.484  -0.483  -0.480  -0.480  -0.479  -0.475  -0.471  -0.471
 -0.465  -0.465  -0.453  -0.453  -0.446  -0.446  -0.441  -0.440
 -0.439  -0.436  -0.434  -0.430  -0.429  -0.423  -0.422  -0.412
 -0.408  -0.400  -0.399  -0.399  -0.395  -0.394  -0.391  -0.387
 -0.387  -0.386  -0.376  -0.372  -0.370  -0.368  -0.357  -0.353
 -0.351  -0.337  -0.327  -0.325  -0.320  -0.316  -0.300  -0.295
 -0.278  -0.278  -0.277  -0.263  -0.256  -0.249  -0.247  -0.246

          Ground-State Mulliken Net Atomic Charges

     Atom                 Charge (a.u.)
  ----------------------------------------
      1 C                    -0.152329
      2 C                    -0.387446
      3 H                     0.243615
      4 C                     0.095992
      5 C                     0.085705
      6 C                    -0.388271
      7 H                     0.243046
      8 C                    -0.156895
      9 C                     0.189221
     10 C                    -0.387253
     11 H                     0.240036
     12 C                    -0.065174
     13 C                     0.231813
     14 C                     0.189771
     15 C                    -0.389137
     16 H                     0.240139
     17 C                    -0.221060
     18 H                     0.244344
     19 C                    -0.342623
     20 H                     0.239987
     21 C                    -0.221781
     22 H                     0.244454
     23 C                    -0.341350
     24 H                     0.240025
     25 B                     0.691898
     26 C                    -0.154872
     27 C                    -0.370562
     28 H                     0.242310
     29 C                     0.053307
     30 C                     0.190062
     31 C                    -0.360423
     32 H                     0.244655
     33 C                    -0.222112
     34 H                     0.246819
     35 C                    -0.338991
     36 H                     0.242606
     37 C                     0.237329
     38 C                    -0.087026
     39 C                    -0.340829
     40 H                     0.242902
     41 C                    -0.221162
     42 H                     0.246446
     43 C                    -0.366922
     44 H                     0.244025
     45 C                     0.194172
     46 C                     0.065504
     47 C                    -0.380390
     48 H                     0.241487
     49 C                    -0.159404
     50 B                     0.692225
     51 C                    -0.229778
     52 C                     0.014388
     53 C                    -0.279698
     54 H                     0.225591
     55 C                    -0.325300
     56 H                     0.228315
     57 C                     0.116569
     58 C                    -0.298562
     59 H                     0.229500
     60 C                    -0.248041
     61 H                     0.234725
     62 C                    -0.249965
     63 H                     0.236727
     64 C                    -0.340034
     65 H                     0.249082
     66 C                     0.080553
     67 C                    -0.763479
     68 H                     0.244440
     69 H                     0.250926
     70 H                     0.248991
     71 C                    -0.225166
     72 C                     0.012703
     73 C                    -0.280886
     74 H                     0.225912
     75 C                    -0.324614
     76 H                     0.228530
     77 C                     0.116157
     78 C                    -0.297417
     79 H                     0.229408
     80 C                    -0.248220
     81 H                     0.234812
     82 C                    -0.249018
     83 H                     0.236788
     84 C                    -0.341505
     85 H                     0.248846
     86 C                     0.079030
     87 C                    -0.763451
     88 H                     0.244942
     89 H                     0.250779
     90 H                     0.249535
  ----------------------------------------
  Sum of atomic charges =    -0.000000

                    Cartesian Multipole Moments
 -----------------------------------------------------------------
    Charge (ESU x 10^10)
                -0.0000
    Dipole Moment (Debye)
         X       0.3191      Y       0.4696      Z      -0.6892
       Tot       0.8929
    Quadrupole Moments (Debye-Ang)
        XX    -270.8199     XY       5.0021     YY    -312.9715
        XZ      -6.2516     YZ      -3.9684     ZZ    -259.5593

 Total job time:  14478.78s(wall), 35893.18s(cpu)
        *  Thank you very much for using Q-Chem.  Have a nice day.  *
