 Q-Chem 5.1, Q-Chem, Inc., Pleasanton, CA (2018)
 Q-Chem 5.1.1 for Intel X86 EM64T Linux

User input:
--------------------------------------------------------------
$solvent
dielectric      1.0001
dielectric_infi 1.00009
$end

$rem
threads 8
jobtype	sp
method PBEh-3c
basis def2-mSVP
mem_static	1024
mem_total	14000
sym_ignore	true
cis_n_roots             2
cis_singlets            false
cis_triplets		true
rpa                     false
calc_soc 		true
cis_moments             true
cis_relaxed_density	true
solvent_method		pcm
$end

$pcm
StateSpecific   1
ChargeSeparation Excited
$end

$molecule
read utleopt_vac.mol
$end

--------------------------------------------------------------

   15   -2123.3666372318      7.32e-09  Convergence criterion met
 Total energy in the final basis set =    -2123.3666372318

         TDDFT/TDA Excitation Energies
 ---------------------------------------------------

 Excited state   1: excitation energy (eV) =    1.8595
 Total energy for state  1:                 -2123.29830170 au
    Multiplicity: Triplet
    Trans. Mom.:  0.0000 X   0.0000 Y   0.0000 Z
    Strength   :     0.0000000000
    D(182) --> V(  1) amplitude = -0.8463
    D(184) --> V(  1) amplitude =  0.3392

 Excited state   2: excitation energy (eV) =    2.2345
 Total energy for state  2:                 -2123.28452240 au
    Multiplicity: Triplet
    Trans. Mom.:  0.0000 X   0.0000 Y   0.0000 Z
    Strength   :     0.0000000000
    D(180) --> V(  1) amplitude =  0.5870
    D(180) --> V(  2) amplitude = -0.3848
    D(181) --> V(  1) amplitude = -0.5616

 ---------------------------------------------------

                    Orbital Energies (a.u.)
 --------------------------------------------------------------

 Alpha MOs
 -- Occupied --
-10.469 -10.468 -10.467 -10.467 -10.466 -10.465 -10.464 -10.462
-10.462 -10.462 -10.461 -10.461 -10.461 -10.460 -10.460 -10.459
-10.459 -10.459 -10.458 -10.458 -10.457 -10.457 -10.453 -10.452
-10.452 -10.452 -10.452 -10.451 -10.450 -10.450 -10.449 -10.449
-10.448 -10.444 -10.444 -10.443 -10.443 -10.442 -10.442 -10.442
-10.442 -10.442 -10.442 -10.441 -10.441 -10.441 -10.435 -10.435
-10.431 -10.430 -10.427 -10.427 -10.426 -10.425  -6.944  -6.943
 -1.013  -1.012  -0.974  -0.974  -0.957  -0.953  -0.935  -0.931
 -0.921  -0.921  -0.905  -0.896  -0.870  -0.866  -0.858  -0.852
 -0.851  -0.845  -0.844  -0.844  -0.817  -0.815  -0.811  -0.807
 -0.806  -0.795  -0.764  -0.764  -0.737  -0.732  -0.726  -0.717
 -0.698  -0.696  -0.688  -0.686  -0.677  -0.671  -0.669  -0.668
 -0.666  -0.655  -0.643  -0.639  -0.600  -0.592  -0.592  -0.589
 -0.583  -0.576  -0.575  -0.574  -0.573  -0.565  -0.565  -0.547
 -0.547  -0.541  -0.531  -0.526  -0.525  -0.509  -0.509  -0.503
 -0.502  -0.500  -0.500  -0.498  -0.491  -0.490  -0.484  -0.483
 -0.482  -0.481  -0.479  -0.478  -0.478  -0.473  -0.470  -0.470
 -0.464  -0.464  -0.453  -0.451  -0.446  -0.443  -0.439  -0.438
 -0.437  -0.433  -0.432  -0.428  -0.427  -0.421  -0.418  -0.411
 -0.406  -0.399  -0.398  -0.397  -0.393  -0.392  -0.390  -0.385
 -0.384  -0.384  -0.373  -0.368  -0.366  -0.365  -0.354  -0.350
 -0.347  -0.334  -0.323  -0.321  -0.316  -0.312  -0.298  -0.292
 -0.275  -0.274  -0.274  -0.261  -0.253  -0.245  -0.243  -0.242

          Ground-State Mulliken Net Atomic Charges

     Atom                 Charge (a.u.)
  ----------------------------------------
      1 C                    -0.150887
      2 C                    -0.382236
      3 H                     0.234283
      4 C                     0.105691
      5 C                     0.095054
      6 C                    -0.383745
      7 H                     0.233502
      8 C                    -0.155658
      9 C                     0.199484
     10 C                    -0.380433
     11 H                     0.221549
     12 C                    -0.063508
     13 C                     0.249867
     14 C                     0.200105
     15 C                    -0.382482
     16 H                     0.221888
     17 C                    -0.204036
     18 H                     0.226041
     19 C                    -0.334437
     20 H                     0.219573
     21 C                    -0.204852
     22 H                     0.226157
     23 C                    -0.333039
     24 H                     0.219598
     25 B                     0.693868
     26 C                    -0.153984
     27 C                    -0.364177
     28 H                     0.232083
     29 C                     0.062216
     30 C                     0.200907
     31 C                    -0.354221
     32 H                     0.226033
     33 C                    -0.205366
     34 H                     0.228489
     35 C                    -0.331399
     36 H                     0.222039
     37 C                     0.255428
     38 C                    -0.085800
     39 C                    -0.333493
     40 H                     0.222360
     41 C                    -0.204171
     42 H                     0.228106
     43 C                    -0.360964
     44 H                     0.224978
     45 C                     0.204868
     46 C                     0.074900
     47 C                    -0.375891
     48 H                     0.231245
     49 C                    -0.157755
     50 B                     0.694958
     51 C                    -0.231542
     52 C                     0.018307
     53 C                    -0.265031
     54 H                     0.207675
     55 C                    -0.313450
     56 H                     0.209091
     57 C                     0.132167
     58 C                    -0.286213
     59 H                     0.209968
     60 C                    -0.231263
     61 H                     0.217224
     62 C                    -0.235087
     63 H                     0.219587
     64 C                    -0.325152
     65 H                     0.235989
     66 C                     0.086308
     67 C                    -0.756201
     68 H                     0.233998
     69 H                     0.249309
     70 H                     0.246707
     71 C                    -0.226208
     72 C                     0.017602
     73 C                    -0.266263
     74 H                     0.208022
     75 C                    -0.312909
     76 H                     0.209305
     77 C                     0.131999
     78 C                    -0.285114
     79 H                     0.209925
     80 C                    -0.231592
     81 H                     0.217319
     82 C                    -0.234065
     83 H                     0.219811
     84 C                    -0.327196
     85 H                     0.236509
     86 C                     0.083211
     87 C                    -0.756241
     88 H                     0.234599
     89 H                     0.248417
     90 H                     0.247742
  ----------------------------------------
  Sum of atomic charges =    -0.000000

                    Cartesian Multipole Moments
 -----------------------------------------------------------------
    Charge (ESU x 10^10)
                -0.0000
    Dipole Moment (Debye)
         X       0.2639      Y       0.3993      Z      -0.5863
       Tot       0.7568
    Quadrupole Moments (Debye-Ang)
        XX    -279.1110     XY       4.3553     YY    -314.9932
        XZ      -4.8216     YZ      -3.6189     ZZ    -269.7933

 Total job time:  4937.51s(wall), 19159.12s(cpu)
        *  Thank you very much for using Q-Chem.  Have a nice day.  *
 Q-Chem 5.1, Q-Chem, Inc., Pleasanton, CA (2018)
 Q-Chem 5.1.1 for Intel X86 EM64T Linux

User input:
--------------------------------------------------------------
$rem
threads 8
jobtype sp
method PBEh-3c
basis def2-mSVP
mem_static      1024
mem_total       14000
sym_ignore      true
cis_n_roots             6
cis_singlets            true
cis_triplets            true
rpa                     false
calc_soc                true
cis_moments             true
cis_relaxed_density     true
solvent_method          pcm
$end

$molecule
read
$end

$pcm
statespecific           Marcus
$end

$solvent
dielectric      1.0001
dielectric_infi 1.00009
$end

--------------------------------------------------------------

             Standard Nuclear Orientation (Angstroms)
    I     Atom           X                Y                Z
 ----------------------------------------------------------------
    1      C       0.0000000000     0.0000000000     0.0000000000
    2      C       0.0000000000     0.0000000000     1.4050910000
    3      H       0.9409391950     0.0000000000     1.9421358397
    4      C      -1.1889203270     0.0055613812     2.0935298576
    5      C      -2.4236461830     0.0177446982     1.3897558685
    6      C      -2.4425517736     0.0100088489     0.0159627261
    7      H      -3.3860207279     0.0175430622    -0.5185934247
    8      C      -1.2366718839    -0.0017708967    -0.7025690755
    9      C      -3.5084634423     0.0383429586     2.3720692156
   10      C      -4.8778197784     0.0672644505     2.3122817145
   11      H      -5.4102337194     0.0809731971     1.3694284765
   12      C      -2.8900175966     0.0293958690     3.6356984467
   13      C      -3.5830591704     0.0423732296     4.8429003850
   14      C      -1.4873734674     0.0097356269     3.5267156607
   15      C      -0.7453832439    -0.0001530211     4.6785923667
   16      H       0.3367879360    -0.0161252219     4.6611864438
   17      C      -1.4210582873     0.0090767997     5.9212449598
   18      H      -0.8329445853     0.0001515178     6.8295199980
   19      C      -2.7925021949     0.0297421173     6.0159171405
   20      H      -3.2679123924     0.0376635889     6.9893256450
   21      C      -5.6087158031     0.0828168486     3.5234334110
   22      H      -6.6897059597     0.1071008957     3.4744907574
   23      C      -4.9956987160     0.0692951490     4.7541108527
   24      H      -5.5959504266     0.0812955584     5.6558658618
   25      B      -1.2747668313    -0.0049182592    -2.2431209252
   26      C       0.0471755519     0.0539781571    -3.0242329751
   27      C       0.0372314012     0.1390462953    -4.4045022660
   28      H      -0.9101822499     0.1522309090    -4.9318978063
   29      C       1.2305638477     0.2249247477    -5.1103730810
   30      C       1.5057260147     0.3748543538    -6.4887476172
   31      C       0.7240931490     0.4930287429    -7.6328657081
   32      H      -0.3567320915     0.4644517978    -7.5864222179
   33      C       1.3763198574     0.6620064283    -8.8579726679
   34      H       0.7790516818     0.7582511187    -9.7552207630
   35      C       2.7581845872     0.7169234212    -8.9706847748
   36      H       3.2079709633     0.8537296674    -9.9458865559
   37      C       3.5825349562     0.6026257531    -7.8246524118
   38      C       2.9193179343     0.4306656831    -6.6133944946
   39      C       4.9946534591     0.6520158466    -7.7504688735
   40      H       5.5785185889     0.7838971181    -8.6524555926
   41      C       5.6386305808     0.5373739741    -6.5280917804
   42      H       6.7195954681     0.5808384228    -6.5072554747
   43      C       4.9530570378     0.3718623347    -5.3184742965
   44      H       5.4987577691     0.2927812785    -4.3876718985
   45      C       3.5659390643     0.3186690741    -5.3548861437
   46      C       2.5342633997     0.1955313901    -4.3833246252
   47      C       2.5388535930     0.1055622755    -2.9986379814
   48      H       3.4751161854     0.0959712602    -2.4520424792
   49      C       1.3433303713     0.0513309290    -2.2938892008
   50      B       1.3433812510     0.0176351290    -0.7565554352
   51      C       2.6831858784     0.0366566469     0.0689019252
   52      C       3.2487516845     1.2404233243     0.4386369407
   53      C       4.4088140748     1.2526603115     1.2444871340
   54      H       4.8432794893     2.2053585023     1.5246026122
   55      C       4.9833701205     0.0938144191     1.6815884034
   56      H       5.8695590937     0.1244855028     2.3042114562
   57      C       4.4272185682    -1.1556774378     1.3353942287
   58      C       4.9815520986    -2.3741595260     1.7868980454
   59      H       5.8668113674    -2.3459750726     2.4112164523
   60      C       4.4122108514    -3.5695400186     1.4500687362
   61      H       4.8423351643    -4.4968179598     1.8049730791
   62      C       3.2599502386    -3.5988098374     0.6403175672
   63      H       2.8113404387    -4.5483397455     0.3793620913
   64      C       2.7065346226    -2.4350166113     0.1865545278
   65      H       1.8180772914    -2.4709910085    -0.4337207961
   66      C       3.2685737077    -1.1785230681     0.5186838934
   67      C       2.6161433997     2.5424315665     0.0287378142
   68      H       3.2471210999     3.3950246940     0.2795485899
   69      H       2.4240749017     2.5821746424    -1.0449229526
   70      H       1.6557552119     2.6902986432     0.5287089115
   71      C      -2.6577873694    -0.0728764370    -2.9956698776
   72      C      -3.2453126111    -1.2966054383    -3.2467755561
   73      C      -4.4919912548    -1.3601962820    -3.9078445127
   74      H      -4.9356409442    -2.3300197704    -4.1002582453
   75      C      -5.1441479866    -0.2290034777    -4.3049657000
   76      H      -6.0990234977    -0.2955070736    -4.8129332220
   77      C      -4.5856606228     1.0406734209    -4.0542512499
   78      C      -5.2414594189     2.2324036747    -4.4396347158
   79      H      -6.1957594480     2.1629168146    -4.9485714515
   80      C      -4.6900386601     3.4536714396    -4.1756641159
   81      H      -5.2021803587     4.3595100466    -4.4730144307
   82      C      -3.4513773538     3.5358993493    -3.5099223344
   83      H      -3.0206848017     4.5057260651    -3.2973735371
   84      C      -2.7937654542     2.3992678099    -3.1306964844
   85      H      -1.8436831273     2.4811486899    -2.6153812002
   86      C      -3.3326930774     1.1150248917    -3.3916146535
   87      C      -2.5832615631    -2.5691635753    -2.7970676725
   88      H      -3.0905000840    -3.4494587350    -3.1912192611
   89      H      -1.5411907630    -2.6206544176    -3.1185261487
   90      H      -2.5843330786    -2.6502601219    -1.7076153569
 ----------------------------------------------------------------
