 Q-Chem 5.1, Q-Chem, Inc., Pleasanton, CA (2018)
 Q-Chem 5.1.1 for Intel X86 EM64T Linux

User input:
--------------------------------------------------------------
$solvent
dielectric      2.38
dielectric_infi 2.25
$end

$rem
threads 8
jobtype	sp
method PBEh-3c
basis def2-mSVP
mem_static	1024
mem_total	14000
sym_ignore	true
cis_n_roots             2
cis_singlets            false
cis_triplets		true
rpa                     false
calc_soc 		true
cis_moments             true
cis_relaxed_density	true
solvent_method		pcm
$end

$pcm
StateSpecific   1
ChargeSeparation Excited
$end

$molecule
read utleopt_tol.mol
$end

--------------------------------------------------------------

   15   -2123.3846251439      4.74e-09  Convergence criterion met
 Total energy in the final basis set =    -2123.3846251439
 Total job time:  4668.36s(wall), 18446.73s(cpu)
        *  Thank you very much for using Q-Chem.  Have a nice day.  *
 Q-Chem 5.1, Q-Chem, Inc., Pleasanton, CA (2018)
 Q-Chem 5.1.1 for Intel X86 EM64T Linux

User input:
--------------------------------------------------------------
$rem
threads 8
jobtype sp
method PBEh-3c
basis def2-mSVP
mem_static      1024
mem_total       14000
sym_ignore      true
cis_n_roots             6
cis_singlets            true
cis_triplets            true
rpa                     false
calc_soc                true
cis_moments             true
cis_relaxed_density     true
solvent_method          pcm
$end

$molecule
read
$end

$pcm
statespecific           Marcus
$end

$solvent
dielectric      2.38
dielectric_infi 2.25
$end

--------------------------------------------------------------

             Standard Nuclear Orientation (Angstroms)
    I     Atom           X                Y                Z
 ----------------------------------------------------------------
    1      C       0.0000000000     0.0000000000     0.0000000000
    2      C       0.0000000000     0.0000000000     1.4056350000
    3      H       0.9398173947     0.0000000000     1.9447249755
    4      C      -1.1888195451     0.0063997642     2.0947173110
    5      C      -2.4243028988     0.0187031994     1.3912669717
    6      C      -2.4432933159     0.0123988328     0.0171496506
    7      H      -3.3881255682     0.0204625378    -0.5149833529
    8      C      -1.2373023313     0.0007560838    -0.7024009295
    9      C      -3.5089019019     0.0387005443     2.3741509647
   10      C      -4.8789153475     0.0670531952     2.3149041539
   11      H      -5.4122145183     0.0803764137     1.3724171108
   12      C      -2.8891504259     0.0300078780     3.6375219723
   13      C      -3.5815895994     0.0431451646     4.8455531157
   14      C      -1.4862389764     0.0110310912     3.5282053697
   15      C      -0.7428027113     0.0026154664     4.6798383577
   16      H       0.3394863982    -0.0122006598     4.6620304311
   17      C      -1.4182711137     0.0122200951     5.9232525902
   18      H      -0.8294064396     0.0045610362     6.8311478527
   19      C      -2.7903904716     0.0317828690     6.0187976212
   20      H      -3.2657330778     0.0400333788     6.9923254313
   21      C      -5.6089889682     0.0824943158     3.5272408383
   22      H      -6.6901023298     0.1062689082     3.4788484333
   23      C      -4.9948694698     0.0693706388     4.7581853924
   24      H      -5.5941291890     0.0813467275     5.6606998934
   25      B      -1.2755570017     0.0021421012    -2.2433935492
   26      C       0.0462531785     0.0556076875    -3.0243095354
   27      C       0.0369972226     0.1402784188    -4.4053003619
   28      H      -0.9085638450     0.1570721502    -4.9358428708
   29      C       1.2308678440     0.2205217335    -5.1106780818
   30      C       1.5064584588     0.3681903524    -6.4897309636
   31      C       0.7247658669     0.4878766079    -7.6335124833
   32      H      -0.3562616112     0.4626155634    -7.5870343343
   33      C       1.3780920559     0.6536877619    -8.8595573195
   34      H       0.7809629380     0.7509955570    -9.7568737607
   35      C       2.7604612090     0.7038365401    -8.9723938770
   36      H       3.2111784704     0.8382539331    -9.9475879863
   37      C       3.5844386149     0.5875922016    -7.8255020029
   38      C       2.9207128570     0.4188940507    -6.6142225912
   39      C       4.9973838035     0.6323415050    -7.7519459404
   40      H       5.5812279614     0.7615458229    -8.6544343428
   41      C       5.6410095125     0.5164690774    -6.5292673089
   42      H       6.7221801534     0.5564092166    -6.5081595032
   43      C       4.9543667441     0.3540197034    -5.3185238520
   44      H       5.4996628002     0.2740139423    -4.3874076115
   45      C       3.5673892008     0.3055516454    -5.3557006944
   46      C       2.5343024837     0.1866590894    -4.3836892245
   47      C       2.5392475000     0.0968499519    -2.9995986907
   48      H       3.4771402570     0.0839818075    -2.4560143724
   49      C       1.3428641673     0.0470872346    -2.2940246691
   50      B       1.3434643999     0.0117867085    -0.7571381391
   51      C       2.6837603436     0.0177875571     0.0689353741
   52      C       3.2603802087     1.2155468664     0.4423904789
   53      C       4.4212226725     1.2152119650     1.2483743452
   54      H       4.8641793415     2.1633792761     1.5310249216
   55      C       4.9860171575     0.0497069754     1.6824944048
   56      H       5.8725941066     0.0703232848     2.3052072179
   57      C       4.4180183519    -1.1939673971     1.3322269953
   58      C       4.9623661552    -2.4189048967     1.7805707143
   59      H       5.8478406287    -2.3997402133     2.4051637134
   60      C       4.3825432329    -3.6089248917     1.4398912975
   61      H       4.8045064133    -4.5411748000     1.7920198868
   62      C       3.2297175361    -3.6257643466     0.6293554797
   63      H       2.7730905755    -4.5707255163     0.3650871747
   64      C       2.6861549751    -2.4552823264     0.1788780368
   65      H       1.7978432948    -2.4832300965    -0.4422862891
   66      C       3.2588164691    -1.2040380245     0.5151563108
   67      C       2.6407064342     2.5248835991     0.0360891850
   68      H       3.2797191655     3.3701911055     0.2909716721
   69      H       2.4498568346     2.5697350231    -1.0376375049
   70      H       1.6811541885     2.6800267460     0.5356023479
   71      C      -2.6605071016    -0.0519218542    -2.9948706151
   72      C      -3.2561734203    -1.2698673661    -3.2565029479
   73      C      -4.5059697694    -1.3198323039    -3.9143972388
   74      H      -4.9556579068    -2.2853344284    -4.1150641082
   75      C      -5.1537103107    -0.1806772581    -4.2978191017
   76      H      -6.1108601885    -0.2361614930    -4.8030888378
   77      C      -4.5863738485     1.0834856216    -4.0357989349
   78      C      -5.2377464895     2.2829140537    -4.4070349216
   79      H      -6.1943425106     2.2232125693    -4.9131895341
   80      C      -4.6783764347     3.4990431473    -4.1326533543
   81      H      -5.1865793651     4.4108649594    -4.4188284663
   82      C      -3.4360742803     3.5676822531    -3.4706957288
   83      H      -2.9990344169     4.5330578093    -3.2501993910
   84      C      -2.7829304146     2.4231160013    -3.1054447317
   85      H      -1.8301408066     2.4960463475    -2.5934830709
   86      C      -3.3301774838     1.1439706365    -3.3768734820
   87      C      -2.6019660461    -2.5512685281    -2.8205638439
   88      H      -3.1112713408    -3.4236400403    -3.2293459262
   89      H      -1.5579748503    -2.6029358626    -3.1357423372
   90      H      -2.6104358017    -2.6465276951    -1.7321814340
 ----------------------------------------------------------------

   15   -2123.3846131244      4.77e-09  Convergence criterion met
 Total energy in the final basis set =    -2123.3846131244

         TDDFT/TDA Excitation Energies
 ---------------------------------------------------

 Excited state   1: excitation energy (eV) =    1.8878
 Total energy for state  1:                 -2123.31523900 au
    Multiplicity: Triplet
    Trans. Mom.:  0.0000 X   0.0000 Y   0.0000 Z
    Strength   :     0.0000000000
    D(182) --> V(  1) amplitude =  0.8571
    D(184) --> V(  1) amplitude = -0.3244

 Excited state   2: excitation energy (eV) =    2.2410
 Total energy for state  2:                 -2123.30225656 au
    Multiplicity: Triplet
    Trans. Mom.:  0.0000 X   0.0000 Y   0.0000 Z
    Strength   :     0.0000000000
    D(180) --> V(  1) amplitude = -0.5516
    D(180) --> V(  2) amplitude =  0.3765
    D(181) --> V(  1) amplitude =  0.5904
    D(181) --> V(  2) amplitude = -0.2276
    D(183) --> V(  1) amplitude = -0.2170

 Excited state   3: excitation energy (eV) =    2.4758
 Total energy for state  3:                 -2123.29362949 au
    Multiplicity: Triplet
    Trans. Mom.:  0.0000 X   0.0000 Y   0.0000 Z
    Strength   :     0.0000000000
    D(180) --> V(  1) amplitude =  0.5090
    D(180) --> V(  2) amplitude =  0.2631
    D(181) --> V(  1) amplitude =  0.4530
    D(181) --> V(  2) amplitude =  0.4874

 Excited state   4: excitation energy (eV) =    2.5487
 Total energy for state  4:                 -2123.29095150 au
    Multiplicity: Triplet
    Trans. Mom.:  0.0000 X   0.0000 Y   0.0000 Z
    Strength   :     0.0000000000
    D(177) --> V(  1) amplitude = -0.2459
    D(179) --> V(  1) amplitude =  0.6337
    D(182) --> V(  2) amplitude =  0.5129

 Excited state   5: excitation energy (eV) =    2.5970
 Total energy for state  5:                 -2123.28917464 au
    Multiplicity: Singlet
    Trans. Mom.: -0.3298 X   0.0292 Y  -0.3488 Z
    Strength   :     0.0147144239
    D(182) --> V(  1) amplitude =  0.8522
    D(184) --> V(  1) amplitude = -0.4504

 Excited state   6: excitation energy (eV) =    2.7108
 Total energy for state  6:                 -2123.28499297 au
    Multiplicity: Triplet
    Trans. Mom.:  0.0000 X   0.0000 Y   0.0000 Z
    Strength   :     0.0000000000
    D(182) --> V(  1) amplitude =  0.3562
    D(184) --> V(  1) amplitude =  0.8762

 Excited state   7: excitation energy (eV) =    2.7496
 Total energy for state  7:                 -2123.28356643 au
    Multiplicity: Singlet
    Trans. Mom.: -0.0646 X   0.0492 Y  -0.1678 Z
    Strength   :     0.0023411981
    D(182) --> V(  1) amplitude =  0.4539
    D(184) --> V(  1) amplitude =  0.8589

 Excited state   8: excitation energy (eV) =    2.7777
 Total energy for state  8:                 -2123.28253461 au
    Multiplicity: Triplet
    Trans. Mom.:  0.0000 X   0.0000 Y   0.0000 Z
    Strength   :     0.0000000000
    D(181) --> V(  1) amplitude =  0.2810
    D(183) --> V(  1) amplitude =  0.9116

 Excited state   9: excitation energy (eV) =    2.7884
 Total energy for state  9:                 -2123.28214029 au
    Multiplicity: Singlet
    Trans. Mom.: -0.5891 X  -0.0149 Y   0.7475 Z
    Strength   :     0.0619016229
    D(183) --> V(  1) amplitude =  0.9692

 Excited state  10: excitation energy (eV) =    3.0570
 Total energy for state 10:                 -2123.27227216 au
    Multiplicity: Singlet
    Trans. Mom.:  2.0189 X   0.1839 Y  -3.6533 Z
    Strength   :     1.3073871500
    D(181) --> V(  1) amplitude =  0.9335

 Excited state  11: excitation energy (eV) =    3.3741
 Total energy for state 11:                 -2123.26061806 au
    Multiplicity: Singlet
    Trans. Mom.:  0.7152 X  -0.1498 Y   0.1856 Z
    Strength   :     0.0469886028
    D(179) --> V(  1) amplitude =  0.4173
    D(180) --> V(  1) amplitude =  0.6716
    D(182) --> V(  2) amplitude =  0.4339

 Excited state  12: excitation energy (eV) =    3.3825
 Total energy for state 12:                 -2123.26030977 au
    Multiplicity: Singlet
    Trans. Mom.: -0.5639 X  -0.0508 Y  -0.4757 Z
    Strength   :     0.0453212096
    D(179) --> V(  1) amplitude = -0.4588
    D(180) --> V(  1) amplitude =  0.6191
    D(182) --> V(  2) amplitude = -0.4382

 ---------------------------------------------------

                    Orbital Energies (a.u.)
 --------------------------------------------------------------

 Alpha MOs
 -- Occupied --
-10.470 -10.469 -10.469 -10.468 -10.468 -10.467 -10.467 -10.464
-10.464 -10.464 -10.464 -10.464 -10.464 -10.462 -10.461 -10.461
-10.461 -10.461 -10.461 -10.461 -10.458 -10.458 -10.457 -10.457
-10.456 -10.456 -10.455 -10.455 -10.454 -10.454 -10.454 -10.454
-10.450 -10.447 -10.447 -10.447 -10.446 -10.446 -10.445 -10.445
-10.445 -10.445 -10.445 -10.445 -10.443 -10.443 -10.440 -10.439
-10.436 -10.435 -10.430 -10.430 -10.428 -10.428  -6.948  -6.947
 -1.016  -1.015  -0.978  -0.978  -0.961  -0.956  -0.936  -0.933
 -0.925  -0.924  -0.908  -0.899  -0.873  -0.869  -0.861  -0.855
 -0.851  -0.848  -0.847  -0.846  -0.820  -0.818  -0.813  -0.811
 -0.809  -0.798  -0.766  -0.766  -0.738  -0.734  -0.728  -0.718
 -0.701  -0.699  -0.689  -0.689  -0.678  -0.674  -0.671  -0.671
 -0.669  -0.658  -0.646  -0.641  -0.601  -0.595  -0.592  -0.589
 -0.584  -0.577  -0.576  -0.576  -0.575  -0.567  -0.567  -0.549
 -0.549  -0.543  -0.531  -0.528  -0.527  -0.511  -0.511  -0.505
 -0.504  -0.502  -0.502  -0.500  -0.493  -0.492  -0.486  -0.486
 -0.485  -0.484  -0.481  -0.481  -0.479  -0.475  -0.471  -0.471
 -0.465  -0.465  -0.454  -0.453  -0.446  -0.446  -0.442  -0.440
 -0.440  -0.437  -0.434  -0.431  -0.429  -0.424  -0.422  -0.413
 -0.408  -0.400  -0.399  -0.399  -0.395  -0.394  -0.392  -0.388
 -0.387  -0.386  -0.377  -0.372  -0.370  -0.369  -0.357  -0.354
 -0.351  -0.338  -0.327  -0.326  -0.320  -0.316  -0.300  -0.295
 -0.279  -0.279  -0.278  -0.264  -0.257  -0.250  -0.248  -0.247

          Ground-State Mulliken Net Atomic Charges

     Atom                 Charge (a.u.)
  ----------------------------------------
      1 C                    -0.152517
      2 C                    -0.388346
      3 H                     0.244978
      4 C                     0.094433
      5 C                     0.084218
      6 C                    -0.389046
      7 H                     0.244448
      8 C                    -0.157060
      9 C                     0.187528
     10 C                    -0.388215
     11 H                     0.242844
     12 C                    -0.065490
     13 C                     0.228878
     14 C                     0.188065
     15 C                    -0.390081
     16 H                     0.242905
     17 C                    -0.223630
     18 H                     0.247210
     19 C                    -0.343728
     20 H                     0.243205
     21 C                    -0.224335
     22 H                     0.247320
     23 C                    -0.342472
     24 H                     0.243246
     25 B                     0.691294
     26 C                    -0.154971
     27 C                    -0.371534
     28 H                     0.243810
     29 C                     0.052024
     30 C                     0.188379
     31 C                    -0.361345
     32 H                     0.247446
     33 C                    -0.224625
     34 H                     0.249658
     35 C                    -0.340007
     36 H                     0.245816
     37 C                     0.234443
     38 C                    -0.087185
     39 C                    -0.341812
     40 H                     0.246100
     41 C                    -0.223732
     42 H                     0.249279
     43 C                    -0.367810
     44 H                     0.246882
     45 C                     0.192502
     46 C                     0.064125
     47 C                    -0.381086
     48 H                     0.242994
     49 C                    -0.159588
     50 B                     0.691512
     51 C                    -0.229455
     52 C                     0.013790
     53 C                    -0.281804
     54 H                     0.228393
     55 C                    -0.327046
     56 H                     0.231319
     57 C                     0.113972
     58 C                    -0.300372
     59 H                     0.232554
     60 C                    -0.250597
     61 H                     0.237440
     62 C                    -0.252161
     63 H                     0.239347
     64 C                    -0.342381
     65 H                     0.250945
     66 C                     0.079515
     67 C                    -0.764486
     68 H                     0.246130
     69 H                     0.251126
     70 H                     0.249213
     71 C                    -0.224956
     72 C                     0.011930
     73 C                    -0.283036
     74 H                     0.228704
     75 C                    -0.326321
     76 H                     0.231533
     77 C                     0.113581
     78 C                    -0.299223
     79 H                     0.232454
     80 C                    -0.250742
     81 H                     0.237526
     82 C                    -0.251227
     83 H                     0.239387
     84 C                    -0.343739
     85 H                     0.250591
     86 C                     0.078250
     87 C                    -0.764472
     88 H                     0.246624
     89 H                     0.251054
     90 H                     0.249714
  ----------------------------------------
  Sum of atomic charges =    -0.000000

                    Cartesian Multipole Moments
 -----------------------------------------------------------------
    Charge (ESU x 10^10)
                -0.0000
    Dipole Moment (Debye)
         X       0.3306      Y       0.4851      Z      -0.7108
       Tot       0.9219
    Quadrupole Moments (Debye-Ang)
        XX    -269.4007     XY       5.1273     YY    -312.6487
        XZ      -6.5305     YZ      -4.0514     ZZ    -257.7536

 Total job time:  14941.50s(wall), 35658.86s(cpu)
        *  Thank you very much for using Q-Chem.  Have a nice day.  *
