 Q-Chem 5.1, Q-Chem, Inc., Pleasanton, CA (2018)
 Q-Chem 5.1.1 for Intel X86 EM64T Linux

User input:
--------------------------------------------------------------
$solvent
dielectric      4.33
dielectric_infi 1.83
$end

$rem
threads 8
jobtype	sp
method PBEh-3c
basis def2-mSVP
mem_static	1024
mem_total	14000
sym_ignore	true
cis_n_roots             2
cis_singlets            false
cis_triplets		true
rpa                     false
calc_soc 		true
cis_moments             true
cis_relaxed_density	true
solvent_method		pcm
$end

$pcm
StateSpecific   1
ChargeSeparation Excited
$end

$molecule
read utleopt_eth.mol
$end

--------------------------------------------------------------

   23   -2123.3256453521      5.20e-09  Convergence criterion met
 Total energy in the final basis set =    -2123.3256453521
 Total job time:  9201.26s(wall), 39208.74s(cpu)
        *  Thank you very much for using Q-Chem.  Have a nice day.  *
 Q-Chem 5.1, Q-Chem, Inc., Pleasanton, CA (2018)
 Q-Chem 5.1.1 for Intel X86 EM64T Linux

User input:
--------------------------------------------------------------
$rem
threads 8
jobtype sp
method PBEh-3c
basis def2-mSVP
mem_static      1024
mem_total       14000
sym_ignore      true
cis_n_roots             6
cis_singlets            true
cis_triplets            true
rpa                     false
calc_soc                true
cis_moments             true
cis_relaxed_density     true
solvent_method          pcm
$end

$molecule
read
$end

$pcm
statespecific           Marcus
$end

$solvent
dielectric      4.33
dielectric_infi 1.83
$end

--------------------------------------------------------------

             Standard Nuclear Orientation (Angstroms)
    I     Atom           X                Y                Z
 ----------------------------------------------------------------
    1      C       0.0000000000     0.0000000000     0.0000000000
    2      C       0.0000000000     0.0000000000     1.4059600000
    3      H       0.9392805124     0.0000000000     1.9460931985
    4      C      -1.1887598883     0.0070524586     2.0954637892
    5      C      -2.4246823712     0.0188437339     1.3921130669
    6      C      -2.4436864809     0.0136838906     0.0178111422
    7      H      -3.3892563907     0.0217384145    -0.5130509761
    8      C      -1.2376141149     0.0027934374    -0.7023192553
    9      C      -3.5092246154     0.0379338127     2.3752355764
   10      C      -4.8796294534     0.0649056679     2.3162231836
   11      H      -5.4133521758     0.0771614461     1.3739097205
   12      C      -2.8888426404     0.0299430506     3.6385312378
   13      C      -3.5811127118     0.0429572529     4.8469614423
   14      C      -1.4857341633     0.0120779065     3.5291485450
   15      C      -0.7417266228     0.0051207845     4.6808330395
   16      H       0.3406279828    -0.0081796197     4.6629522111
   17      C      -1.4172248216     0.0147107406     5.9245805741
   18      H      -0.8280753205     0.0082695519     6.8323231436
   19      C      -2.7897208319     0.0328877784     6.0204462011
   20      H      -3.2652257633     0.0411858658     6.9939132521
   21      C      -5.6093808101     0.0800331290     3.5291149826
   22      H      -6.6905524987     0.1026617429     3.4809623491
   23      C      -4.9947588331     0.0678777411     4.7602456556
   24      H      -5.5934709564     0.0796075998     5.6631471467
   25      B      -1.2760460182     0.0086776507    -2.2435969495
   26      C       0.0457287979     0.0610319339    -3.0242369311
   27      C       0.0368225047     0.1487331591    -4.4054206861
   28      H      -0.9077489022     0.1678622100    -4.9376402978
   29      C       1.2308728998     0.2292337381    -5.1103090693
   30      C       1.5066085990     0.3803432507    -6.4892934919
   31      C       0.7249099398     0.5032048403    -7.6326575216
   32      H      -0.3561630472     0.4774734865    -7.5863551352
   33      C       1.3786903151     0.6726120987    -8.8585564330
   34      H       0.7816485992     0.7723912474    -9.7556801107
   35      C       2.7612226472     0.7231469039    -8.9710784698
   36      H       3.2124115276     0.8604598431    -9.9456708790
   37      C       3.5850219781     0.6034416783    -7.8239859261
   38      C       2.9211556928     0.4311871072    -6.6133623497
   39      C       4.9983240321     0.6481488045    -7.7504466618
   40      H       5.5819065995     0.7800457525    -8.6527399208
   41      C       5.6418096636     0.5289295943    -6.5279344106
   42      H       6.7229785148     0.5691258447    -6.5064050480
   43      C       4.9546984052     0.3629112218    -5.3172265730
   44      H       5.4997442509     0.2808056567    -4.3860861985
   45      C       3.5679236707     0.3142977104    -5.3551254780
   46      C       2.5341832288     0.1928209612    -4.3833288397
   47      C       2.5393412840     0.0986538880    -2.9998454800
   48      H       3.4781389954     0.0834441577    -2.4579242224
   49      C       1.3425486470     0.0478820030    -2.2940189686
   50      B       1.3435818073     0.0070604346    -0.7574714749
   51      C       2.6838769338    -0.0020336598     0.0690152986
   52      C       3.2706187900     1.1882972072     0.4508967192
   53      C       4.4311604888     1.1727765331     1.2577776118
   54      H       4.8819434233     2.1153153344     1.5469204930
   55      C       4.9860054163    -0.0005059852     1.6846742667
   56      H       5.8723161472     0.0082325473     2.3081117124
   57      C       4.4074834436    -1.2370823698     1.3252956352
   58      C       4.9418927458    -2.4696786805     1.7656857722
   59      H       5.8271061165    -2.4616816463     2.3909659368
   60      C       4.3526320812    -3.6529023500     1.4161419696
   61      H       4.7667725442    -4.5910782007     1.7619092367
   62      C       3.2001169171    -3.6546739238     0.6043473541
   63      H       2.7363518825    -4.5941353493     0.3326886940
   64      C       2.6661898052    -2.4763791407     0.1616370960
   65      H       1.7785103086    -2.4937398116    -0.4610038756
   66      C       3.2485953656    -1.2317985887     0.5072584597
   67      C       2.6631992227     2.5058202521     0.0527242829
   68      H       3.3101079081     3.3432991562     0.3133012617
   69      H       2.4727233932     2.5589881960    -1.0207125160
   70      H       1.7050292970     2.6666319891     0.5531847874
   71      C      -2.6619808204    -0.0367956035    -2.9943433351
   72      C      -3.2636274793    -1.2510503173    -3.2602460664
   73      C      -4.5150342080    -1.2929231232    -3.9164560722
   74      H      -4.9690530884    -2.2556943301    -4.1206503285
   75      C      -5.1588565535    -0.1491865556    -4.2937976773
   76      H      -6.1171638554    -0.1980615041    -4.7976269594
   77      C      -4.5851812453     1.1115101185    -4.0270854400
   78      C      -5.2326450472     2.3153501377    -4.3921584404
   79      H      -6.1904689935     2.2614164012    -4.8967214789
   80      C      -4.6675190979     3.5283060521    -4.1137225966
   81      H      -5.1723878894     4.4435350593    -4.3950750540
   82      C      -3.4232185762     3.5889308645    -3.4539558845
   83      H      -2.9815329664     4.5516222056    -3.2306455281
   84      C      -2.7739490945     2.4398064507    -3.0947514540
   85      H      -1.8194616292     2.5074200846    -2.5850391194
   86      C      -3.3272136550     1.1637772979    -3.3702377001
   87      C      -2.6155055444    -2.5375888176    -2.8303590652
   88      H      -3.1255880727    -3.4051633719    -3.2482006056
   89      H      -1.5698066984    -2.5902229902    -3.1396794459
   90      H      -2.6306931180    -2.6405860214    -1.7426894148
 ----------------------------------------------------------------

   23   -2123.3249817562      6.34e-09  Convergence criterion met
 Total energy in the final basis set =    -2123.3249817562

         TDDFT/TDA Excitation Energies
 ---------------------------------------------------

 Excited state   1: excitation energy (eV) =    0.8063
 Total energy for state  1:                 -2123.29535032 au
    <S**2>     :  2.1174
    Trans. Mom.: -0.2485 X   0.0088 Y  -0.2315 Z
    Strength   :     0.0022796153
    D(180) --> S(  1) amplitude =  0.7136 beta
    D(181) --> S(  1) amplitude = -0.6224 beta
    D(182) --> S(  1) amplitude = -0.1996 beta

 Excited state   2: excitation energy (eV) =    1.2659
 Total energy for state  2:                 -2123.27845998 au
    <S**2>     :  2.1987
    Trans. Mom.:  0.0833 X  -0.0031 Y  -0.0032 Z
    Strength   :     0.0002158525
    D(182) --> S(  1) amplitude =  0.1633 beta
    D(183) --> S(  1) amplitude =  0.9684 beta

 Excited state   3: excitation energy (eV) =    1.3224
 Total energy for state  3:                 -2123.27638495 au
    <S**2>     :  2.1972
    Trans. Mom.: -0.0910 X   0.0401 Y  -0.0632 Z
    Strength   :     0.0004494774
    D(181) --> S(  1) amplitude = -0.1990 beta
    D(182) --> S(  1) amplitude =  0.9543 beta

 Excited state   4: excitation energy (eV) =    1.5416
 Total energy for state  4:                 -2123.26833014 au
    <S**2>     :  2.1658
    Trans. Mom.: -1.1207 X  -0.1349 Y   1.9891 Z
    Strength   :     0.1975602549
    S(  2) --> V(  1) amplitude =  0.8410 alpha
    S(  2) --> V(  3) amplitude = -0.1918 alpha
    D(179) --> S(  1) amplitude = -0.4454 beta

 Excited state   5: excitation energy (eV) =    1.7871
 Total energy for state  5:                 -2123.25930605 au
    <S**2>     :  2.2274
    Trans. Mom.:  0.1416 X  -0.0014 Y  -0.0609 Z
    Strength   :     0.0010407233
    D(174) --> S(  1) amplitude =  0.1753 beta
    D(180) --> S(  1) amplitude =  0.6531 beta
    D(181) --> S(  1) amplitude =  0.7206 beta

 Excited state   6: excitation energy (eV) =    1.9987
 Total energy for state  6:                 -2123.25153026 au
    <S**2>     :  2.2217
    Trans. Mom.: -2.1452 X  -0.1811 Y   3.7913 Z
    Strength   :     0.9308148894
    S(  2) --> V(  1) amplitude =  0.4065 alpha
    S(  2) --> V(  3) amplitude = -0.1543 alpha
    D(175) --> S(  1) amplitude = -0.1585 beta
    D(179) --> S(  1) amplitude =  0.8572 beta

 ---------------------------------------------------

                    Orbital Energies (a.u.)
 --------------------------------------------------------------

 Alpha MOs
 -- Occupied --
-10.490 -10.488 -10.472 -10.469 -10.469 -10.469 -10.467 -10.466
-10.466 -10.466 -10.466 -10.466 -10.465 -10.465 -10.465 -10.465
-10.464 -10.463 -10.463 -10.462 -10.462 -10.459 -10.459 -10.459
-10.458 -10.457 -10.457 -10.457 -10.455 -10.455 -10.455 -10.455
-10.454 -10.454 -10.454 -10.451 -10.448 -10.448 -10.447 -10.447
-10.447 -10.446 -10.446 -10.446 -10.446 -10.445 -10.444 -10.444
-10.439 -10.439 -10.430 -10.430 -10.428 -10.428  -6.938  -6.938
 -1.030  -1.019  -0.979  -0.978  -0.970  -0.963  -0.939  -0.934
 -0.926  -0.925  -0.916  -0.905  -0.877  -0.870  -0.869  -0.857
 -0.854  -0.848  -0.848  -0.847  -0.829  -0.822  -0.816  -0.812
 -0.810  -0.809  -0.767  -0.766  -0.746  -0.739  -0.729  -0.723
 -0.702  -0.700  -0.693  -0.693  -0.682  -0.675  -0.675  -0.672
 -0.671  -0.660  -0.651  -0.648  -0.604  -0.598  -0.594  -0.590
 -0.586  -0.580  -0.579  -0.577  -0.576  -0.568  -0.568  -0.550
 -0.550  -0.547  -0.535  -0.530  -0.530  -0.516  -0.515  -0.507
 -0.507  -0.506  -0.505  -0.504  -0.502  -0.497  -0.494  -0.489
 -0.488  -0.486  -0.482  -0.481  -0.481  -0.476  -0.472  -0.471
 -0.467  -0.466  -0.455  -0.454  -0.449  -0.447  -0.447  -0.443
 -0.441  -0.441  -0.440  -0.433  -0.431  -0.431  -0.426  -0.415
 -0.409  -0.408  -0.404  -0.401  -0.398  -0.396  -0.396  -0.391
 -0.390  -0.387  -0.383  -0.383  -0.374  -0.372  -0.360  -0.359
 -0.354  -0.346  -0.340  -0.328  -0.322  -0.321  -0.312  -0.300
 -0.296  -0.281  -0.280  -0.279  -0.270  -0.261  -0.249  -0.248
 -0.187

 Beta MOs
 -- Occupied --
-10.483 -10.482 -10.472 -10.472 -10.472 -10.469 -10.468 -10.468
-10.467 -10.466 -10.466 -10.465 -10.464 -10.464 -10.464 -10.462
-10.462 -10.462 -10.462 -10.461 -10.461 -10.461 -10.460 -10.459
-10.459 -10.457 -10.457 -10.455 -10.455 -10.455 -10.455 -10.454
-10.454 -10.452 -10.451 -10.449 -10.448 -10.448 -10.447 -10.447
-10.447 -10.446 -10.446 -10.446 -10.446 -10.445 -10.444 -10.444
-10.439 -10.438 -10.430 -10.430 -10.428 -10.428  -6.937  -6.937
 -1.023  -1.018  -0.979  -0.978  -0.963  -0.961  -0.935  -0.934
 -0.925  -0.925  -0.911  -0.903  -0.875  -0.870  -0.867  -0.856
 -0.850  -0.848  -0.848  -0.847  -0.821  -0.819  -0.815  -0.811
 -0.810  -0.799  -0.767  -0.766  -0.737  -0.736  -0.728  -0.721
 -0.701  -0.700  -0.691  -0.690  -0.680  -0.675  -0.672  -0.671
 -0.670  -0.659  -0.648  -0.647  -0.601  -0.596  -0.592  -0.589
 -0.585  -0.578  -0.577  -0.577  -0.576  -0.568  -0.567  -0.550
 -0.550  -0.545  -0.533  -0.529  -0.527  -0.515  -0.512  -0.507
 -0.505  -0.505  -0.504  -0.502  -0.495  -0.494  -0.487  -0.487
 -0.485  -0.483  -0.481  -0.481  -0.480  -0.476  -0.472  -0.471
 -0.467  -0.465  -0.454  -0.453  -0.448  -0.446  -0.443  -0.441
 -0.440  -0.439  -0.434  -0.430  -0.430  -0.424  -0.416  -0.414
 -0.408  -0.402  -0.400  -0.397  -0.396  -0.396  -0.394  -0.389
 -0.387  -0.387  -0.381  -0.374  -0.372  -0.364  -0.357  -0.353
 -0.344  -0.339  -0.333  -0.327  -0.321  -0.318  -0.299  -0.297
 -0.281  -0.280  -0.271  -0.264  -0.259  -0.249  -0.248

          Ground-State Mulliken Net Atomic Charges

     Atom                 Charge (a.u.)    Spin (a.u.)
  --------------------------------------------------------
      1 C                    -0.143618       0.013563
      2 C                    -0.396474      -0.005037
      3 H                     0.246219      -0.000236
      4 C                     0.089105       0.033155
      5 C                     0.079443       0.037273
      6 C                    -0.397088      -0.008706
      7 H                     0.245878      -0.000034
      8 C                    -0.147236       0.016576
      9 C                     0.181536      -0.021753
     10 C                    -0.393029       0.025955
     11 H                     0.249582      -0.001507
     12 C                    -0.066681       0.018216
     13 C                     0.220593      -0.015053
     14 C                     0.182112      -0.020775
     15 C                    -0.394952       0.024746
     16 H                     0.249379      -0.001438
     17 C                    -0.230268      -0.017235
     18 H                     0.254627       0.000834
     19 C                    -0.348457       0.024011
     20 H                     0.251317      -0.001372
     21 C                    -0.230967      -0.017725
     22 H                     0.254781       0.000853
     23 C                    -0.347172       0.025123
     24 H                     0.251392      -0.001438
     25 B                     0.643294       0.178038
     26 C                    -0.143519       0.325661
     27 C                    -0.365382      -0.243714
     28 H                     0.257671       0.009755
     29 C                     0.066053       0.448020
     30 C                     0.188347      -0.201756
     31 C                    -0.374527       0.298475
     32 H                     0.253485      -0.017520
     33 C                    -0.226798      -0.204518
     34 H                     0.259823       0.009617
     35 C                    -0.345263       0.331787
     36 H                     0.256711      -0.019118
     37 C                     0.233207      -0.192743
     38 C                    -0.063005       0.283060
     39 C                    -0.348924       0.309598
     40 H                     0.255989      -0.017830
     41 C                    -0.225888      -0.200313
     42 H                     0.258678       0.009544
     43 C                    -0.381653       0.287370
     44 H                     0.252270      -0.016818
     45 C                     0.190686      -0.211459
     46 C                     0.081630       0.454438
     47 C                    -0.378044      -0.265682
     48 H                     0.256509       0.010924
     49 C                    -0.144293       0.371787
     50 B                     0.646458       0.180024
     51 C                    -0.221266      -0.017141
     52 C                     0.010348       0.001187
     53 C                    -0.287704       0.000380
     54 H                     0.234822       0.000172
     55 C                    -0.332622      -0.000442
     56 H                     0.238616       0.000022
     57 C                     0.106047       0.000031
     58 C                    -0.305672       0.000031
     59 H                     0.240267       0.000007
     60 C                    -0.257925       0.000164
     61 H                     0.244202       0.000028
     62 C                    -0.258080      -0.000530
     63 H                     0.245159       0.000072
     64 C                    -0.346100       0.003357
     65 H                     0.253331      -0.001822
     66 C                     0.072229       0.001334
     67 C                    -0.762600       0.000909
     68 H                     0.248832       0.000940
     69 H                     0.247943      -0.000858
     70 H                     0.247821      -0.000380
     71 C                    -0.216408      -0.017437
     72 C                     0.007587       0.001485
     73 C                    -0.289185      -0.000041
     74 H                     0.234893       0.000160
     75 C                    -0.331795       0.000088
     76 H                     0.238706      -0.000010
     77 C                     0.105978      -0.000154
     78 C                    -0.304500       0.000334
     79 H                     0.240044      -0.000007
     80 C                    -0.257893      -0.000087
     81 H                     0.244192       0.000040
     82 C                    -0.257184      -0.000156
     83 H                     0.244983       0.000050
     84 C                    -0.346772       0.003005
     85 H                     0.252501      -0.001704
     86 C                     0.070996       0.001635
     87 C                    -0.762179       0.001067
     88 H                     0.248945       0.000787
     89 H                     0.247991      -0.000879
     90 H                     0.247921      -0.000259
  --------------------------------------------------------
  Sum of atomic charges =    -0.000000

                    Cartesian Multipole Moments
 -----------------------------------------------------------------
    Charge (ESU x 10^10)
                -0.0000
    Dipole Moment (Debye)
         X       1.6572      Y       0.6563      Z      -3.1148
       Tot       3.5888
    Quadrupole Moments (Debye-Ang)
        XX    -268.2049     XY       6.1077     YY    -312.7896
        XZ     -13.9853     YZ      -4.8790     ZZ    -241.9410

 Total job time:  14803.00s(wall), 55487.42s(cpu)
        *  Thank you very much for using Q-Chem.  Have a nice day.  *
