 Q-Chem 5.1, Q-Chem, Inc., Pleasanton, CA (2018)
 Q-Chem 5.1.1 for Intel X86 EM64T Linux

User input:
--------------------------------------------------------------
$solvent
dielectric      1.0001
dielectric_infi 1.00009
$end

$rem
threads 8
jobtype	sp
method PBEh-3c
basis def2-mSVP
mem_static	1024
mem_total	14000
sym_ignore	true
cis_n_roots             2
cis_singlets            false
cis_triplets		true
rpa                     false
calc_soc 		true
cis_moments             true
cis_relaxed_density	true
solvent_method		pcm
$end

$pcm
StateSpecific   1
ChargeSeparation Excited
$end

$molecule
read utleopt_vac.mol
$end

--------------------------------------------------------------

   24   -2123.3021441735      7.27e-09  Convergence criterion met
 Total energy in the final basis set =    -2123.3021441735

         TDDFT/TDA Excitation Energies
 ---------------------------------------------------

 Excited state   1: excitation energy (eV) =    0.8898
 Total energy for state  1:                 -2123.26944593 au
    <S**2>     :  2.1237
    Trans. Mom.: -0.1934 X   0.0012 Y  -0.1690 Z
    Strength   :     0.0014376874
    D(179) --> S(  1) amplitude =  0.1657 beta
    D(180) --> S(  1) amplitude =  0.8234 beta
    D(181) --> S(  1) amplitude = -0.4261 beta
    D(182) --> S(  1) amplitude = -0.2419 beta

 Excited state   2: excitation energy (eV) =    1.2147
 Total energy for state  2:                 -2123.25750656 au
    <S**2>     :  2.2039
    Trans. Mom.:  0.0899 X   0.0019 Y  -0.0315 Z
    Strength   :     0.0002703271
    D(183) --> S(  1) amplitude =  0.9821 beta

 ---------------------------------------------------

                    Orbital Energies (a.u.)
 --------------------------------------------------------------

 Alpha MOs
 -- Occupied --
-10.486 -10.484 -10.470 -10.469 -10.467 -10.467 -10.467 -10.466
-10.466 -10.466 -10.462 -10.462 -10.462 -10.461 -10.461 -10.461
-10.460 -10.460 -10.459 -10.459 -10.458 -10.457 -10.457 -10.456
-10.456 -10.452 -10.450 -10.450 -10.450 -10.450 -10.449 -10.448
-10.448 -10.447 -10.447 -10.444 -10.443 -10.442 -10.441 -10.441
-10.441 -10.441 -10.441 -10.441 -10.440 -10.440 -10.439 -10.439
-10.433 -10.432 -10.426 -10.426 -10.424 -10.423  -6.934  -6.934
 -1.028  -1.012  -0.973  -0.972  -0.968  -0.957  -0.939  -0.930
 -0.920  -0.920  -0.913  -0.900  -0.873  -0.864  -0.864  -0.855
 -0.851  -0.843  -0.843  -0.843  -0.825  -0.821  -0.811  -0.807
 -0.805  -0.805  -0.763  -0.762  -0.746  -0.737  -0.725  -0.720
 -0.699  -0.695  -0.692  -0.689  -0.679  -0.671  -0.670  -0.667
 -0.667  -0.655  -0.650  -0.643  -0.604  -0.595  -0.595  -0.589
 -0.585  -0.577  -0.576  -0.573  -0.572  -0.564  -0.564  -0.546
 -0.546  -0.545  -0.536  -0.529  -0.527  -0.513  -0.511  -0.505
 -0.504  -0.503  -0.501  -0.500  -0.497  -0.494  -0.490  -0.485
 -0.485  -0.481  -0.478  -0.477  -0.477  -0.473  -0.471  -0.469
 -0.466  -0.464  -0.453  -0.451  -0.447  -0.446  -0.444  -0.438
 -0.438  -0.436  -0.434  -0.431  -0.428  -0.425  -0.422  -0.411
 -0.407  -0.405  -0.403  -0.402  -0.394  -0.393  -0.391  -0.387
 -0.386  -0.383  -0.379  -0.379  -0.367  -0.365  -0.355  -0.353
 -0.349  -0.343  -0.335  -0.320  -0.315  -0.314  -0.312  -0.295
 -0.291  -0.277  -0.273  -0.273  -0.263  -0.255  -0.242  -0.242
 -0.184

 Beta MOs
 -- Occupied --
-10.479 -10.477 -10.472 -10.470 -10.470 -10.466 -10.465 -10.465
-10.465 -10.464 -10.462 -10.462 -10.462 -10.461 -10.461 -10.460
-10.460 -10.459 -10.459 -10.458 -10.458 -10.458 -10.457 -10.456
-10.456 -10.450 -10.450 -10.449 -10.449 -10.448 -10.448 -10.447
-10.447 -10.447 -10.445 -10.444 -10.443 -10.442 -10.441 -10.441
-10.441 -10.441 -10.441 -10.441 -10.440 -10.440 -10.439 -10.439
-10.432 -10.432 -10.426 -10.426 -10.424 -10.423  -6.933  -6.933
 -1.020  -1.012  -0.972  -0.972  -0.959  -0.956  -0.935  -0.930
 -0.920  -0.919  -0.908  -0.898  -0.871  -0.864  -0.863  -0.851
 -0.850  -0.843  -0.843  -0.843  -0.818  -0.816  -0.811  -0.806
 -0.805  -0.795  -0.762  -0.762  -0.736  -0.734  -0.724  -0.718
 -0.697  -0.695  -0.689  -0.686  -0.677  -0.670  -0.668  -0.667
 -0.666  -0.654  -0.647  -0.643  -0.601  -0.593  -0.591  -0.588
 -0.584  -0.576  -0.575  -0.572  -0.572  -0.564  -0.563  -0.546
 -0.545  -0.543  -0.533  -0.526  -0.525  -0.512  -0.509  -0.505
 -0.503  -0.501  -0.500  -0.497  -0.492  -0.490  -0.484  -0.484
 -0.481  -0.479  -0.478  -0.477  -0.477  -0.472  -0.470  -0.469
 -0.465  -0.463  -0.452  -0.451  -0.446  -0.444  -0.438  -0.437
 -0.436  -0.433  -0.431  -0.428  -0.425  -0.420  -0.412  -0.410
 -0.404  -0.401  -0.401  -0.395  -0.393  -0.392  -0.391  -0.385
 -0.383  -0.382  -0.376  -0.367  -0.365  -0.358  -0.352  -0.348
 -0.340  -0.334  -0.330  -0.320  -0.314  -0.311  -0.298  -0.291
 -0.273  -0.273  -0.264  -0.261  -0.253  -0.242  -0.241

          Ground-State Mulliken Net Atomic Charges

     Atom                 Charge (a.u.)    Spin (a.u.)
  --------------------------------------------------------
      1 C                    -0.141501       0.016177
      2 C                    -0.385457      -0.005766
      3 H                     0.233924      -0.000161
      4 C                     0.106747       0.033038
      5 C                     0.096467       0.036561
      6 C                    -0.387223      -0.008827
      7 H                     0.233121       0.000009
      8 C                    -0.145706       0.018444
      9 C                     0.198858      -0.020411
     10 C                    -0.381224       0.023459
     11 H                     0.221537      -0.001388
     12 C                    -0.062931       0.018944
     13 C                     0.250059      -0.014207
     14 C                     0.199542      -0.019574
     15 C                    -0.383372       0.022412
     16 H                     0.221779      -0.001326
     17 C                    -0.203674      -0.015827
     18 H                     0.225779       0.000784
     19 C                    -0.335283       0.022073
     20 H                     0.219191      -0.001292
     21 C                    -0.204522      -0.016249
     22 H                     0.225930       0.000800
     23 C                    -0.333803       0.023034
     24 H                     0.219254      -0.001350
     25 B                     0.659880       0.156651
     26 C                    -0.143620       0.340032
     27 C                    -0.357903      -0.254732
     28 H                     0.242070       0.010473
     29 C                     0.078373       0.455694
     30 C                     0.198415      -0.203898
     31 C                    -0.365076       0.309410
     32 H                     0.224242      -0.018498
     33 C                    -0.203316      -0.208473
     34 H                     0.229421       0.010023
     35 C                    -0.338807       0.339160
     36 H                     0.222259      -0.020122
     37 C                     0.259528      -0.197899
     38 C                    -0.066075       0.280540
     39 C                    -0.342167       0.320700
     40 H                     0.221853      -0.019013
     41 C                    -0.201819      -0.204517
     42 H                     0.228474       0.009932
     43 C                    -0.372444       0.299280
     44 H                     0.222543      -0.017870
     45 C                     0.201291      -0.210805
     46 C                     0.093979       0.460154
     47 C                    -0.372442      -0.273740
     48 H                     0.241060       0.011504
     49 C                    -0.144578       0.380265
     50 B                     0.663621       0.157607
     51 C                    -0.227361      -0.015025
     52 C                     0.017101       0.000837
     53 C                    -0.265214       0.000437
     54 H                     0.206793       0.000146
     55 C                    -0.313740      -0.000551
     56 H                     0.208429       0.000029
     57 C                     0.131906       0.000083
     58 C                    -0.286454       0.000017
     59 H                     0.209396       0.000008
     60 C                    -0.231411       0.000181
     61 H                     0.216537       0.000023
     62 C                    -0.234956      -0.000507
     63 H                     0.218462       0.000067
     64 C                    -0.323253       0.003195
     65 H                     0.234838      -0.001651
     66 C                     0.083417       0.001082
     67 C                    -0.751624       0.001046
     68 H                     0.232474       0.000861
     69 H                     0.243822      -0.000798
     70 H                     0.247052      -0.000354
     71 C                    -0.221321      -0.015505
     72 C                     0.016268       0.001259
     73 C                    -0.266500      -0.000078
     74 H                     0.207052       0.000144
     75 C                    -0.313325       0.000131
     76 H                     0.208514      -0.000012
     77 C                     0.131747      -0.000164
     78 C                    -0.285376       0.000410
     79 H                     0.209276      -0.000011
     80 C                    -0.231782      -0.000121
     81 H                     0.216535       0.000039
     82 C                    -0.233982      -0.000039
     83 H                     0.218488       0.000040
     84 C                    -0.325351       0.002883
     85 H                     0.235307      -0.001571
     86 C                     0.079305       0.001441
     87 C                    -0.751483       0.001075
     88 H                     0.232717       0.000713
     89 H                     0.243782      -0.000747
     90 H                     0.247657      -0.000233
  --------------------------------------------------------
  Sum of atomic charges =    -0.000000

                    Cartesian Multipole Moments
 -----------------------------------------------------------------
    Charge (ESU x 10^10)
                -0.0000
    Dipole Moment (Debye)
         X       0.5780      Y       0.3942      Z      -1.1413
       Tot       1.3387
    Quadrupole Moments (Debye-Ang)
        XX    -282.9689     XY       4.5225     YY    -315.7888
        XZ      -6.7346     YZ      -3.2797     ZZ    -269.6644

 Total job time:  9613.65s(wall), 40876.08s(cpu)
        *  Thank you very much for using Q-Chem.  Have a nice day.  *
 Q-Chem 5.1, Q-Chem, Inc., Pleasanton, CA (2018)
 Q-Chem 5.1.1 for Intel X86 EM64T Linux

User input:
--------------------------------------------------------------
$rem
threads 8
jobtype sp
method PBEh-3c
basis def2-mSVP
mem_static      1024
mem_total       14000
sym_ignore      true
cis_n_roots             6
cis_singlets            true
cis_triplets            true
rpa                     false
calc_soc                true
cis_moments             true
cis_relaxed_density     true
solvent_method          pcm
$end

$molecule
read
$end

$pcm
statespecific           Marcus
$end

$solvent
dielectric      1.0001
dielectric_infi 1.00009
$end

--------------------------------------------------------------

             Standard Nuclear Orientation (Angstroms)
    I     Atom           X                Y                Z
 ----------------------------------------------------------------
    1      C       0.0000000000     0.0000000000     0.0000000000
    2      C       0.0000000000     0.0000000000     1.4050910000
    3      H       0.9409391950     0.0000000000     1.9421358397
    4      C      -1.1889203270     0.0055613812     2.0935298576
    5      C      -2.4236461830     0.0177446982     1.3897558685
    6      C      -2.4425517736     0.0100088489     0.0159627261
    7      H      -3.3860207279     0.0175430622    -0.5185934247
    8      C      -1.2366718839    -0.0017708967    -0.7025690755
    9      C      -3.5084634423     0.0383429586     2.3720692156
   10      C      -4.8778197784     0.0672644505     2.3122817145
   11      H      -5.4102337194     0.0809731971     1.3694284765
   12      C      -2.8900175966     0.0293958690     3.6356984467
   13      C      -3.5830591704     0.0423732296     4.8429003850
   14      C      -1.4873734674     0.0097356269     3.5267156607
   15      C      -0.7453832439    -0.0001530211     4.6785923667
   16      H       0.3367879360    -0.0161252219     4.6611864438
   17      C      -1.4210582873     0.0090767997     5.9212449598
   18      H      -0.8329445853     0.0001515178     6.8295199980
   19      C      -2.7925021949     0.0297421173     6.0159171405
   20      H      -3.2679123924     0.0376635889     6.9893256450
   21      C      -5.6087158031     0.0828168486     3.5234334110
   22      H      -6.6897059597     0.1071008957     3.4744907574
   23      C      -4.9956987160     0.0692951490     4.7541108527
   24      H      -5.5959504266     0.0812955584     5.6558658618
   25      B      -1.2747668313    -0.0049182592    -2.2431209252
   26      C       0.0471755519     0.0539781571    -3.0242329751
   27      C       0.0372314012     0.1390462953    -4.4045022660
   28      H      -0.9101822499     0.1522309090    -4.9318978063
   29      C       1.2305638477     0.2249247477    -5.1103730810
   30      C       1.5057260147     0.3748543538    -6.4887476172
   31      C       0.7240931490     0.4930287429    -7.6328657081
   32      H      -0.3567320915     0.4644517978    -7.5864222179
   33      C       1.3763198574     0.6620064283    -8.8579726679
   34      H       0.7790516818     0.7582511187    -9.7552207630
   35      C       2.7581845872     0.7169234212    -8.9706847748
   36      H       3.2079709633     0.8537296674    -9.9458865559
   37      C       3.5825349562     0.6026257531    -7.8246524118
   38      C       2.9193179343     0.4306656831    -6.6133944946
   39      C       4.9946534591     0.6520158466    -7.7504688735
   40      H       5.5785185889     0.7838971181    -8.6524555926
   41      C       5.6386305808     0.5373739741    -6.5280917804
   42      H       6.7195954681     0.5808384228    -6.5072554747
   43      C       4.9530570378     0.3718623347    -5.3184742965
   44      H       5.4987577691     0.2927812785    -4.3876718985
   45      C       3.5659390643     0.3186690741    -5.3548861437
   46      C       2.5342633997     0.1955313901    -4.3833246252
   47      C       2.5388535930     0.1055622755    -2.9986379814
   48      H       3.4751161854     0.0959712602    -2.4520424792
   49      C       1.3433303713     0.0513309290    -2.2938892008
   50      B       1.3433812510     0.0176351290    -0.7565554352
   51      C       2.6831858784     0.0366566469     0.0689019252
   52      C       3.2487516845     1.2404233243     0.4386369407
   53      C       4.4088140748     1.2526603115     1.2444871340
   54      H       4.8432794893     2.2053585023     1.5246026122
   55      C       4.9833701205     0.0938144191     1.6815884034
   56      H       5.8695590937     0.1244855028     2.3042114562
   57      C       4.4272185682    -1.1556774378     1.3353942287
   58      C       4.9815520986    -2.3741595260     1.7868980454
   59      H       5.8668113674    -2.3459750726     2.4112164523
   60      C       4.4122108514    -3.5695400186     1.4500687362
   61      H       4.8423351643    -4.4968179598     1.8049730791
   62      C       3.2599502386    -3.5988098374     0.6403175672
   63      H       2.8113404387    -4.5483397455     0.3793620913
   64      C       2.7065346226    -2.4350166113     0.1865545278
   65      H       1.8180772914    -2.4709910085    -0.4337207961
   66      C       3.2685737077    -1.1785230681     0.5186838934
   67      C       2.6161433997     2.5424315665     0.0287378142
   68      H       3.2471210999     3.3950246940     0.2795485899
   69      H       2.4240749017     2.5821746424    -1.0449229526
   70      H       1.6557552119     2.6902986432     0.5287089115
   71      C      -2.6577873694    -0.0728764370    -2.9956698776
   72      C      -3.2453126111    -1.2966054383    -3.2467755561
   73      C      -4.4919912548    -1.3601962820    -3.9078445127
   74      H      -4.9356409442    -2.3300197704    -4.1002582453
   75      C      -5.1441479866    -0.2290034777    -4.3049657000
   76      H      -6.0990234977    -0.2955070736    -4.8129332220
   77      C      -4.5856606228     1.0406734209    -4.0542512499
   78      C      -5.2414594189     2.2324036747    -4.4396347158
   79      H      -6.1957594480     2.1629168146    -4.9485714515
   80      C      -4.6900386601     3.4536714396    -4.1756641159
   81      H      -5.2021803587     4.3595100466    -4.4730144307
   82      C      -3.4513773538     3.5358993493    -3.5099223344
   83      H      -3.0206848017     4.5057260651    -3.2973735371
   84      C      -2.7937654542     2.3992678099    -3.1306964844
   85      H      -1.8436831273     2.4811486899    -2.6153812002
   86      C      -3.3326930774     1.1150248917    -3.3916146535
   87      C      -2.5832615631    -2.5691635753    -2.7970676725
   88      H      -3.0905000840    -3.4494587350    -3.1912192611
   89      H      -1.5411907630    -2.6206544176    -3.1185261487
   90      H      -2.5843330786    -2.6502601219    -1.7076153569
 ----------------------------------------------------------------
