 Q-Chem 5.1, Q-Chem, Inc., Pleasanton, CA (2018)
 Q-Chem 5.1.1 for Intel X86 EM64T Linux

User input:
--------------------------------------------------------------
$solvent
dielectric      4.33
dielectric_infi 1.83
$end

$rem
threads 8
jobtype	sp
method PBEh-3c
basis def2-mSVP
mem_static	1024
mem_total	14000
sym_ignore	true
cis_n_roots             2
cis_singlets            false
cis_triplets		true
rpa                     false
calc_soc 		true
cis_moments             true
cis_relaxed_density	true
solvent_method		pcm
$end

$pcm
StateSpecific   1
ChargeSeparation Excited
$end

$molecule
read utleopt_eth.mol
$end

--------------------------------------------------------------

   15   -2123.3912880992      4.96e-09  Convergence criterion met
 Total energy in the final basis set =    -2123.3912880992
 Total job time:  4821.62s(wall), 19019.79s(cpu)
        *  Thank you very much for using Q-Chem.  Have a nice day.  *
 Q-Chem 5.1, Q-Chem, Inc., Pleasanton, CA (2018)
 Q-Chem 5.1.1 for Intel X86 EM64T Linux

User input:
--------------------------------------------------------------
$rem
threads 8
jobtype sp
method PBEh-3c
basis def2-mSVP
mem_static      1024
mem_total       14000
sym_ignore      true
cis_n_roots             6
cis_singlets            true
cis_triplets            true
rpa                     false
calc_soc                true
cis_moments             true
cis_relaxed_density     true
solvent_method          pcm
$end

$molecule
read
$end

$pcm
statespecific           Marcus
$end

$solvent
dielectric      4.33
dielectric_infi 1.83
$end

--------------------------------------------------------------

             Standard Nuclear Orientation (Angstroms)
    I     Atom           X                Y                Z
 ----------------------------------------------------------------
    1      C       0.0000000000     0.0000000000     0.0000000000
    2      C       0.0000000000     0.0000000000     1.4059600000
    3      H       0.9392805124     0.0000000000     1.9460931985
    4      C      -1.1887598883     0.0070524586     2.0954637892
    5      C      -2.4246823712     0.0188437339     1.3921130669
    6      C      -2.4436864809     0.0136838906     0.0178111422
    7      H      -3.3892563907     0.0217384145    -0.5130509761
    8      C      -1.2376141149     0.0027934374    -0.7023192553
    9      C      -3.5092246154     0.0379338127     2.3752355764
   10      C      -4.8796294534     0.0649056679     2.3162231836
   11      H      -5.4133521758     0.0771614461     1.3739097205
   12      C      -2.8888426404     0.0299430506     3.6385312378
   13      C      -3.5811127118     0.0429572529     4.8469614423
   14      C      -1.4857341633     0.0120779065     3.5291485450
   15      C      -0.7417266228     0.0051207845     4.6808330395
   16      H       0.3406279828    -0.0081796197     4.6629522111
   17      C      -1.4172248216     0.0147107406     5.9245805741
   18      H      -0.8280753205     0.0082695519     6.8323231436
   19      C      -2.7897208319     0.0328877784     6.0204462011
   20      H      -3.2652257633     0.0411858658     6.9939132521
   21      C      -5.6093808101     0.0800331290     3.5291149826
   22      H      -6.6905524987     0.1026617429     3.4809623491
   23      C      -4.9947588331     0.0678777411     4.7602456556
   24      H      -5.5934709564     0.0796075998     5.6631471467
   25      B      -1.2760460182     0.0086776507    -2.2435969495
   26      C       0.0457287979     0.0610319339    -3.0242369311
   27      C       0.0368225047     0.1487331591    -4.4054206861
   28      H      -0.9077489022     0.1678622100    -4.9376402978
   29      C       1.2308728998     0.2292337381    -5.1103090693
   30      C       1.5066085990     0.3803432507    -6.4892934919
   31      C       0.7249099398     0.5032048403    -7.6326575216
   32      H      -0.3561630472     0.4774734865    -7.5863551352
   33      C       1.3786903151     0.6726120987    -8.8585564330
   34      H       0.7816485992     0.7723912474    -9.7556801107
   35      C       2.7612226472     0.7231469039    -8.9710784698
   36      H       3.2124115276     0.8604598431    -9.9456708790
   37      C       3.5850219781     0.6034416783    -7.8239859261
   38      C       2.9211556928     0.4311871072    -6.6133623497
   39      C       4.9983240321     0.6481488045    -7.7504466618
   40      H       5.5819065995     0.7800457525    -8.6527399208
   41      C       5.6418096636     0.5289295943    -6.5279344106
   42      H       6.7229785148     0.5691258447    -6.5064050480
   43      C       4.9546984052     0.3629112218    -5.3172265730
   44      H       5.4997442509     0.2808056567    -4.3860861985
   45      C       3.5679236707     0.3142977104    -5.3551254780
   46      C       2.5341832288     0.1928209612    -4.3833288397
   47      C       2.5393412840     0.0986538880    -2.9998454800
   48      H       3.4781389954     0.0834441577    -2.4579242224
   49      C       1.3425486470     0.0478820030    -2.2940189686
   50      B       1.3435818073     0.0070604346    -0.7574714749
   51      C       2.6838769338    -0.0020336598     0.0690152986
   52      C       3.2706187900     1.1882972072     0.4508967192
   53      C       4.4311604888     1.1727765331     1.2577776118
   54      H       4.8819434233     2.1153153344     1.5469204930
   55      C       4.9860054163    -0.0005059852     1.6846742667
   56      H       5.8723161472     0.0082325473     2.3081117124
   57      C       4.4074834436    -1.2370823698     1.3252956352
   58      C       4.9418927458    -2.4696786805     1.7656857722
   59      H       5.8271061165    -2.4616816463     2.3909659368
   60      C       4.3526320812    -3.6529023500     1.4161419696
   61      H       4.7667725442    -4.5910782007     1.7619092367
   62      C       3.2001169171    -3.6546739238     0.6043473541
   63      H       2.7363518825    -4.5941353493     0.3326886940
   64      C       2.6661898052    -2.4763791407     0.1616370960
   65      H       1.7785103086    -2.4937398116    -0.4610038756
   66      C       3.2485953656    -1.2317985887     0.5072584597
   67      C       2.6631992227     2.5058202521     0.0527242829
   68      H       3.3101079081     3.3432991562     0.3133012617
   69      H       2.4727233932     2.5589881960    -1.0207125160
   70      H       1.7050292970     2.6666319891     0.5531847874
   71      C      -2.6619808204    -0.0367956035    -2.9943433351
   72      C      -3.2636274793    -1.2510503173    -3.2602460664
   73      C      -4.5150342080    -1.2929231232    -3.9164560722
   74      H      -4.9690530884    -2.2556943301    -4.1206503285
   75      C      -5.1588565535    -0.1491865556    -4.2937976773
   76      H      -6.1171638554    -0.1980615041    -4.7976269594
   77      C      -4.5851812453     1.1115101185    -4.0270854400
   78      C      -5.2326450472     2.3153501377    -4.3921584404
   79      H      -6.1904689935     2.2614164012    -4.8967214789
   80      C      -4.6675190979     3.5283060521    -4.1137225966
   81      H      -5.1723878894     4.4435350593    -4.3950750540
   82      C      -3.4232185762     3.5889308645    -3.4539558845
   83      H      -2.9815329664     4.5516222056    -3.2306455281
   84      C      -2.7739490945     2.4398064507    -3.0947514540
   85      H      -1.8194616292     2.5074200846    -2.5850391194
   86      C      -3.3272136550     1.1637772979    -3.3702377001
   87      C      -2.6155055444    -2.5375888176    -2.8303590652
   88      H      -3.1255880727    -3.4051633719    -3.2482006056
   89      H      -1.5698066984    -2.5902229902    -3.1396794459
   90      H      -2.6306931180    -2.6405860214    -1.7426894148
 ----------------------------------------------------------------

   15   -2123.3911268223      4.85e-09  Convergence criterion met
 Total energy in the final basis set =    -2123.3911268223

         TDDFT/TDA Excitation Energies
 ---------------------------------------------------

 Excited state   1: excitation energy (eV) =    1.8913
 Total energy for state  1:                 -2123.32162220 au
    Multiplicity: Triplet
    Trans. Mom.:  0.0000 X   0.0000 Y   0.0000 Z
    Strength   :     0.0000000000
    D(182) --> V(  1) amplitude =  0.8226
    D(184) --> V(  1) amplitude = -0.4062

 Excited state   2: excitation energy (eV) =    2.2403
 Total energy for state  2:                 -2123.30879796 au
    Multiplicity: Triplet
    Trans. Mom.:  0.0000 X   0.0000 Y   0.0000 Z
    Strength   :     0.0000000000
    D(180) --> V(  1) amplitude = -0.5002
    D(180) --> V(  2) amplitude =  0.3591
    D(181) --> V(  1) amplitude =  0.6264
    D(181) --> V(  2) amplitude = -0.2587
    D(183) --> V(  1) amplitude = -0.2251

 Excited state   3: excitation energy (eV) =    2.4778
 Total energy for state  3:                 -2123.30007047 au
    Multiplicity: Triplet
    Trans. Mom.:  0.0000 X   0.0000 Y   0.0000 Z
    Strength   :     0.0000000000
    D(180) --> V(  1) amplitude =  0.5482
    D(180) --> V(  2) amplitude =  0.2986
    D(181) --> V(  1) amplitude =  0.4162
    D(181) --> V(  2) amplitude =  0.4602

 Excited state   4: excitation energy (eV) =    2.5582
 Total energy for state  4:                 -2123.29711476 au
    Multiplicity: Triplet
    Trans. Mom.:  0.0000 X   0.0000 Y   0.0000 Z
    Strength   :     0.0000000000
    D(179) --> V(  1) amplitude =  0.6612
    D(182) --> V(  2) amplitude =  0.4847
    D(184) --> V(  2) amplitude = -0.2513

 Excited state   5: excitation energy (eV) =    2.6030
 Total energy for state  5:                 -2123.29546783 au
    Multiplicity: Singlet
    Trans. Mom.: -0.3215 X   0.0327 Y  -0.3473 Z
    Strength   :     0.0143495860
    D(182) --> V(  1) amplitude =  0.8082
    D(184) --> V(  1) amplitude = -0.5261

 Excited state   6: excitation energy (eV) =    2.7246
 Total energy for state  6:                 -2123.29100002 au
    Multiplicity: Triplet
    Trans. Mom.:  0.0000 X   0.0000 Y   0.0000 Z
    Strength   :     0.0000000000
    D(182) --> V(  1) amplitude =  0.4355
    D(184) --> V(  1) amplitude =  0.8428

 Excited state   7: excitation energy (eV) =    2.7640
 Total energy for state  7:                 -2123.28955191 au
    Multiplicity: Singlet
    Trans. Mom.: -0.0497 X   0.0517 Y  -0.1819 Z
    Strength   :     0.0025876047
    D(182) --> V(  1) amplitude =  0.5265
    D(184) --> V(  1) amplitude =  0.8172

 Excited state   8: excitation energy (eV) =    2.7922
 Total energy for state  8:                 -2123.28851520 au
    Multiplicity: Triplet
    Trans. Mom.:  0.0000 X   0.0000 Y   0.0000 Z
    Strength   :     0.0000000000
    D(181) --> V(  1) amplitude =  0.2908
    D(183) --> V(  1) amplitude =  0.9126

 Excited state   9: excitation energy (eV) =    2.8044
 Total energy for state  9:                 -2123.28806792 au
    Multiplicity: Singlet
    Trans. Mom.: -0.5578 X  -0.0132 Y   0.7074 Z
    Strength   :     0.0557660201
    D(183) --> V(  1) amplitude =  0.9698

 Excited state  10: excitation energy (eV) =    3.0682
 Total energy for state 10:                 -2123.27837403 au
    Multiplicity: Singlet
    Trans. Mom.:  1.9668 X   0.1840 Y  -3.5506 Z
    Strength   :     1.2409459253
    D(181) --> V(  1) amplitude =  0.9413

 Excited state  11: excitation energy (eV) =    3.3884
 Total energy for state 11:                 -2123.26660497 au
    Multiplicity: Singlet
    Trans. Mom.:  0.6227 X  -0.1519 Y   0.0275 Z
    Strength   :     0.0341669251
    D(179) --> V(  1) amplitude =  0.3491
    D(180) --> V(  1) amplitude =  0.7710
    D(182) --> V(  2) amplitude =  0.3432

 Excited state  12: excitation energy (eV) =    3.3971
 Total energy for state 12:                 -2123.26628480 au
    Multiplicity: Singlet
    Trans. Mom.:  0.6061 X   0.0186 Y   0.5281 Z
    Strength   :     0.0538161657
    D(179) --> V(  1) amplitude =  0.5339
    D(180) --> V(  1) amplitude = -0.5086
    D(182) --> V(  2) amplitude =  0.4795
    D(184) --> V(  2) amplitude = -0.2420

 ---------------------------------------------------

                    Orbital Energies (a.u.)
 --------------------------------------------------------------

 Alpha MOs
 -- Occupied --
-10.470 -10.469 -10.469 -10.469 -10.468 -10.466 -10.466 -10.466
-10.466 -10.466 -10.465 -10.465 -10.464 -10.463 -10.463 -10.462
-10.462 -10.461 -10.460 -10.460 -10.459 -10.458 -10.458 -10.458
-10.458 -10.457 -10.457 -10.457 -10.456 -10.456 -10.456 -10.456
-10.451 -10.449 -10.448 -10.448 -10.448 -10.448 -10.447 -10.447
-10.447 -10.447 -10.446 -10.446 -10.445 -10.445 -10.441 -10.440
-10.438 -10.437 -10.432 -10.432 -10.428 -10.428  -6.950  -6.949
 -1.018  -1.016  -0.980  -0.980  -0.962  -0.956  -0.936  -0.934
 -0.926  -0.926  -0.909  -0.900  -0.875  -0.871  -0.862  -0.857
 -0.851  -0.849  -0.849  -0.847  -0.822  -0.819  -0.814  -0.812
 -0.810  -0.798  -0.768  -0.767  -0.738  -0.735  -0.729  -0.719
 -0.702  -0.701  -0.690  -0.690  -0.679  -0.676  -0.673  -0.672
 -0.670  -0.660  -0.648  -0.641  -0.601  -0.596  -0.592  -0.589
 -0.584  -0.578  -0.577  -0.577  -0.576  -0.569  -0.568  -0.551
 -0.550  -0.543  -0.532  -0.528  -0.527  -0.512  -0.512  -0.506
 -0.505  -0.503  -0.503  -0.501  -0.493  -0.493  -0.487  -0.487
 -0.486  -0.484  -0.482  -0.482  -0.479  -0.476  -0.472  -0.471
 -0.466  -0.465  -0.454  -0.454  -0.448  -0.447  -0.443  -0.441
 -0.441  -0.438  -0.435  -0.432  -0.430  -0.425  -0.423  -0.414
 -0.409  -0.401  -0.399  -0.399  -0.397  -0.395  -0.392  -0.389
 -0.388  -0.388  -0.378  -0.374  -0.372  -0.370  -0.359  -0.356
 -0.352  -0.339  -0.329  -0.327  -0.322  -0.318  -0.300  -0.296
 -0.281  -0.281  -0.280  -0.265  -0.258  -0.251  -0.250  -0.249

          Ground-State Mulliken Net Atomic Charges

     Atom                 Charge (a.u.)
  ----------------------------------------
      1 C                    -0.152772
      2 C                    -0.391312
      3 H                     0.248235
      4 C                     0.090330
      5 C                     0.080279
      6 C                    -0.391634
      7 H                     0.247796
      8 C                    -0.157240
      9 C                     0.182869
     10 C                    -0.390842
     11 H                     0.250196
     12 C                    -0.066194
     13 C                     0.220733
     14 C                     0.183366
     15 C                    -0.392689
     16 H                     0.250148
     17 C                    -0.230507
     18 H                     0.255013
     19 C                    -0.346496
     20 H                     0.252011
     21 C                    -0.231162
     22 H                     0.255129
     23 C                    -0.345273
     24 H                     0.252060
     25 B                     0.688342
     26 C                    -0.154561
     27 C                    -0.373910
     28 H                     0.247353
     29 C                     0.050131
     30 C                     0.184900
     31 C                    -0.364358
     32 H                     0.254419
     33 C                    -0.231236
     34 H                     0.257051
     35 C                    -0.342646
     36 H                     0.254185
     37 C                     0.226977
     38 C                    -0.086357
     39 C                    -0.344554
     40 H                     0.254358
     41 C                    -0.230670
     42 H                     0.256542
     43 C                    -0.370904
     44 H                     0.253977
     45 C                     0.188915
     46 C                     0.061922
     47 C                    -0.382810
     48 H                     0.246507
     49 C                    -0.159149
     50 B                     0.688544
     51 C                    -0.228011
     52 C                     0.012104
     53 C                    -0.287305
     54 H                     0.235942
     55 C                    -0.331804
     56 H                     0.239435
     57 C                     0.106490
     58 C                    -0.305210
     59 H                     0.240847
     60 C                    -0.257558
     61 H                     0.244812
     62 C                    -0.258023
     63 H                     0.246412
     64 C                    -0.348782
     65 H                     0.255859
     66 C                     0.076142
     67 C                    -0.767254
     68 H                     0.250617
     69 H                     0.252311
     70 H                     0.249330
     71 C                    -0.223796
     72 C                     0.009565
     73 C                    -0.288721
     74 H                     0.236205
     75 C                    -0.330941
     76 H                     0.239646
     77 C                     0.106363
     78 C                    -0.304069
     79 H                     0.240717
     80 C                    -0.257574
     81 H                     0.244901
     82 C                    -0.257146
     83 H                     0.246415
     84 C                    -0.349723
     85 H                     0.255126
     86 C                     0.075755
     87 C                    -0.767218
     88 H                     0.251105
     89 H                     0.252227
     90 H                     0.249796
  ----------------------------------------
  Sum of atomic charges =    -0.000000

                    Cartesian Multipole Moments
 -----------------------------------------------------------------
    Charge (ESU x 10^10)
                -0.0000
    Dipole Moment (Debye)
         X       0.3831      Y       0.5373      Z      -0.8243
       Tot       1.0559
    Quadrupole Moments (Debye-Ang)
        XX    -265.7582     XY       5.5340     YY    -311.7964
        XZ      -7.4240     YZ      -4.3357     ZZ    -252.6504

 Total job time:  10645.58s(wall), 36623.78s(cpu)
        *  Thank you very much for using Q-Chem.  Have a nice day.  *
