 Q-Chem 5.1, Q-Chem, Inc., Pleasanton, CA (2018)
 Q-Chem 5.1.1 for Intel X86 EM64T Linux

User input:
--------------------------------------------------------------
$solvent
dielectric      8.93
dielectric_infi 2.03
$end

$rem
threads 8
jobtype	sp
method PBEh-3c
basis def2-mSVP
mem_static	1024
mem_total	14000
sym_ignore	true
cis_n_roots             2
cis_singlets            false
cis_triplets		true
rpa                     false
calc_soc 		true
cis_moments             true
cis_relaxed_density	true
solvent_method		pcm
$end

$pcm
StateSpecific   1
ChargeSeparation Excited
$end

$molecule
read utleopt_dcm.mol
$end

--------------------------------------------------------------

   14   -2123.3957363815      9.90e-09  Convergence criterion met
 Total energy in the final basis set =    -2123.3957363815
 Total job time:  4813.56s(wall), 18305.51s(cpu)
        *  Thank you very much for using Q-Chem.  Have a nice day.  *
 Q-Chem 5.1, Q-Chem, Inc., Pleasanton, CA (2018)
 Q-Chem 5.1.1 for Intel X86 EM64T Linux

User input:
--------------------------------------------------------------
$rem
threads 8
jobtype sp
method PBEh-3c
basis def2-mSVP
mem_static      1024
mem_total       14000
sym_ignore      true
cis_n_roots             6
cis_singlets            true
cis_triplets            true
rpa                     false
calc_soc                true
cis_moments             true
cis_relaxed_density     true
solvent_method          pcm
$end

$molecule
read
$end

$pcm
statespecific           Marcus
$end

$solvent
dielectric      8.93
dielectric_infi 2.03
$end

--------------------------------------------------------------

             Standard Nuclear Orientation (Angstroms)
    I     Atom           X                Y                Z
 ----------------------------------------------------------------
    1      C       0.0000000000     0.0000000000     0.0000000000
    2      C       0.0000000000     0.0000000000     1.4062560000
    3      H       0.9388765938     0.0000000000     1.9472272161
    4      C      -1.1887129140     0.0076211453     2.0961595070
    5      C      -2.4250063543     0.0185226101     1.3928336767
    6      C      -2.4440029205     0.0146234647     0.0183724773
    7      H      -3.3902172901     0.0223981847    -0.5114138768
    8      C      -1.2378693396     0.0048764279    -0.7022744221
    9      C      -3.5095478295     0.0362147292     2.3760725253
   10      C      -4.8803006491     0.0610764503     2.3171471646
   11      H      -5.4142842270     0.0718780223     1.3749269191
   12      C      -2.8887191398     0.0291752566     3.6393504855
   13      C      -3.5809831624     0.0416844709     4.8480557100
   14      C      -1.4854127482     0.0129678763     3.5300223322
   15      C      -0.7410875039     0.0077446603     4.6818821858
   16      H       0.3413297019    -0.0035122602     4.6640262490
   17      C      -1.4167356676     0.0169468363     5.9258300095
   18      H      -0.8274546118     0.0119376266     6.8335045612
   19      C      -2.7895611506     0.0331423326     6.0218262065
   20      H      -3.2653409960     0.0412026139     6.9951642611
   21      C      -5.6098924521     0.0754814133     3.5304179817
   22      H      -6.6911132807     0.0963792513     3.4824068341
   23      C      -4.9949398176     0.0646453355     4.7617457291
   24      H      -5.5932376030     0.0758102509     5.6649313894
   25      B      -1.2764684755     0.0156267023    -2.2437997721
   26      C       0.0453140865     0.0679915773    -3.0240913789
   27      C       0.0367017118     0.1598850536    -4.4053301381
   28      H      -0.9070308737     0.1810539690    -4.9389648150
   29      C       1.2308824086     0.2424604746    -5.1096452321
   30      C       1.5067067901     0.3989891461    -6.4883028211
   31      C       0.7250582009     0.5256896685    -7.6312187944
   32      H      -0.3560201471     0.4981907240    -7.5852170302
   33      C       1.3791786215     0.7010696825    -8.8565747134
   34      H       0.7822315500     0.8038937221    -9.7534211251
   35      C       2.7617915177     0.7537181831    -8.9685550599
   36      H       3.2133786016     0.8958006044    -9.9422834441
   37      C       3.5854217814     0.6298804755    -7.8214214481
   38      C       2.9214740313     0.4517101911    -6.6117726705
   39      C       4.9989572947     0.6760129321    -7.7476272881
   40      H       5.5822294696     0.8124264723    -8.6494579908
   41      C       5.6423046291     0.5526556460    -6.5254097310
   42      H       6.7234086668     0.5943645929    -6.5033095604
   43      C       4.9548215679     0.3808224197    -5.3151383260
   44      H       5.4995725966     0.2962258432    -4.3840054116
   45      C       3.5683030507     0.3304409607    -5.3539031391
   46      C       2.5340311252     0.2040373271    -4.3826278163
   47      C       2.5393949420     0.1037933288    -2.9998279497
   48      H       3.4789743425     0.0864595630    -2.4593410936
   49      C       1.3422531739     0.0501724250    -2.2939531011
   50      B       1.3436788813     0.0019956310    -0.7577840286
   51      C       2.6836783508    -0.0251003866     0.0690261213
   52      C       3.2818110431     1.1560553275     0.4618890414
   53      C       4.4415180591     1.1221672799     1.2698939642
   54      H       4.9011266647     2.0577486474     1.5676405530
   55      C       4.9846996815    -0.0602667665     1.6871351081
   56      H       5.8704105857    -0.0657589194     2.3114909341
   57      C       4.3944773901    -1.2880847808     1.3158760686
   58      C       4.9172750197    -2.5297261017     1.7456001952
   59      H       5.8019764233    -2.5353154983     2.3716652767
   60      C       4.3174199456    -3.7044752829     1.3844647940
   61      H       4.7225643665    -4.6496556729     1.7217822487
   62      C       3.1656511695    -3.6880150092     0.5712646919
   63      H       2.6938723948    -4.6207009493     0.2899816598
   64      C       2.6428941267    -2.5005254563     0.1389183077
   65      H       1.7561216075    -2.5048082939    -0.4854229098
   66      C       3.2363343721    -1.2642591659     0.4967064751
   67      C       2.6884703636     2.4830884669     0.0743709042
   68      H       3.3440429574     3.3113179979     0.3426029567
   69      H       2.4991351738     2.5469824409    -0.9987041269
   70      H       1.7316959176     2.6496446061     0.5757068164
   71      C      -2.6632148518    -0.0218732381    -2.9938322439
   72      C      -3.2708862337    -1.2326397411    -3.2625596425
   73      C      -4.5235991617    -1.2671592166    -3.9173545424
   74      H      -4.9819303492    -2.2273741567    -4.1240164465
   75      C      -5.1631777358    -0.1193492987    -4.2902787933
   76      H      -6.1224187926    -0.1622262781    -4.7929059879
   77      C      -4.5832189954     1.1380972492    -4.0203721274
   78      C      -5.2264565435     2.3458538172    -4.3810112239
   79      H      -6.1853140196     2.2971552603    -4.8841761047
   80      C      -4.6555966349     3.5558652100    -4.1000142980
   81      H      -5.1569334313     4.4741047804    -4.3779563759
   82      C      -3.4096029190     3.6092479047    -3.4421919756
   83      H      -2.9632633309     4.5694824536    -3.2172965142
   84      C      -2.7644968417     2.4560659874    -3.0872849966
   85      H      -1.8084474617     2.5188320324    -2.5797163801
   86      C      -3.3237344988     1.1829102231    -3.3653363646
   87      C      -2.6290390732    -2.5237610945    -2.8369987156
   88      H      -3.1397371396    -3.3869655542    -3.2629740341
   89      H      -1.5816086547    -2.5778966557    -3.1401575975
   90      H      -2.6513297600    -2.6331864420    -1.7500201010
 ----------------------------------------------------------------

   15   -2123.3955316497      4.75e-09  Convergence criterion met
 Total energy in the final basis set =    -2123.3955316497

         TDDFT/TDA Excitation Energies
 ---------------------------------------------------

 Excited state   1: excitation energy (eV) =    1.8971
 Total energy for state  1:                 -2123.32581320 au
    Multiplicity: Triplet
    Trans. Mom.:  0.0000 X   0.0000 Y   0.0000 Z
    Strength   :     0.0000000000
    D(182) --> V(  1) amplitude =  0.8165
    D(184) --> V(  1) amplitude = -0.4210

 Excited state   2: excitation energy (eV) =    2.2405
 Total energy for state  2:                 -2123.31319634 au
    Multiplicity: Triplet
    Trans. Mom.:  0.0000 X   0.0000 Y   0.0000 Z
    Strength   :     0.0000000000
    D(180) --> V(  1) amplitude = -0.4738
    D(180) --> V(  2) amplitude =  0.3498
    D(181) --> V(  1) amplitude =  0.6430
    D(181) --> V(  2) amplitude = -0.2721
    D(183) --> V(  1) amplitude = -0.2271

 Excited state   3: excitation energy (eV) =    2.4777
 Total energy for state  3:                 -2123.30447699 au
    Multiplicity: Triplet
    Trans. Mom.:  0.0000 X   0.0000 Y   0.0000 Z
    Strength   :     0.0000000000
    D(180) --> V(  1) amplitude =  0.5679
    D(180) --> V(  2) amplitude =  0.3139
    D(181) --> V(  1) amplitude =  0.3987
    D(181) --> V(  2) amplitude =  0.4466

 Excited state   4: excitation energy (eV) =    2.5653
 Total energy for state  4:                 -2123.30125814 au
    Multiplicity: Triplet
    Trans. Mom.:  0.0000 X   0.0000 Y   0.0000 Z
    Strength   :     0.0000000000
    D(179) --> V(  1) amplitude =  0.6627
    D(182) --> V(  2) amplitude =  0.4767
    D(184) --> V(  2) amplitude = -0.2586

 Excited state   5: excitation energy (eV) =    2.6052
 Total energy for state  5:                 -2123.29979280 au
    Multiplicity: Singlet
    Trans. Mom.: -0.3286 X   0.0362 Y  -0.3644 Z
    Strength   :     0.0154501346
    D(182) --> V(  1) amplitude =  0.7998
    D(184) --> V(  1) amplitude = -0.5417

 Excited state   6: excitation energy (eV) =    2.7270
 Total energy for state  6:                 -2123.29531467 au
    Multiplicity: Triplet
    Trans. Mom.:  0.0000 X   0.0000 Y   0.0000 Z
    Strength   :     0.0000000000
    D(182) --> V(  1) amplitude =  0.4475
    D(184) --> V(  1) amplitude =  0.8362

 Excited state   7: excitation energy (eV) =    2.7665
 Total energy for state  7:                 -2123.29386387 au
    Multiplicity: Singlet
    Trans. Mom.: -0.0283 X   0.0571 Y  -0.2183 Z
    Strength   :     0.0035052865
    D(182) --> V(  1) amplitude =  0.5406
    D(184) --> V(  1) amplitude =  0.8078

 Excited state   8: excitation energy (eV) =    2.7948
 Total energy for state  8:                 -2123.29282408 au
    Multiplicity: Triplet
    Trans. Mom.:  0.0000 X   0.0000 Y   0.0000 Z
    Strength   :     0.0000000000
    D(181) --> V(  1) amplitude =  0.2922
    D(183) --> V(  1) amplitude =  0.9143

 Excited state   9: excitation energy (eV) =    2.8072
 Total energy for state  9:                 -2123.29236962 au
    Multiplicity: Singlet
    Trans. Mom.: -0.5758 X  -0.0159 Y   0.7374 Z
    Strength   :     0.0602214274
    D(183) --> V(  1) amplitude =  0.9716

 Excited state  10: excitation energy (eV) =    3.0538
 Total energy for state 10:                 -2123.28330592 au
    Multiplicity: Singlet
    Trans. Mom.:  1.9999 X   0.1985 Y  -3.6061 Z
    Strength   :     1.2750960585
    D(181) --> V(  1) amplitude =  0.9454

 Excited state  11: excitation energy (eV) =    3.3790
 Total energy for state 11:                 -2123.27135555 au
    Multiplicity: Singlet
    Trans. Mom.:  0.3575 X  -0.1539 Y  -0.2360 Z
    Strength   :     0.0171496334
    D(180) --> V(  1) amplitude =  0.9145

 Excited state  12: excitation energy (eV) =    3.4028
 Total energy for state 12:                 -2123.27048100 au
    Multiplicity: Singlet
    Trans. Mom.:  0.8223 X  -0.0473 Y   0.5212 Z
    Strength   :     0.0792013944
    D(179) --> V(  1) amplitude =  0.6345
    D(182) --> V(  2) amplitude =  0.5661
    D(184) --> V(  2) amplitude = -0.2952

 ---------------------------------------------------

                    Orbital Energies (a.u.)
 --------------------------------------------------------------

 Alpha MOs
 -- Occupied --
-10.471 -10.470 -10.470 -10.469 -10.468 -10.468 -10.467 -10.467
-10.466 -10.466 -10.466 -10.466 -10.464 -10.464 -10.464 -10.463
-10.462 -10.462 -10.460 -10.460 -10.460 -10.460 -10.459 -10.459
-10.459 -10.458 -10.458 -10.458 -10.457 -10.457 -10.457 -10.457
-10.451 -10.450 -10.450 -10.450 -10.450 -10.449 -10.448 -10.448
-10.448 -10.448 -10.447 -10.447 -10.446 -10.445 -10.442 -10.442
-10.440 -10.439 -10.434 -10.433 -10.429 -10.429  -6.951  -6.951
 -1.019  -1.016  -0.981  -0.981  -0.964  -0.957  -0.936  -0.935
 -0.927  -0.927  -0.910  -0.901  -0.876  -0.872  -0.863  -0.858
 -0.851  -0.850  -0.850  -0.848  -0.823  -0.819  -0.815  -0.813
 -0.811  -0.799  -0.769  -0.768  -0.739  -0.736  -0.729  -0.720
 -0.703  -0.702  -0.691  -0.690  -0.680  -0.677  -0.674  -0.673
 -0.670  -0.661  -0.649  -0.642  -0.601  -0.597  -0.593  -0.590
 -0.584  -0.579  -0.578  -0.577  -0.576  -0.569  -0.569  -0.551
 -0.551  -0.544  -0.532  -0.529  -0.528  -0.513  -0.513  -0.507
 -0.506  -0.504  -0.503  -0.502  -0.494  -0.494  -0.489  -0.487
 -0.487  -0.485  -0.483  -0.483  -0.480  -0.477  -0.473  -0.471
 -0.466  -0.465  -0.455  -0.455  -0.449  -0.447  -0.444  -0.442
 -0.442  -0.439  -0.436  -0.433  -0.431  -0.426  -0.424  -0.415
 -0.410  -0.402  -0.399  -0.399  -0.398  -0.395  -0.392  -0.390
 -0.389  -0.389  -0.379  -0.376  -0.374  -0.372  -0.360  -0.357
 -0.354  -0.340  -0.330  -0.329  -0.324  -0.320  -0.301  -0.298
 -0.283  -0.283  -0.281  -0.266  -0.259  -0.252  -0.251  -0.250

          Ground-State Mulliken Net Atomic Charges

     Atom                 Charge (a.u.)
  ----------------------------------------
      1 C                    -0.152990
      2 C                    -0.393320
      3 H                     0.250505
      4 C                     0.087366
      5 C                     0.077410
      6 C                    -0.393316
      7 H                     0.250136
      8 C                    -0.157438
      9 C                     0.179563
     10 C                    -0.392329
     11 H                     0.255097
     12 C                    -0.066836
     13 C                     0.215053
     14 C                     0.180040
     15 C                    -0.394193
     16 H                     0.254976
     17 C                    -0.234993
     18 H                     0.260263
     19 C                    -0.348008
     20 H                     0.257972
     21 C                    -0.235627
     22 H                     0.260380
     23 C                    -0.346805
     24 H                     0.258021
     25 B                     0.686204
     26 C                    -0.154842
     27 C                    -0.375616
     28 H                     0.249890
     29 C                     0.048033
     30 C                     0.181927
     31 C                    -0.365856
     32 H                     0.259201
     33 C                    -0.235579
     34 H                     0.262131
     35 C                    -0.343923
     36 H                     0.260035
     37 C                     0.221527
     38 C                    -0.086373
     39 C                    -0.345799
     40 H                     0.260156
     41 C                    -0.235180
     42 H                     0.261578
     43 C                    -0.372364
     44 H                     0.258872
     45 C                     0.185955
     46 C                     0.059617
     47 C                    -0.384152
     48 H                     0.249031
     49 C                    -0.159384
     50 B                     0.686278
     51 C                    -0.227077
     52 C                     0.011216
     53 C                    -0.290544
     54 H                     0.241080
     55 C                    -0.334721
     56 H                     0.244925
     57 C                     0.101083
     58 C                    -0.308140
     59 H                     0.246438
     60 C                    -0.262106
     61 H                     0.249735
     62 C                    -0.261628
     63 H                     0.251064
     64 C                    -0.353280
     65 H                     0.258867
     66 C                     0.073682
     67 C                    -0.768688
     68 H                     0.253842
     69 H                     0.252554
     70 H                     0.249353
     71 C                    -0.223161
     72 C                     0.007992
     73 C                    -0.292232
     74 H                     0.241291
     75 C                    -0.333722
     76 H                     0.245131
     77 C                     0.101443
     78 C                    -0.307036
     79 H                     0.246278
     80 C                    -0.261989
     81 H                     0.249816
     82 C                    -0.260829
     83 H                     0.251026
     84 C                    -0.353822
     85 H                     0.257838
     86 C                     0.074042
     87 C                    -0.768702
     88 H                     0.254312
     89 H                     0.252579
     90 H                     0.249798
  ----------------------------------------
  Sum of atomic charges =    -0.000000

                    Cartesian Multipole Moments
 -----------------------------------------------------------------
    Charge (ESU x 10^10)
                -0.0000
    Dipole Moment (Debye)
         X       0.4194      Y       0.5879      Z      -0.8894
       Tot       1.1457
    Quadrupole Moments (Debye-Ang)
        XX    -262.7924     XY       5.9157     YY    -311.1868
        XZ      -8.1014     YZ      -4.6869     ZZ    -248.7105

 Total job time:  14459.43s(wall), 35962.33s(cpu)
        *  Thank you very much for using Q-Chem.  Have a nice day.  *
