 Q-Chem 5.1, Q-Chem, Inc., Pleasanton, CA (2018)
 Q-Chem 5.1.1 for Intel X86 EM64T Linux

User input:
--------------------------------------------------------------
$solvent
dielectric      8.93
dielectric_infi 2.03
$end

$rem
threads 8
jobtype	sp
method PBEh-3c
basis def2-mSVP
mem_static	1024
mem_total	14000
sym_ignore	true
cis_n_roots             2
cis_singlets            false
cis_triplets		true
rpa                     false
calc_soc 		true
cis_moments             true
cis_relaxed_density	true
solvent_method		pcm
$end

$pcm
StateSpecific   1
ChargeSeparation Excited
$end

$molecule
read utleopt_dcm.mol
$end

--------------------------------------------------------------

   22   -2123.3298603577      9.17e-09  Convergence criterion met
 Total energy in the final basis set =    -2123.3298603577
 Total job time:  9326.14s(wall), 39188.17s(cpu)
        *  Thank you very much for using Q-Chem.  Have a nice day.  *
 Q-Chem 5.1, Q-Chem, Inc., Pleasanton, CA (2018)
 Q-Chem 5.1.1 for Intel X86 EM64T Linux

User input:
--------------------------------------------------------------
$rem
threads 8
jobtype sp
method PBEh-3c
basis def2-mSVP
mem_static      1024
mem_total       14000
sym_ignore      true
cis_n_roots             6
cis_singlets            true
cis_triplets            true
rpa                     false
calc_soc                true
cis_moments             true
cis_relaxed_density     true
solvent_method          pcm
$end

$molecule
read
$end

$pcm
statespecific           Marcus
$end

$solvent
dielectric      8.93
dielectric_infi 2.03
$end

--------------------------------------------------------------

             Standard Nuclear Orientation (Angstroms)
    I     Atom           X                Y                Z
 ----------------------------------------------------------------
    1      C       0.0000000000     0.0000000000     0.0000000000
    2      C       0.0000000000     0.0000000000     1.4062560000
    3      H       0.9388765938     0.0000000000     1.9472272161
    4      C      -1.1887129140     0.0076211453     2.0961595070
    5      C      -2.4250063543     0.0185226101     1.3928336767
    6      C      -2.4440029205     0.0146234647     0.0183724773
    7      H      -3.3902172901     0.0223981847    -0.5114138768
    8      C      -1.2378693396     0.0048764279    -0.7022744221
    9      C      -3.5095478295     0.0362147292     2.3760725253
   10      C      -4.8803006491     0.0610764503     2.3171471646
   11      H      -5.4142842270     0.0718780223     1.3749269191
   12      C      -2.8887191398     0.0291752566     3.6393504855
   13      C      -3.5809831624     0.0416844709     4.8480557100
   14      C      -1.4854127482     0.0129678763     3.5300223322
   15      C      -0.7410875039     0.0077446603     4.6818821858
   16      H       0.3413297019    -0.0035122602     4.6640262490
   17      C      -1.4167356676     0.0169468363     5.9258300095
   18      H      -0.8274546118     0.0119376266     6.8335045612
   19      C      -2.7895611506     0.0331423326     6.0218262065
   20      H      -3.2653409960     0.0412026139     6.9951642611
   21      C      -5.6098924521     0.0754814133     3.5304179817
   22      H      -6.6911132807     0.0963792513     3.4824068341
   23      C      -4.9949398176     0.0646453355     4.7617457291
   24      H      -5.5932376030     0.0758102509     5.6649313894
   25      B      -1.2764684755     0.0156267023    -2.2437997721
   26      C       0.0453140865     0.0679915773    -3.0240913789
   27      C       0.0367017118     0.1598850536    -4.4053301381
   28      H      -0.9070308737     0.1810539690    -4.9389648150
   29      C       1.2308824086     0.2424604746    -5.1096452321
   30      C       1.5067067901     0.3989891461    -6.4883028211
   31      C       0.7250582009     0.5256896685    -7.6312187944
   32      H      -0.3560201471     0.4981907240    -7.5852170302
   33      C       1.3791786215     0.7010696825    -8.8565747134
   34      H       0.7822315500     0.8038937221    -9.7534211251
   35      C       2.7617915177     0.7537181831    -8.9685550599
   36      H       3.2133786016     0.8958006044    -9.9422834441
   37      C       3.5854217814     0.6298804755    -7.8214214481
   38      C       2.9214740313     0.4517101911    -6.6117726705
   39      C       4.9989572947     0.6760129321    -7.7476272881
   40      H       5.5822294696     0.8124264723    -8.6494579908
   41      C       5.6423046291     0.5526556460    -6.5254097310
   42      H       6.7234086668     0.5943645929    -6.5033095604
   43      C       4.9548215679     0.3808224197    -5.3151383260
   44      H       5.4995725966     0.2962258432    -4.3840054116
   45      C       3.5683030507     0.3304409607    -5.3539031391
   46      C       2.5340311252     0.2040373271    -4.3826278163
   47      C       2.5393949420     0.1037933288    -2.9998279497
   48      H       3.4789743425     0.0864595630    -2.4593410936
   49      C       1.3422531739     0.0501724250    -2.2939531011
   50      B       1.3436788813     0.0019956310    -0.7577840286
   51      C       2.6836783508    -0.0251003866     0.0690261213
   52      C       3.2818110431     1.1560553275     0.4618890414
   53      C       4.4415180591     1.1221672799     1.2698939642
   54      H       4.9011266647     2.0577486474     1.5676405530
   55      C       4.9846996815    -0.0602667665     1.6871351081
   56      H       5.8704105857    -0.0657589194     2.3114909341
   57      C       4.3944773901    -1.2880847808     1.3158760686
   58      C       4.9172750197    -2.5297261017     1.7456001952
   59      H       5.8019764233    -2.5353154983     2.3716652767
   60      C       4.3174199456    -3.7044752829     1.3844647940
   61      H       4.7225643665    -4.6496556729     1.7217822487
   62      C       3.1656511695    -3.6880150092     0.5712646919
   63      H       2.6938723948    -4.6207009493     0.2899816598
   64      C       2.6428941267    -2.5005254563     0.1389183077
   65      H       1.7561216075    -2.5048082939    -0.4854229098
   66      C       3.2363343721    -1.2642591659     0.4967064751
   67      C       2.6884703636     2.4830884669     0.0743709042
   68      H       3.3440429574     3.3113179979     0.3426029567
   69      H       2.4991351738     2.5469824409    -0.9987041269
   70      H       1.7316959176     2.6496446061     0.5757068164
   71      C      -2.6632148518    -0.0218732381    -2.9938322439
   72      C      -3.2708862337    -1.2326397411    -3.2625596425
   73      C      -4.5235991617    -1.2671592166    -3.9173545424
   74      H      -4.9819303492    -2.2273741567    -4.1240164465
   75      C      -5.1631777358    -0.1193492987    -4.2902787933
   76      H      -6.1224187926    -0.1622262781    -4.7929059879
   77      C      -4.5832189954     1.1380972492    -4.0203721274
   78      C      -5.2264565435     2.3458538172    -4.3810112239
   79      H      -6.1853140196     2.2971552603    -4.8841761047
   80      C      -4.6555966349     3.5558652100    -4.1000142980
   81      H      -5.1569334313     4.4741047804    -4.3779563759
   82      C      -3.4096029190     3.6092479047    -3.4421919756
   83      H      -2.9632633309     4.5694824536    -3.2172965142
   84      C      -2.7644968417     2.4560659874    -3.0872849966
   85      H      -1.8084474617     2.5188320324    -2.5797163801
   86      C      -3.3237344988     1.1829102231    -3.3653363646
   87      C      -2.6290390732    -2.5237610945    -2.8369987156
   88      H      -3.1397371396    -3.3869655542    -3.2629740341
   89      H      -1.5816086547    -2.5778966557    -3.1401575975
   90      H      -2.6513297600    -2.6331864420    -1.7500201010
 ----------------------------------------------------------------

   23   -2123.3289361557      5.80e-09  Convergence criterion met
 Total energy in the final basis set =    -2123.3289361557

         TDDFT/TDA Excitation Energies
 ---------------------------------------------------

 Excited state   1: excitation energy (eV) =    0.7790
 Total energy for state  1:                 -2123.30030826 au
    <S**2>     :  2.1154
    Trans. Mom.:  0.2586 X  -0.0105 Y   0.2488 Z
    Strength   :     0.0024599290
    D(180) --> S(  1) amplitude = -0.6251 beta
    D(181) --> S(  1) amplitude =  0.7117 beta
    D(182) --> S(  1) amplitude =  0.1904 beta

 Excited state   2: excitation energy (eV) =    1.2776
 Total energy for state  2:                 -2123.28198615 au
    <S**2>     :  2.1965
    Trans. Mom.:  0.0787 X  -0.0047 Y   0.0118 Z
    Strength   :     0.0001990294
    D(182) --> S(  1) amplitude =  0.2156 beta
    D(183) --> S(  1) amplitude =  0.9569 beta

 Excited state   3: excitation energy (eV) =    1.3347
 Total energy for state  3:                 -2123.27988649 au
    <S**2>     :  2.1950
    Trans. Mom.: -0.0870 X   0.0396 Y  -0.0590 Z
    Strength   :     0.0004124311
    D(181) --> S(  1) amplitude = -0.2123 beta
    D(182) --> S(  1) amplitude =  0.9455 beta
    D(183) --> S(  1) amplitude = -0.1917 beta

 Excited state   4: excitation energy (eV) =    1.5324
 Total energy for state  4:                 -2123.27262298 au
    <S**2>     :  2.1632
    Trans. Mom.: -1.2436 X  -0.1515 Y   2.2038 Z
    Strength   :     0.2412468833
    S(  2) --> V(  1) amplitude =  0.8580 alpha
    S(  2) --> V(  3) amplitude = -0.1957 alpha
    D(179) --> S(  1) amplitude = -0.4120 beta

 Excited state   5: excitation energy (eV) =    1.8060
 Total energy for state  5:                 -2123.26256816 au
    <S**2>     :  2.2254
    Trans. Mom.:  0.1512 X  -0.0001 Y  -0.0779 Z
    Strength   :     0.0012806580
    D(174) --> S(  1) amplitude =  0.1750 beta
    D(180) --> S(  1) amplitude =  0.7438 beta
    D(181) --> S(  1) amplitude =  0.6265 beta

 Excited state   6: excitation energy (eV) =    2.0003
 Total energy for state  6:                 -2123.25542663 au
    <S**2>     :  2.2173
    Trans. Mom.: -2.0718 X  -0.1856 Y   3.6629 Z
    Strength   :     0.8695305939
    S(  2) --> V(  1) amplitude =  0.3609 alpha
    D(175) --> S(  1) amplitude =  0.2129 beta
    D(176) --> S(  1) amplitude =  0.2018 beta
    D(179) --> S(  1) amplitude =  0.8491 beta

 ---------------------------------------------------

                    Orbital Energies (a.u.)
 --------------------------------------------------------------

 Alpha MOs
 -- Occupied --
-10.491 -10.489 -10.473 -10.470 -10.470 -10.469 -10.469 -10.468
-10.468 -10.467 -10.466 -10.466 -10.466 -10.466 -10.466 -10.465
-10.465 -10.465 -10.464 -10.463 -10.463 -10.460 -10.460 -10.459
-10.459 -10.459 -10.458 -10.457 -10.457 -10.457 -10.457 -10.457
-10.456 -10.456 -10.455 -10.453 -10.450 -10.449 -10.449 -10.449
-10.448 -10.448 -10.448 -10.447 -10.447 -10.447 -10.445 -10.445
-10.441 -10.440 -10.431 -10.431 -10.429 -10.429  -6.939  -6.939
 -1.031  -1.020  -0.981  -0.980  -0.971  -0.964  -0.939  -0.936
 -0.927  -0.926  -0.917  -0.906  -0.878  -0.871  -0.870  -0.859
 -0.854  -0.850  -0.849  -0.849  -0.830  -0.822  -0.817  -0.814
 -0.812  -0.811  -0.768  -0.768  -0.746  -0.740  -0.731  -0.724
 -0.703  -0.701  -0.694  -0.693  -0.683  -0.677  -0.676  -0.673
 -0.672  -0.661  -0.652  -0.650  -0.604  -0.599  -0.594  -0.591
 -0.586  -0.580  -0.580  -0.578  -0.578  -0.570  -0.569  -0.551
 -0.551  -0.548  -0.535  -0.531  -0.530  -0.517  -0.515  -0.508
 -0.508  -0.507  -0.506  -0.505  -0.503  -0.498  -0.495  -0.491
 -0.489  -0.487  -0.483  -0.482  -0.481  -0.478  -0.473  -0.472
 -0.467  -0.467  -0.456  -0.455  -0.450  -0.448  -0.447  -0.444
 -0.442  -0.442  -0.442  -0.434  -0.433  -0.432  -0.427  -0.416
 -0.410  -0.408  -0.404  -0.401  -0.399  -0.397  -0.397  -0.392
 -0.392  -0.388  -0.385  -0.384  -0.375  -0.374  -0.362  -0.360
 -0.356  -0.347  -0.342  -0.330  -0.324  -0.323  -0.312  -0.301
 -0.298  -0.282  -0.282  -0.279  -0.272  -0.263  -0.251  -0.250
 -0.187

 Beta MOs
 -- Occupied --
-10.484 -10.483 -10.473 -10.473 -10.472 -10.470 -10.469 -10.468
-10.468 -10.468 -10.468 -10.466 -10.466 -10.465 -10.465 -10.463
-10.463 -10.462 -10.461 -10.461 -10.461 -10.460 -10.460 -10.460
-10.459 -10.459 -10.459 -10.457 -10.457 -10.457 -10.456 -10.456
-10.456 -10.453 -10.453 -10.451 -10.450 -10.449 -10.449 -10.449
-10.448 -10.448 -10.448 -10.447 -10.447 -10.447 -10.445 -10.445
-10.441 -10.440 -10.432 -10.431 -10.429 -10.429  -6.938  -6.938
 -1.023  -1.020  -0.980  -0.980  -0.964  -0.961  -0.935  -0.935
 -0.927  -0.926  -0.912  -0.904  -0.876  -0.871  -0.868  -0.858
 -0.850  -0.850  -0.849  -0.848  -0.822  -0.820  -0.816  -0.813
 -0.811  -0.800  -0.768  -0.767  -0.738  -0.736  -0.730  -0.722
 -0.702  -0.701  -0.691  -0.691  -0.681  -0.676  -0.673  -0.672
 -0.671  -0.660  -0.649  -0.648  -0.602  -0.597  -0.593  -0.589
 -0.585  -0.578  -0.578  -0.578  -0.577  -0.569  -0.568  -0.551
 -0.551  -0.545  -0.533  -0.530  -0.527  -0.516  -0.513  -0.507
 -0.506  -0.506  -0.505  -0.503  -0.496  -0.495  -0.489  -0.488
 -0.486  -0.484  -0.483  -0.482  -0.481  -0.477  -0.473  -0.471
 -0.467  -0.466  -0.455  -0.454  -0.449  -0.447  -0.444  -0.442
 -0.441  -0.440  -0.435  -0.432  -0.431  -0.425  -0.417  -0.415
 -0.409  -0.402  -0.400  -0.398  -0.397  -0.396  -0.395  -0.391
 -0.388  -0.388  -0.382  -0.375  -0.373  -0.366  -0.359  -0.355
 -0.345  -0.340  -0.334  -0.329  -0.323  -0.320  -0.298  -0.298
 -0.282  -0.282  -0.273  -0.265  -0.260  -0.251  -0.250

          Ground-State Mulliken Net Atomic Charges

     Atom                 Charge (a.u.)    Spin (a.u.)
  --------------------------------------------------------
      1 C                    -0.143856       0.013120
      2 C                    -0.399225      -0.005072
      3 H                     0.247938      -0.000251
      4 C                     0.085256       0.033545
      5 C                     0.075708       0.037822
      6 C                    -0.399528      -0.008905
      7 H                     0.247691      -0.000039
      8 C                    -0.147344       0.016318
      9 C                     0.177885      -0.022427
     10 C                    -0.395034       0.027065
     11 H                     0.254296      -0.001566
     12 C                    -0.067721       0.018166
     13 C                     0.214756      -0.015499
     14 C                     0.178445      -0.021409
     15 C                    -0.396968       0.025808
     16 H                     0.254004      -0.001494
     17 C                    -0.234811      -0.017903
     18 H                     0.259937       0.000863
     19 C                    -0.350335       0.024927
     20 H                     0.257272      -0.001418
     21 C                    -0.235493      -0.018414
     22 H                     0.260092       0.000882
     23 C                    -0.349075       0.026087
     24 H                     0.257343      -0.001486
     25 B                     0.636646       0.185579
     26 C                    -0.143775       0.319536
     27 C                    -0.366720      -0.238912
     28 H                     0.260411       0.009472
     29 C                     0.063703       0.444065
     30 C                     0.186975      -0.199904
     31 C                    -0.375150       0.294062
     32 H                     0.258631      -0.017215
     33 C                    -0.230330      -0.202847
     34 H                     0.265663       0.009495
     35 C                    -0.344402       0.329330
     36 H                     0.263664      -0.018845
     37 C                     0.228407      -0.191080
     38 C                    -0.061731       0.284065
     39 C                    -0.348229       0.305806
     40 H                     0.262807      -0.017492
     41 C                    -0.229564      -0.198661
     42 H                     0.264444       0.009433
     43 C                    -0.382197       0.282740
     44 H                     0.257488      -0.016492
     45 C                     0.189111      -0.210826
     46 C                     0.079413       0.451563
     47 C                    -0.379337      -0.262119
     48 H                     0.259196       0.010704
     49 C                    -0.144189       0.367753
     50 B                     0.639843       0.187853
     51 C                    -0.219447      -0.017885
     52 C                     0.009234       0.001313
     53 C                    -0.290998       0.000364
     54 H                     0.239974       0.000183
     55 C                    -0.335665      -0.000404
     56 H                     0.244151       0.000020
     57 C                     0.100563       0.000014
     58 C                    -0.308618       0.000035
     59 H                     0.245950       0.000006
     60 C                    -0.262528       0.000160
     61 H                     0.249232       0.000031
     62 C                    -0.261700      -0.000539
     63 H                     0.249790       0.000074
     64 C                    -0.350379       0.003441
     65 H                     0.255669      -0.001897
     66 C                     0.069406       0.001411
     67 C                    -0.763905       0.000844
     68 H                     0.252145       0.000961
     69 H                     0.248445      -0.000868
     70 H                     0.247035      -0.000388
     71 C                    -0.214871      -0.018177
     72 C                     0.005748       0.001612
     73 C                    -0.292775      -0.000062
     74 H                     0.239936       0.000167
     75 C                    -0.334677       0.000125
     76 H                     0.244233      -0.000012
     77 C                     0.101003      -0.000169
     78 C                    -0.307470       0.000328
     79 H                     0.245682      -0.000007
     80 C                    -0.262320      -0.000091
     81 H                     0.249220       0.000042
     82 C                    -0.260841      -0.000177
     83 H                     0.249595       0.000052
     84 C                    -0.350542       0.003048
     85 H                     0.254550      -0.001747
     86 C                     0.068926       0.001724
     87 C                    -0.763459       0.001061
     88 H                     0.252220       0.000807
     89 H                     0.248344      -0.000923
     90 H                     0.247130      -0.000262
  --------------------------------------------------------
  Sum of atomic charges =    -0.000000

                    Cartesian Multipole Moments
 -----------------------------------------------------------------
    Charge (ESU x 10^10)
                -0.0000
    Dipole Moment (Debye)
         X       2.0585      Y       0.7670      Z      -3.8340
       Tot       4.4188
    Quadrupole Moments (Debye-Ang)
        XX    -264.4167     XY       6.6553     YY    -312.2153
        XZ     -16.5115     YZ      -5.6638     ZZ    -233.6096

 Total job time:  15216.47s(wall), 56008.87s(cpu)
        *  Thank you very much for using Q-Chem.  Have a nice day.  *
