 Q-Chem 5.0, Q-Chem, Inc., Pleasanton, CA (2017)
 Q-Chem 5.0.1 for Intel X86 EM64T Linux

User input:
--------------------------------------------------------------
$rem
threads 4
jobtype	opt
method PBEh-3c
basis def2-mSVP
mem_static	1024
mem_total	4000
sym_ignore	true
scf_convergence	9
solvent_method	pcm
$end

$molecule
read gsopt.mol
$end

$solvent
dielectric	2.03
$end

$pcm
theory iefpcm
$end
--------------------------------------------------------------

   17   -2123.3894694838      3.65E-10 Convergence criterion met
 Total energy in the final basis set = -2123.38946948
   14   -2123.3896652522      8.90E-10 Convergence criterion met
 Total energy in the final basis set = -2123.38966525
   14   -2123.3896593487      8.18E-10 Convergence criterion met
 Total energy in the final basis set = -2123.38965935
   14   -2123.3897301134      7.84E-10 Convergence criterion met
 Total energy in the final basis set = -2123.38973011
   14   -2123.3897681602      7.07E-10 Convergence criterion met
 Total energy in the final basis set = -2123.38976816
   14   -2123.3898244778      7.40E-10 Convergence criterion met
 Total energy in the final basis set = -2123.38982448
   14   -2123.3898581251      7.19E-10 Convergence criterion met
 Total energy in the final basis set = -2123.38985813
   14   -2123.3898821424      7.33E-10 Convergence criterion met
 Total energy in the final basis set = -2123.38988214
   14   -2123.3898657613      7.78E-10 Convergence criterion met
 Total energy in the final basis set = -2123.38986576
   14   -2123.3898592320      6.96E-10 Convergence criterion met
 Total energy in the final basis set = -2123.38985923
   14   -2123.3898573220      6.69E-10 Convergence criterion met
 Total energy in the final basis set = -2123.38985732
   14   -2123.3898595131      5.91E-10 Convergence criterion met
 Total energy in the final basis set = -2123.38985951
   14   -2123.3898611488      5.76E-10 Convergence criterion met
 Total energy in the final basis set = -2123.38986115

             Standard Nuclear Orientation (Angstroms)
    I     Atom           X                Y                Z
 ----------------------------------------------------------------
    1      C      -0.0309016397     0.0853336940     0.0942204174
    2      C      -0.0423019464     0.0592239744     1.4937619175
    3      H       0.8943293280     0.0593587541     2.0402211937
    4      C      -1.2484735636     0.0332749341     2.1760962557
    5      C      -2.4615945218     0.0339030353     1.4532693524
    6      C      -2.4626973190     0.0528653905     0.0715663386
    7      H      -3.4002804891     0.0485127929    -0.4736128794
    8      C      -1.2537056404     0.0786191862    -0.6226413852
    9      C      -3.5697098930     0.0098013267     2.4009535731
   10      C      -4.9355632117     0.0029342242     2.2895712144
   11      H      -5.4318049433     0.0174288188     1.3268536428
   12      C      -2.9887720985    -0.0072189711     3.6801858505
   13      C      -3.7206082465    -0.0326846853     4.8615539662
   14      C      -1.5825424937     0.0050833992     3.6034886534
   15      C      -0.8733357604    -0.0110608774     4.7746764067
   16      H       0.2092510991    -0.0050133744     4.7882467835
   17      C      -2.9622280804    -0.0480688089     6.0560989150
   18      H      -3.4616839528    -0.0683780756     7.0168990247
   19      C      -1.5877639358    -0.0376871771     5.9973449076
   20      H      -1.0244223082    -0.0506256960     6.9210351606
   21      C      -5.7062121479    -0.0221081786     3.4750144413
   22      H      -6.7853012160    -0.0271290690     3.3915930074
   23      C      -5.1308298990    -0.0399244790     4.7248354424
   24      H      -5.7604804535    -0.0590599383     5.6059573160
   25      B      -1.2553541579     0.0970701171    -2.1741444601
   26      B       1.3137963253     0.1259555112    -0.6860904260
   27      C       1.3201515926     0.1563479425    -2.2394310461
   28      C       2.5287059328     0.1852440412    -2.9457131925
   29      H       3.4686674416     0.1769645230    -2.4052333303
   30      C       2.5196672675     0.2220783550    -4.3306193928
   31      C       1.2878975862     0.2336035487    -5.0214440619
   32      C       0.0897976958     0.1983745438    -4.3362303334
   33      H      -0.8482121026     0.2018894495    -4.8805089195
   34      C       0.0907950906     0.1567651491    -2.9428727045
   35      C       1.5559447559     0.2762601603    -6.4548837212
   36      C       0.7801362345     0.3041271833    -7.5848029230
   37      H      -0.3019566399     0.3001095442    -7.5370450919
   38      C       2.9544645769     0.2856611492    -6.5892880101
   39      C       3.6133329686     0.3194657841    -7.8141644372
   40      C       3.5916107570     0.2535416746    -5.3337686656
   41      C       4.9614563467     0.2541726257    -5.3084852825
   42      H       5.5167253814     0.2277096345    -4.3794597683
   43      C       1.4234540871     0.3400159046    -8.8442584478
   44      H       0.8126412678     0.3621256931    -9.7375267689
   45      C       2.7933465277     0.3473702272    -8.9689748284
   46      H       3.2447082746     0.3742065311    -9.9533448602
   47      C       5.6635212816     0.2878998201    -6.5383431706
   48      H       6.7452937264     0.2876202490    -6.5124876554
   49      C       5.0266802593     0.3200609823    -7.7571692116
   50      H       5.6075744339     0.3450034245    -8.6711176280
   51      C       2.6709942460     0.1469062050     0.0981541042
   52      C       3.2434379031     1.3492806705     0.4573377091
   53      C       4.4571520682     1.3576184245     1.1796950215
   54      H       4.8960860470     2.3084277816     1.4587898058
   55      C       5.0810055901     0.1943182371     1.5328019350
   56      H       6.0106674648     0.2190407093     2.0889767173
   57      C       4.5252623869    -1.0532948374     1.1778869660
   58      C       5.1427967379    -2.2770729982     1.5252348309
   59      H       6.0719322049    -2.2548723297     2.0826969056
   60      C       4.5830091856    -3.4711432472     1.1660948920
   61      H       5.0641862680    -4.4017719340     1.4375972470
   62      C       3.3760783064    -3.4955532369     0.4385521501
   63      H       2.9394887222    -4.4444273050     0.1550956426
   64      C       2.7570314991    -2.3275659158     0.0910761423
   65      H       1.8289647726    -2.3651849603    -0.4695299318
   66      C       3.3086475812    -1.0721535724     0.4497800915
   67      C       2.5770797621     2.6445358734     0.0838004790
   68      H       3.1389378280     3.5077161010     0.4392438176
   69      H       2.4758158944     2.7433284138    -0.9994946005
   70      H       1.5714498166     2.7132985477     0.5055349835
   71      C      -2.6047612562     0.0337443996    -2.9818869122
   72      C      -3.1217135019    -1.1874678900    -3.3663532224
   73      C      -4.3133252848    -1.2405278521    -4.1234547989
   74      H      -4.7047593738    -2.2075061249    -4.4175191092
   75      C      -4.9739489304    -0.1035918271    -4.4911947962
   76      H      -5.8859213586    -0.1638829774    -5.0734342688
   77      C      -4.4772099932     1.1625794796    -4.1176756889
   78      C      -5.1346680249     2.3594246085    -4.4829463215
   79      H      -6.0469189254     2.2975473022    -5.0649345644
   80      C      -4.6336191317     3.5751502083    -4.1115246867
   81      H      -5.1444801092     4.4855034573    -4.3969164639
   82      C      -3.4474709632     3.6463007984    -3.3540769634
   83      H      -3.0549200462     4.6115107447    -3.0620328922
   84      C      -2.7923539923     2.5038222495    -2.9875538386
   85      H      -1.8810244245     2.5787699033    -2.4043020254
   86      C      -3.2828072104     1.2265658700    -3.3548272182
   87      C      -2.4195660326    -2.4658728905    -3.0005108184
   88      H      -2.9856542382    -3.3418794960    -3.3162259302
   89      H      -1.4347519806    -2.5283541173    -3.4694763330
   90      H      -2.2675022034    -2.5472206116    -1.9221402965
 ----------------------------------------------------------------

   14   -2123.3898617514      5.71E-10 Convergence criterion met
 Total energy in the final basis set = -2123.38986175
 Final energy is   -2123.38986175142
 **  OPTIMIZATION CONVERGED  **

                    Orbital Energies (a.u.)
 --------------------------------------------------------------

 Alpha MOs
 -- Occupied --
-10.464 -10.464 -10.463 -10.463 -10.463 -10.463 -10.462 -10.462
-10.461 -10.461 -10.461 -10.461 -10.460 -10.460 -10.460 -10.460
-10.458 -10.458 -10.457 -10.457 -10.457 -10.457 -10.455 -10.455
-10.455 -10.454 -10.454 -10.454 -10.453 -10.453 -10.452 -10.452
-10.446 -10.446 -10.445 -10.445 -10.445 -10.445 -10.444 -10.444
-10.444 -10.444 -10.444 -10.444 -10.442 -10.442 -10.435 -10.435
-10.434 -10.433 -10.429 -10.428 -10.427 -10.427  -6.950  -6.950
 -1.015  -1.015  -0.977  -0.976  -0.961  -0.959  -0.932  -0.932
 -0.923  -0.923  -0.909  -0.900  -0.871  -0.868  -0.854  -0.853
 -0.847  -0.846  -0.845  -0.845  -0.822  -0.816  -0.811  -0.810
 -0.808  -0.804  -0.766  -0.765  -0.734  -0.728  -0.725  -0.719
 -0.700  -0.698  -0.688  -0.687  -0.678  -0.674  -0.671  -0.670
 -0.665  -0.656  -0.647  -0.646  -0.595  -0.594  -0.590  -0.588
 -0.582  -0.576  -0.575  -0.574  -0.573  -0.567  -0.566  -0.548
 -0.548  -0.542  -0.530  -0.527  -0.524  -0.512  -0.507  -0.504
 -0.503  -0.501  -0.500  -0.496  -0.494  -0.489  -0.486  -0.484
 -0.483  -0.482  -0.480  -0.480  -0.478  -0.475  -0.470  -0.470
 -0.466  -0.464  -0.453  -0.452  -0.448  -0.442  -0.440  -0.440
 -0.438  -0.437  -0.434  -0.431  -0.429  -0.423  -0.419  -0.413
 -0.406  -0.400  -0.397  -0.394  -0.393  -0.392  -0.389  -0.388
 -0.386  -0.386  -0.380  -0.371  -0.369  -0.368  -0.353  -0.352
 -0.351  -0.339  -0.325  -0.319  -0.318  -0.312  -0.294  -0.293
 -0.280  -0.278  -0.277  -0.261  -0.257  -0.255  -0.246  -0.245

          Ground-State Mulliken Net Atomic Charges

     Atom                 Charge (a.u.)
  ----------------------------------------
      1 C                    -0.155903
      2 C                    -0.392066
      3 H                     0.239510
      4 C                     0.106873
      5 C                     0.079747
      6 C                    -0.382827
      7 H                     0.239218
      8 C                    -0.157972
      9 C                     0.188461
     10 C                    -0.381477
     11 H                     0.235677
     12 C                    -0.062139
     13 C                     0.241811
     14 C                     0.190097
     15 C                    -0.390788
     16 H                     0.235661
     17 C                    -0.343985
     18 H                     0.235097
     19 C                    -0.215613
     20 H                     0.239903
     21 C                    -0.218559
     22 H                     0.240452
     23 C                    -0.339523
     24 H                     0.234717
     25 B                     0.708648
     26 B                     0.709748
     27 C                    -0.157813
     28 C                    -0.393537
     29 H                     0.239693
     30 C                     0.106205
     31 C                     0.078976
     32 C                    -0.379845
     33 H                     0.240364
     34 C                    -0.154120
     35 C                     0.189802
     36 C                    -0.381889
     37 H                     0.235630
     38 C                    -0.062856
     39 C                     0.240184
     40 C                     0.191308
     41 C                    -0.391867
     42 H                     0.235522
     43 C                    -0.218550
     44 H                     0.240380
     45 C                    -0.338514
     46 H                     0.234710
     47 C                    -0.215391
     48 H                     0.239834
     49 C                    -0.343533
     50 H                     0.235116
     51 C                    -0.224579
     52 C                     0.016278
     53 C                    -0.280337
     54 H                     0.221139
     55 C                    -0.321733
     56 H                     0.223020
     57 C                     0.118521
     58 C                    -0.296572
     59 H                     0.224118
     60 C                    -0.243502
     61 H                     0.230451
     62 C                    -0.246667
     63 H                     0.232910
     64 C                    -0.337475
     65 H                     0.245019
     66 C                     0.083627
     67 C                    -0.764876
     68 H                     0.242875
     69 H                     0.250357
     70 H                     0.249982
     71 C                    -0.229541
     72 C                     0.014508
     73 C                    -0.279224
     74 H                     0.221481
     75 C                    -0.322032
     76 H                     0.223473
     77 C                     0.121200
     78 C                    -0.295565
     79 H                     0.224374
     80 C                    -0.244049
     81 H                     0.230642
     82 C                    -0.246276
     83 H                     0.233045
     84 C                    -0.337867
     85 H                     0.244589
     86 C                     0.084827
     87 C                    -0.763905
     88 H                     0.242978
     89 H                     0.249936
     90 H                     0.250267
  ----------------------------------------
  Sum of atomic charges =     0.000000

                    Cartesian Multipole Moments
 -----------------------------------------------------------------
    Charge (ESU x 10^10)
                -0.0000
    Dipole Moment (Debye)
         X      -0.1151      Y       0.0104      Z      -0.0874
       Tot       0.1449
    Quadrupole Moments (Debye-Ang)
        XX    -274.7245     XY       2.9749     YY    -313.4027
        XZ      -3.8115     YZ       0.7376     ZZ    -267.7872

 Total job time:  27708.39s(wall), 66050.50s(cpu)
        *  Thank you very much for using Q-Chem.  Have a nice day.  *
