 Q-Chem 5.0, Q-Chem, Inc., Pleasanton, CA (2017)
 Q-Chem 5.0.1 for Intel X86 EM64T Linux

User input:
--------------------------------------------------------------
$rem
threads 4
jobtype	opt
method PBEh-3c
basis def2-mSVP
mem_static	1024
mem_total	4000
sym_ignore	true
scf_convergence	9
solvent_method	pcm
$end

$molecule
read gsopt.mol
$end

$solvent
dielectric	2.38
$end

$pcm
theory iefpcm
$end
--------------------------------------------------------------

   17   -2123.3916670298      3.52E-10 Convergence criterion met
 Total energy in the final basis set = -2123.39166703
   14   -2123.3918766829      9.84E-10 Convergence criterion met
 Total energy in the final basis set = -2123.39187668
   14   -2123.3918723605      9.36E-10 Convergence criterion met
 Total energy in the final basis set = -2123.39187236
   14   -2123.3919423882      8.62E-10 Convergence criterion met
 Total energy in the final basis set = -2123.39194239
   14   -2123.3919787721      8.18E-10 Convergence criterion met
 Total energy in the final basis set = -2123.39197877
   14   -2123.3920321965      8.53E-10 Convergence criterion met
 Total energy in the final basis set = -2123.39203220
   14   -2123.3920665136      8.39E-10 Convergence criterion met
 Total energy in the final basis set = -2123.39206651
   14   -2123.3920922126      8.17E-10 Convergence criterion met
 Total energy in the final basis set = -2123.39209221
   14   -2123.3920764067      9.05E-10 Convergence criterion met
 Total energy in the final basis set = -2123.39207641
   14   -2123.3920693559      8.14E-10 Convergence criterion met
 Total energy in the final basis set = -2123.39206936
   14   -2123.3920663423      7.64E-10 Convergence criterion met
 Total energy in the final basis set = -2123.39206634
   14   -2123.3920692241      6.84E-10 Convergence criterion met
 Total energy in the final basis set = -2123.39206922
   14   -2123.3920706794      6.67E-10 Convergence criterion met
 Total energy in the final basis set = -2123.39207068

             Standard Nuclear Orientation (Angstroms)
    I     Atom           X                Y                Z
 ----------------------------------------------------------------
    1      C      -0.0307624084     0.0852000522     0.0943983281
    2      C      -0.0421383977     0.0606965949     1.4940181123
    3      H       0.8942547678     0.0624047504     2.0408763665
    4      C      -1.2483466304     0.0345709566     2.1764566691
    5      C      -2.4615321028     0.0331164648     1.4535766221
    6      C      -2.4626416959     0.0506236614     0.0717733904
    7      H      -3.4004530789     0.0447311634    -0.4729979592
    8      C      -1.2536391546     0.0768181722    -0.6224846742
    9      C      -3.5696657619     0.0090218587     2.4012419067
   10      C      -4.9356135674     0.0004701759     2.2897578135
   11      H      -5.4318664967     0.0130493602     1.3270034910
   12      C      -2.9886254662    -0.0056771916     3.6805112739
   13      C      -3.7204995613    -0.0303195681     4.8619705534
   14      C      -1.5823541464     0.0079940864     3.6038991430
   15      C      -0.8730396541    -0.0057307107     4.7751878212
   16      H       0.2095522340     0.0015932522     4.7888182439
   17      C      -2.9621481913    -0.0432437754     6.0566667491
   18      H      -3.4616835200    -0.0627659900     7.0174506015
   19      C      -1.5875664542    -0.0314318277     5.9979168661
   20      H      -1.0242063966    -0.0424291832     6.9216317637
   21      C      -5.7062423188    -0.0238368958     3.4753262744
   22      H      -6.7853314313    -0.0301997042     3.3918877378
   23      C      -5.1308012365    -0.0392926379     4.7252933775
   24      H      -5.7603750101    -0.0579211259     5.6064926719
   25      B      -1.2554256261     0.0944359014    -2.1740667158
   26      B       1.3139620211     0.1258212240    -0.6860023981
   27      C       1.3201715316     0.1562401390    -2.2394265367
   28      C       2.5287111940     0.1870549904    -2.9457405431
   29      H       3.4688998346     0.1808662209    -2.4056295424
   30      C       2.5196253552     0.2235644457    -4.3307364399
   31      C       1.2877605877     0.2321813028    -5.0216165111
   32      C       0.0896666915     0.1950732438    -4.3363342817
   33      H      -0.8481206930     0.1965099545    -4.8809999690
   34      C       0.0907364540     0.1544390134    -2.9429007946
   35      C       1.5556798930     0.2751042814    -6.4550737816
   36      C       0.7796914291     0.3011997687    -7.5850470622
   37      H      -0.3024048172     0.2945953488    -7.5373217771
   38      C       2.9542303560     0.2878595747    -6.5893773856
   39      C       3.6130623790     0.3235329282    -7.8143104683
   40      C       3.5915397045     0.2574745328    -5.3338418734
   41      C       4.9614907943     0.2619476187    -5.3084691064
   42      H       5.5168535083     0.2372648304    -4.3794341741
   43      C       1.4230266832     0.3387708918    -8.8445385738
   44      H       0.8121566737     0.3594701302    -9.7378118399
   45      C       2.7930252519     0.3495498878    -8.9692356468
   46      H       3.2444290307     0.3776810537    -9.9535585378
   47      C       5.6634629896     0.2975589833    -6.5384271618
   48      H       6.7452391830     0.3003157613    -6.5125313146
   49      C       5.0264931924     0.3279708648    -7.7573774116
   50      H       5.6072452680     0.3545805147    -8.6713803726
   51      C       2.6712899740     0.1455467441     0.0981299960
   52      C       3.2448335423     1.3473219168     0.4577731920
   53      C       4.4586617640     1.3543393110     1.1801728066
   54      H       4.8984101932     2.3046831862     1.4596169944
   55      C       5.0815373554     0.1902999836     1.5329290811
   56      H       6.0112317166     0.2139356167     2.0891289908
   57      C       4.5245620860    -1.0567392207     1.1775108818
   58      C       5.1411252753    -2.2812066119     1.5246083403
   59      H       6.0702872533    -2.2598612975     2.0820959645
   60      C       4.5802229743    -3.4747881909     1.1651312616
   61      H       5.0605331691    -4.4059537200     1.4364001001
   62      C       3.3731841588    -3.4979093716     0.4375026187
   63      H       2.9357316959    -4.4463339378     0.1537843699
   64      C       2.7551524406    -2.3291815256     0.0902475346
   65      H       1.8270482991    -2.3661251561    -0.4703952864
   66      C       3.3078795021    -1.0742624563     0.4493279441
   67      C       2.5797550846     2.6434174802     0.0848819730
   68      H       3.1424315248     3.5057791074     0.4409723672
   69      H       2.4787310921     2.7429455158    -0.9983779012
   70      H       1.5740937671     2.7128544809     0.5064561455
   71      C      -2.6050033717     0.0315842992    -2.9815940735
   72      C      -3.1235462750    -1.1894350636    -3.3646929927
   73      C      -4.3154798166    -1.2418362445    -4.1215456475
   74      H      -4.7081464083    -2.2086565008    -4.4145213895
   75      C      -4.9748126054    -0.1044093731    -4.4904369699
   76      H      -5.8869654922    -0.1641069519    -5.0724819043
   77      C      -4.4763169126     1.1615926070    -4.1182899189
   78      C      -5.1324653761     2.3588883016    -4.4848730863
   79      H      -6.0448776529     2.2973839842    -5.0666786034
   80      C      -4.6298074824     3.5745105126    -4.1148608311
   81      H      -5.1395414093     4.4852131120    -4.4012254093
   82      C      -3.4433959252     3.6450362705    -3.3575519867
   83      H      -3.0496322194     4.6101079879    -3.0666002754
   84      C      -2.7896184886     2.5020659698    -2.9897445733
   85      H      -1.8781779974     2.5768346959    -2.4065872412
   86      C      -3.2816587699     1.2249184844    -3.3556493514
   87      C      -2.4230838697    -2.4684162956    -2.9976360177
   88      H      -2.9897383981    -3.3438890704    -3.3137691304
   89      H      -1.4377876313    -2.5320471887    -3.4654584527
   90      H      -2.2722690759    -2.5495369072    -1.9190635045
 ----------------------------------------------------------------

   14   -2123.3920713022      6.61E-10 Convergence criterion met
 Total energy in the final basis set = -2123.39207130
 Final energy is   -2123.39207130217
 **  OPTIMIZATION CONVERGED  **

                    Orbital Energies (a.u.)
 --------------------------------------------------------------

 Alpha MOs
 -- Occupied --
-10.465 -10.464 -10.464 -10.463 -10.463 -10.463 -10.463 -10.463
-10.462 -10.462 -10.461 -10.461 -10.460 -10.460 -10.460 -10.460
-10.459 -10.459 -10.457 -10.457 -10.457 -10.457 -10.455 -10.455
-10.455 -10.455 -10.455 -10.454 -10.453 -10.453 -10.453 -10.453
-10.446 -10.446 -10.446 -10.446 -10.445 -10.445 -10.445 -10.445
-10.444 -10.444 -10.444 -10.444 -10.443 -10.443 -10.436 -10.435
-10.434 -10.434 -10.429 -10.428 -10.428 -10.427  -6.951  -6.950
 -1.016  -1.015  -0.977  -0.977  -0.962  -0.959  -0.932  -0.932
 -0.924  -0.924  -0.909  -0.901  -0.872  -0.868  -0.854  -0.854
 -0.847  -0.847  -0.845  -0.845  -0.823  -0.816  -0.811  -0.810
 -0.808  -0.804  -0.766  -0.765  -0.734  -0.729  -0.725  -0.720
 -0.700  -0.699  -0.688  -0.687  -0.678  -0.674  -0.671  -0.670
 -0.665  -0.657  -0.647  -0.647  -0.595  -0.594  -0.590  -0.588
 -0.582  -0.576  -0.576  -0.574  -0.573  -0.567  -0.566  -0.549
 -0.548  -0.543  -0.530  -0.527  -0.524  -0.512  -0.507  -0.505
 -0.504  -0.501  -0.500  -0.496  -0.494  -0.489  -0.486  -0.485
 -0.484  -0.482  -0.480  -0.480  -0.478  -0.475  -0.470  -0.470
 -0.466  -0.464  -0.453  -0.452  -0.448  -0.443  -0.441  -0.440
 -0.438  -0.438  -0.434  -0.431  -0.430  -0.424  -0.420  -0.413
 -0.407  -0.400  -0.397  -0.394  -0.394  -0.392  -0.390  -0.388
 -0.387  -0.386  -0.380  -0.371  -0.369  -0.369  -0.354  -0.353
 -0.352  -0.339  -0.325  -0.320  -0.318  -0.313  -0.294  -0.294
 -0.281  -0.278  -0.278  -0.262  -0.257  -0.256  -0.247  -0.246

          Ground-State Mulliken Net Atomic Charges

     Atom                 Charge (a.u.)
  ----------------------------------------
      1 C                    -0.156040
      2 C                    -0.392850
      3 H                     0.240841
      4 C                     0.105424
      5 C                     0.078320
      6 C                    -0.383607
      7 H                     0.240639
      8 C                    -0.158080
      9 C                     0.186927
     10 C                    -0.382414
     11 H                     0.238370
     12 C                    -0.062367
     13 C                     0.239161
     14 C                     0.188566
     15 C                    -0.391671
     16 H                     0.238345
     17 C                    -0.345095
     18 H                     0.238076
     19 C                    -0.218090
     20 H                     0.242583
     21 C                    -0.220995
     22 H                     0.243138
     23 C                    -0.340677
     24 H                     0.237694
     25 B                     0.708498
     26 B                     0.709501
     27 C                    -0.157989
     28 C                    -0.394235
     29 H                     0.241023
     30 C                     0.104732
     31 C                     0.077583
     32 C                    -0.380576
     33 H                     0.241702
     34 C                    -0.154313
     35 C                     0.188286
     36 C                    -0.382828
     37 H                     0.238290
     38 C                    -0.063088
     39 C                     0.237522
     40 C                     0.189769
     41 C                    -0.392762
     42 H                     0.238210
     43 C                    -0.220995
     44 H                     0.243072
     45 C                    -0.339670
     46 H                     0.237698
     47 C                    -0.217866
     48 H                     0.242514
     49 C                    -0.344636
     50 H                     0.238100
     51 C                    -0.224330
     52 C                     0.015646
     53 C                    -0.282426
     54 H                     0.223780
     55 C                    -0.323470
     56 H                     0.225810
     57 C                     0.116122
     58 C                    -0.298352
     59 H                     0.226941
     60 C                    -0.245954
     61 H                     0.233017
     62 C                    -0.248751
     63 H                     0.235428
     64 C                    -0.339615
     65 H                     0.246874
     66 C                     0.082783
     67 C                    -0.765855
     68 H                     0.244423
     69 H                     0.250615
     70 H                     0.250291
     71 C                    -0.229351
     72 C                     0.013852
     73 C                    -0.281345
     74 H                     0.224115
     75 C                    -0.323723
     76 H                     0.226277
     77 C                     0.118808
     78 C                    -0.297351
     79 H                     0.227206
     80 C                    -0.246480
     81 H                     0.233198
     82 C                    -0.248379
     83 H                     0.235540
     84 C                    -0.339963
     85 H                     0.246445
     86 C                     0.084049
     87 C                    -0.764907
     88 H                     0.244528
     89 H                     0.250217
     90 H                     0.250548
  ----------------------------------------
  Sum of atomic charges =     0.000000

                    Cartesian Multipole Moments
 -----------------------------------------------------------------
    Charge (ESU x 10^10)
                -0.0000
    Dipole Moment (Debye)
         X      -0.1187      Y       0.0164      Z      -0.0894
       Tot       0.1495
    Quadrupole Moments (Debye-Ang)
        XX    -273.5412     XY       3.1523     YY    -313.0896
        XZ      -3.9950     YZ       0.7431     ZZ    -266.3441

 Total job time:  30199.14s(wall), 71087.48s(cpu)
        *  Thank you very much for using Q-Chem.  Have a nice day.  *
