 Q-Chem 5.0, Q-Chem, Inc., Pleasanton, CA (2017)
 Q-Chem 5.0.1 for Intel X86 EM64T Linux

User input:
--------------------------------------------------------------
$rem
threads 4
jobtype	opt
method PBEh-3c
basis def2-mSVP
mem_static	1024
mem_total	4000
sym_ignore	true
scf_convergence	9
solvent_method	pcm
$end

$molecule
read gsopt.mol
$end

$solvent
dielectric	1.0001
$end

$pcm
theory iefpcm
$end
--------------------------------------------------------------

   17   -2123.3784966445      6.57E-10 Convergence criterion met
 Total energy in the final basis set = -2123.37849664
   15   -2123.3786438529      4.48E-10 Convergence criterion met
 Total energy in the final basis set = -2123.37864385
   14   -2123.3786339220      5.06E-10 Convergence criterion met
 Total energy in the final basis set = -2123.37863392
   13   -2123.3787082075      5.46E-10 Convergence criterion met
 Total energy in the final basis set = -2123.37870821
   12   -2123.3787530146      8.85E-10 Convergence criterion met
 Total energy in the final basis set = -2123.37875301
   14   -2123.3788184719      4.01E-10 Convergence criterion met
 Total energy in the final basis set = -2123.37881847
   13   -2123.3788485017      6.18E-10 Convergence criterion met
 Total energy in the final basis set = -2123.37884850
   13   -2123.3788692263      6.56E-10 Convergence criterion met
 Total energy in the final basis set = -2123.37886923
   13   -2123.3788509594      5.22E-10 Convergence criterion met
 Total energy in the final basis set = -2123.37885096
   12   -2123.3788455978      7.07E-10 Convergence criterion met
 Total energy in the final basis set = -2123.37884560

             Standard Nuclear Orientation (Angstroms)
    I     Atom           X                Y                Z
 ----------------------------------------------------------------
    1      C      -0.0307864923     0.0869605350     0.0930318300
    2      C      -0.0422930759     0.0542811006     1.4920988615
    3      H       0.8956098559     0.0489862238     2.0364147017
    4      C      -1.2482242338     0.0285404276     2.1739757363
    5      C      -2.4610008057     0.0370501773     1.4513295427
    6      C      -2.4620483055     0.0624121036     0.0700833122
    7      H      -3.3984181050     0.0645434413    -0.4772151889
    8      C      -1.2531391734     0.0868846762    -0.6238419565
    9      C      -3.5690385527     0.0111198973     2.3988965199
   10      C      -4.9343790511     0.0096027916     2.2877218391
   11      H      -5.4302991113     0.0317190281     1.3250870401
   12      C      -2.9888343795    -0.0155099401     3.6780915837
   13      C      -3.7207363384    -0.0457294732     4.8588367137
   14      C      -1.5828169028    -0.0072120929     3.6010995579
   15      C      -0.8744503637    -0.0327624602     4.7720153240
   16      H       0.2080614983    -0.0305145962     4.7855456459
   17      C      -2.9624576418    -0.0707289875     6.0527898144
   18      H      -3.4616273431    -0.0952311680     7.0135637789
   19      C      -1.5886071762    -0.0644662993     5.9942243726
   20      H      -1.0255834632    -0.0848968994     6.9178966613
   21      C      -5.7053606940    -0.0199765818     3.4724295564
   22      H      -6.7843870881    -0.0207578211     3.3889080013
   23      C      -5.1305324046    -0.0473968210     4.7215959743
   24      H      -5.7605751928    -0.0697593221     5.6022727609
   25      B      -1.2544602580     0.1096289263    -2.1750525270
   26      B       1.3135460015     0.1292315195    -0.6868816442
   27      C       1.3202891794     0.1613031349    -2.2399094707
   28      C       2.5290000698     0.1827681724    -2.9458616809
   29      H       3.4676669924     0.1664881332    -2.4033125026
   30      C       2.5204772163     0.2204522742    -4.3303167708
   31      C       1.2892282111     0.2419983482    -5.0211162501
   32      C       0.0910548531     0.2138478350    -4.3364709477
   33      H      -0.8478784652     0.2239863247    -4.8791008590
   34      C       0.0915364926     0.1695990104    -2.9433581784
   35      C       1.5579770949     0.2817356000    -6.4545007773
   36      C       0.7832446200     0.3137578437    -7.5844116096
   37      H      -0.2987583316     0.3191416762    -7.5366420079
   38      C       2.9562815710     0.2784860664    -6.5891414353
   39      C       3.6153173018     0.3027989962    -7.8137779606
   40      C       3.5925745725     0.2415817184    -5.3335948373
   41      C       4.9618440997     0.2274982869    -5.3087840196
   42      H       5.5167270924     0.1958788934    -4.3797810539
   43      C       1.4264567873     0.3409396726    -8.8436254086
   44      H       0.8160111829     0.3664209766    -9.7369703959
   45      C       2.7957754485     0.3353528574    -8.9682131029
   46      H       3.2471427937     0.3554006836    -9.9526681850
   47      C       5.6643162781     0.2520380518    -6.5380671833
   48      H       6.7459591625     0.2402595368    -6.5122627726
   49      C       5.0281287281     0.2887224066    -7.7564123095
   50      H       5.6095816601     0.3056460040    -8.6700935295
   51      C       2.6702748862     0.1534395619     0.0974755688
   52      C       3.2404609435     1.3574088115     0.4534796207
   53      C       4.4535095470     1.3696459753     1.1758986356
   54      H       4.8907436221     2.3217338644     1.4529241576
   55      C       5.0789490782     0.2086210187     1.5317369886
   56      H       6.0081252082     0.2365978009     2.0883529022
   57      C       4.5260631599    -1.0406113320     1.1800504905
   58      C       5.1453816842    -2.2623061494     1.5292571812
   59      H       6.0743039957    -2.2378040756     2.0867427034
   60      C       4.5883500359    -3.4575925449     1.1721670453
   61      H       5.0715115376    -4.3865608503     1.4453370872
   62      C       3.3819662386    -3.4857663795     0.4449384463
   63      H       2.9475936916    -4.4359539055     0.1629699353
   64      C       2.7606709584    -2.3200925009     0.0959417777
   65      H       1.8327208846    -2.3591185084    -0.4645287473
   66      C       3.3098471534    -1.0634059421     0.4521728198
   67      C       2.5716507689     2.6500304640     0.0752838964
   68      H       3.1274302284     3.5157784171     0.4342132603
   69      H       2.4773952309     2.7482139808    -1.0086361620
   70      H       1.5630344876     2.7151654286     0.4902988423
   71      C      -2.6036134633     0.0439952565    -2.9826426114
   72      C      -3.1153196663    -1.1783816958    -3.3694190454
   73      C      -4.3070330956    -1.2350486791    -4.1251375300
   74      H      -4.6945247021    -2.2030136412    -4.4208392701
   75      C      -4.9729339882    -0.1005946693    -4.4891176415
   76      H      -5.8853316766    -0.1639537952    -5.0701577710
   77      C      -4.4821174359     1.1666922945    -4.1134038018
   78      C      -5.1447952166     2.3613311038    -4.4743115173
   79      H      -6.0573764985     2.2974437966    -5.0553498695
   80      C      -4.6491412878     3.5777613633    -4.1001021680
   81      H      -5.1646407124     4.4863516862    -4.3822810266
   82      C      -3.4629087945     3.6522955923    -3.3441787909
   83      H      -3.0745526382     4.6184243683    -3.0500554971
   84      C      -2.8023352281     2.5122581012    -2.9819885161
   85      H      -1.8905886503     2.5880849080    -2.3997611858
   86      C      -3.2874606704     1.2342504323    -3.3519802091
   87      C      -2.4070228327    -2.4541015154    -3.0059786414
   88      H      -2.9650603585    -3.3323850546    -3.3296821109
   89      H      -1.4189650206    -2.5076097375    -3.4689955981
   90      H      -2.2615163371    -2.5402743087    -1.9270992727
 ----------------------------------------------------------------

   12   -2123.3788450438      4.83E-10 Convergence criterion met
 Total energy in the final basis set = -2123.37884504
 Final energy is   -2123.37884504380
 **  OPTIMIZATION CONVERGED  **

                    Orbital Energies (a.u.)
 --------------------------------------------------------------

 Alpha MOs
 -- Occupied --
-10.463 -10.463 -10.463 -10.463 -10.463 -10.463 -10.462 -10.462
-10.461 -10.461 -10.461 -10.461 -10.460 -10.460 -10.460 -10.460
-10.458 -10.458 -10.458 -10.458 -10.458 -10.458 -10.453 -10.453
-10.453 -10.453 -10.452 -10.452 -10.451 -10.451 -10.451 -10.450
-10.445 -10.444 -10.444 -10.444 -10.444 -10.443 -10.443 -10.443
-10.443 -10.443 -10.443 -10.442 -10.442 -10.441 -10.433 -10.433
-10.432 -10.432 -10.428 -10.428 -10.427 -10.425  -6.948  -6.948
 -1.015  -1.014  -0.975  -0.975  -0.960  -0.958  -0.932  -0.932
 -0.922  -0.922  -0.908  -0.899  -0.870  -0.867  -0.853  -0.852
 -0.846  -0.845  -0.845  -0.845  -0.821  -0.815  -0.811  -0.809
 -0.807  -0.803  -0.765  -0.764  -0.734  -0.728  -0.725  -0.719
 -0.699  -0.697  -0.688  -0.686  -0.678  -0.673  -0.670  -0.669
 -0.664  -0.655  -0.646  -0.646  -0.595  -0.594  -0.591  -0.588
 -0.582  -0.576  -0.575  -0.574  -0.573  -0.566  -0.565  -0.548
 -0.547  -0.543  -0.531  -0.527  -0.524  -0.511  -0.506  -0.504
 -0.503  -0.501  -0.499  -0.495  -0.494  -0.489  -0.485  -0.483
 -0.482  -0.481  -0.480  -0.479  -0.478  -0.475  -0.471  -0.470
 -0.467  -0.464  -0.453  -0.452  -0.447  -0.442  -0.440  -0.440
 -0.437  -0.436  -0.433  -0.431  -0.429  -0.422  -0.419  -0.413
 -0.406  -0.399  -0.397  -0.393  -0.393  -0.392  -0.389  -0.388
 -0.386  -0.385  -0.379  -0.369  -0.367  -0.367  -0.352  -0.351
 -0.350  -0.337  -0.322  -0.317  -0.316  -0.311  -0.294  -0.293
 -0.279  -0.275  -0.275  -0.261  -0.255  -0.254  -0.244  -0.243

          Ground-State Mulliken Net Atomic Charges

     Atom                 Charge (a.u.)
  ----------------------------------------
      1 C                    -0.155068
      2 C                    -0.387954
      3 H                     0.232616
      4 C                     0.113806
      5 C                     0.086488
      6 C                    -0.378762
      7 H                     0.231914
      8 C                    -0.157325
      9 C                     0.195603
     10 C                    -0.376175
     11 H                     0.221618
     12 C                    -0.061548
     13 C                     0.254235
     14 C                     0.197258
     15 C                    -0.385868
     16 H                     0.221673
     17 C                    -0.337631
     18 H                     0.220278
     19 C                    -0.202706
     20 H                     0.226328
     21 C                    -0.205953
     22 H                     0.226810
     23 C                    -0.332915
     24 H                     0.219918
     25 B                     0.709615
     26 B                     0.710911
     27 C                    -0.156894
     28 C                    -0.389974
     29 H                     0.232781
     30 C                     0.113268
     31 C                     0.085426
     32 C                    -0.376152
     33 H                     0.233506
     34 C                    -0.153221
     35 C                     0.196972
     36 C                    -0.376528
     37 H                     0.221750
     38 C                    -0.062355
     39 C                     0.252637
     40 C                     0.198682
     41 C                    -0.386836
     42 H                     0.221494
     43 C                    -0.205897
     44 H                     0.226739
     45 C                    -0.331880
     46 H                     0.219831
     47 C                    -0.202561
     48 H                     0.226264
     49 C                    -0.337205
     50 H                     0.220294
     51 C                    -0.225999
     52 C                     0.019806
     53 C                    -0.268974
     54 H                     0.207996
     55 C                    -0.312136
     56 H                     0.209262
     57 C                     0.129654
     58 C                    -0.286875
     59 H                     0.210243
     60 C                    -0.230770
     61 H                     0.217469
     62 C                    -0.235574
     63 H                     0.219904
     64 C                    -0.327286
     65 H                     0.235154
     66 C                     0.087352
     67 C                    -0.759347
     68 H                     0.235564
     69 H                     0.248209
     70 H                     0.247686
     71 C                    -0.230774
     72 C                     0.018000
     73 C                    -0.267899
     74 H                     0.208375
     75 C                    -0.312654
     76 H                     0.209624
     77 C                     0.132535
     78 C                    -0.285887
     79 H                     0.210437
     80 C                    -0.231359
     81 H                     0.217698
     82 C                    -0.235193
     83 H                     0.220131
     84 C                    -0.327836
     85 H                     0.234667
     86 C                     0.088374
     87 C                    -0.758363
     88 H                     0.235699
     89 H                     0.247828
     90 H                     0.247957
  ----------------------------------------
  Sum of atomic charges =    -0.000000

                    Cartesian Multipole Moments
 -----------------------------------------------------------------
    Charge (ESU x 10^10)
                -0.0000
    Dipole Moment (Debye)
         X      -0.0966      Y      -0.0163      Z      -0.0752
       Tot       0.1235
    Quadrupole Moments (Debye-Ang)
        XX    -279.8958     XY       2.2926     YY    -314.9340
        XZ      -2.7593     YZ       0.6826     ZZ    -274.4425

 Total job time:  24042.62s(wall), 56155.34s(cpu)
        *  Thank you very much for using Q-Chem.  Have a nice day.  *
