 Q-Chem 5.0, Q-Chem, Inc., Pleasanton, CA (2017)
 Q-Chem 5.0.1 for Intel X86 EM64T Linux

User input:
--------------------------------------------------------------
$rem
threads 4
jobtype	opt
method PBEh-3c
basis def2-mSVP
mem_static	1024
mem_total	4000
sym_ignore	true
scf_convergence	9
solvent_method	pcm
$end

$molecule
read gsopt.mol
$end

$solvent
dielectric	8.93
$end

$pcm
theory iefpcm
$end
--------------------------------------------------------------

   16   -2123.4042972024      7.71E-10 Convergence criterion met
 Total energy in the final basis set = -2123.40429720
   15   -2123.4046268911      4.68E-10 Convergence criterion met
 Total energy in the final basis set = -2123.40462689
   15   -2123.4046417176      4.34E-10 Convergence criterion met
 Total energy in the final basis set = -2123.40464172
   15   -2123.4047045243      3.65E-10 Convergence criterion met
 Total energy in the final basis set = -2123.40470452
   14   -2123.4047295542      9.73E-10 Convergence criterion met
 Total energy in the final basis set = -2123.40472955
   15   -2123.4047554180      3.71E-10 Convergence criterion met
 Total energy in the final basis set = -2123.40475542
   15   -2123.4047783181      3.79E-10 Convergence criterion met
 Total energy in the final basis set = -2123.40477832
   14   -2123.4047939200      9.46E-10 Convergence criterion met
 Total energy in the final basis set = -2123.40479392
   15   -2123.4047951624      3.79E-10 Convergence criterion met
 Total energy in the final basis set = -2123.40479516
   15   -2123.4047989984      3.79E-10 Convergence criterion met
 Total energy in the final basis set = -2123.40479900

             Standard Nuclear Orientation (Angstroms)
    I     Atom           X                Y                Z
 ----------------------------------------------------------------
    1      C      -0.0280892464     0.0910728824     0.0950636819
    2      C      -0.0399142472     0.0867963733     1.4950021953
    3      H       0.8946572805     0.1109221431     2.0444562207
    4      C      -1.2463656988     0.0557284641     2.1777122243
    5      C      -2.4594184388     0.0217899866     1.4541919087
    6      C      -2.4598657728     0.0214594816     0.0717675293
    7      H      -3.3983336566    -0.0065896883    -0.4712120800
    8      C      -1.2507878600     0.0591033396    -0.6223520987
    9      C      -3.5677022773    -0.0055302284     2.4013441144
   10      C      -4.9338154314    -0.0403045721     2.2888265445
   11      H      -5.4294299154    -0.0562554183     1.3257320351
   12      C      -2.9870480840     0.0147332323     3.6810869770
   13      C      -3.7198055501     0.0030182221     4.8627528797
   14      C      -1.5808656301     0.0516322552     3.6053976545
   15      C      -0.8720046405     0.0774907658     4.7776164605
   16      H       0.2102688098     0.1062198390     4.7919504975
   17      C      -2.9626885713     0.0301789555     6.0585996241
   18      H      -3.4632921169     0.0231739952     7.0190150347
   19      C      -1.5877871690     0.0660423131     6.0003783052
   20      H      -1.0252364042     0.0868681007     6.9244533691
   21      C      -5.7049319418    -0.0541024325     3.4749063031
   22      H      -6.7836734013    -0.0813098648     3.3909027362
   23      C      -5.1301755494    -0.0331116970     4.7258753701
   24      H      -5.7595052215    -0.0438906064     5.6074003702
   25      B      -1.2532142157     0.0717342834    -2.1745445446
   26      B       1.3169644724     0.1310593607    -0.6856476582
   27      C       1.3222001192     0.1646426033    -2.2394005603
   28      C       2.5307068116     0.2142357302    -2.9452997210
   29      H       3.4718262153     0.2273862765    -2.4069500003
   30      C       2.5219727786     0.2478591202    -4.3308155268
   31      C       1.2900485395     0.2281068871    -5.0226757637
   32      C       0.0919738131     0.1729778285    -4.3375494219
   33      H      -0.8438816921     0.1538858959    -4.8851875553
   34      C       0.0929152970     0.1413437556    -2.9435437290
   35      C       1.5576189336     0.2708728949    -6.4561910823
   36      C       0.7812817753     0.2769176548    -7.5870700053
   37      H      -0.3004785741     0.2455007964    -7.5400341283
   38      C       2.9559248518     0.3149131210    -6.5891341705
   39      C       3.6146227861     0.3644878904    -7.8142629456
   40      C       3.5936727818     0.3033127809    -5.3332367681
   41      C       4.9637627288     0.3434925410    -5.3069688896
   42      H       5.5193419998     0.3374710528    -4.3776765278
   43      C       1.4248490796     0.3268035277    -8.8464640202
   44      H       0.8141318046     0.3317040693    -9.7400885595
   45      C       2.7950980743     0.3694440511    -8.9703432267
   46      H       3.2471987121     0.4069491530    -9.9540400538
   47      C       5.6651679821     0.3936382802    -6.5371876796
   48      H       6.7465037232     0.4247193390    -6.5105857573
   49      C       5.0279411329     0.4045885402    -7.7572336880
   50      H       5.6076944044     0.4441388310    -8.6714101669
   51      C       2.6750861582     0.1305091657     0.0975484831
   52      C       3.2684814936     1.3218214847     0.4603212580
   53      C       4.4837594791     1.3072440929     1.1814648990
   54      H       4.9385661254     2.2496045785     1.4639717464
   55      C       5.0888163219     0.1320148465     1.5299233903
   56      H       6.0190847986     0.1386484393     2.0857432772
   57      C       4.5107796918    -1.1050611807     1.1709531173
   58      C       5.1093807377    -2.3402804675     1.5139223601
   59      H       6.0394666409    -2.3342782875     2.0703530164
   60      C       4.5293219417    -3.5245200387     1.1515846520
   61      H       4.9951940306    -4.4640050380     1.4195845040
   62      C       3.3204136868    -3.5264575487     0.4254030855
   63      H       2.8679098293    -4.4672468135     0.1394165368
   64      C       2.7198138228    -2.3466461090     0.0824168613
   65      H       1.7901795047    -2.3695839129    -0.4767213647
   66      C       3.2926415235    -1.1008717258     0.4441196371
   67      C       2.6259853923     2.6303213436     0.0914663419
   68      H       3.1927199019     3.4806586764     0.4691294796
   69      H       2.5467387020     2.7440020348    -0.9922315950
   70      H       1.6133015270     2.7072075164     0.4945846558
   71      C      -2.6038328792     0.0091788853    -2.9802575534
   72      C      -3.1282668641    -1.2109795838    -3.3586332548
   73      C      -4.3233035044    -1.2610920191    -4.1119581431
   74      H      -4.7203623236    -2.2273452628    -4.4008939938
   75      C      -4.9797058716    -0.1218270356    -4.4823410671
   76      H      -5.8939199639    -0.1790283069    -5.0614524186
   77      C      -4.4744418897     1.1435393699    -4.1148387466
   78      C      -5.1277206367     2.3424688698    -4.4837493128
   79      H      -6.0418598164     2.2819649047    -5.0630245312
   80      C      -4.6193802342     3.5579126842    -4.1185194725
   81      H      -5.1263289646     4.4698251946    -4.4062773704
   82      C      -3.4303385181     3.6262919481    -3.3639472596
   83      H      -3.0325162162     4.5909456517    -3.0767074576
   84      C      -2.7795736858     2.4814547473    -2.9940870026
   85      H      -1.8666665595     2.5562972161    -2.4128975462
   86      C      -3.2770851736     1.2044755935    -3.3554625049
   87      C      -2.4341109499    -2.4924442316    -2.9881913235
   88      H      -2.9920355347    -3.3650557802    -3.3266064080
   89      H      -1.4379379706    -2.5500532950    -3.4332061872
   90      H      -2.3084264725    -2.5838628837    -1.9071095567
 ----------------------------------------------------------------

   15   -2123.4047984990      3.49E-10 Convergence criterion met
 Total energy in the final basis set = -2123.40479850
 Final energy is   -2123.40479849897
 **  OPTIMIZATION CONVERGED  **

                    Orbital Energies (a.u.)
 --------------------------------------------------------------

 Alpha MOs
 -- Occupied --
-10.469 -10.469 -10.466 -10.466 -10.466 -10.466 -10.465 -10.465
-10.465 -10.465 -10.464 -10.464 -10.462 -10.462 -10.462 -10.462
-10.462 -10.462 -10.459 -10.459 -10.459 -10.459 -10.458 -10.458
-10.458 -10.458 -10.458 -10.457 -10.457 -10.457 -10.457 -10.456
-10.449 -10.449 -10.449 -10.449 -10.449 -10.449 -10.448 -10.448
-10.447 -10.447 -10.447 -10.447 -10.445 -10.445 -10.440 -10.440
-10.439 -10.438 -10.433 -10.431 -10.429 -10.429  -6.955  -6.955
 -1.019  -1.019  -0.981  -0.980  -0.965  -0.962  -0.934  -0.934
 -0.927  -0.927  -0.912  -0.904  -0.875  -0.871  -0.857  -0.857
 -0.850  -0.850  -0.847  -0.847  -0.826  -0.819  -0.814  -0.813
 -0.811  -0.808  -0.768  -0.768  -0.737  -0.731  -0.727  -0.722
 -0.702  -0.701  -0.690  -0.690  -0.681  -0.677  -0.673  -0.673
 -0.668  -0.659  -0.650  -0.649  -0.598  -0.597  -0.591  -0.589
 -0.584  -0.578  -0.578  -0.576  -0.575  -0.570  -0.568  -0.551
 -0.551  -0.545  -0.532  -0.529  -0.527  -0.514  -0.510  -0.507
 -0.506  -0.504  -0.503  -0.499  -0.497  -0.492  -0.489  -0.488
 -0.488  -0.484  -0.483  -0.482  -0.479  -0.478  -0.472  -0.471
 -0.467  -0.466  -0.455  -0.454  -0.451  -0.446  -0.443  -0.442
 -0.442  -0.439  -0.437  -0.433  -0.432  -0.428  -0.422  -0.416
 -0.409  -0.402  -0.398  -0.397  -0.397  -0.394  -0.392  -0.391
 -0.389  -0.388  -0.384  -0.375  -0.373  -0.373  -0.357  -0.357
 -0.355  -0.343  -0.329  -0.324  -0.322  -0.317  -0.297  -0.296
 -0.285  -0.282  -0.282  -0.265  -0.262  -0.259  -0.251  -0.250

          Ground-State Mulliken Net Atomic Charges

     Atom                 Charge (a.u.)
  ----------------------------------------
      1 C                    -0.156871
      2 C                    -0.397452
      3 H                     0.248335
      4 C                     0.096611
      5 C                     0.069573
      6 C                    -0.387954
      7 H                     0.248650
      8 C                    -0.158802
      9 C                     0.177512
     10 C                    -0.387003
     11 H                     0.253162
     12 C                    -0.064354
     13 C                     0.222883
     14 C                     0.179031
     15 C                    -0.396015
     16 H                     0.253125
     17 C                    -0.350248
     18 H                     0.255219
     19 C                    -0.231623
     20 H                     0.257670
     21 C                    -0.234382
     22 H                     0.258232
     23 C                    -0.346068
     24 H                     0.254849
     25 B                     0.707430
     26 B                     0.707317
     27 C                    -0.158600
     28 C                    -0.398441
     29 H                     0.248495
     30 C                     0.095794
     31 C                     0.068870
     32 C                    -0.385111
     33 H                     0.249464
     34 C                    -0.155347
     35 C                     0.179029
     36 C                    -0.387317
     37 H                     0.252965
     38 C                    -0.065217
     39 C                     0.221183
     40 C                     0.180466
     41 C                    -0.397080
     42 H                     0.253008
     43 C                    -0.234410
     44 H                     0.258233
     45 C                    -0.345024
     46 H                     0.254890
     47 C                    -0.231463
     48 H                     0.257614
     49 C                    -0.349750
     50 H                     0.255312
     51 C                    -0.222461
     52 C                     0.013350
     53 C                    -0.292672
     54 H                     0.238871
     55 C                    -0.332198
     56 H                     0.241971
     57 C                     0.100465
     58 C                    -0.307198
     59 H                     0.243365
     60 C                    -0.259446
     61 H                     0.247420
     62 C                    -0.259430
     63 H                     0.249229
     64 C                    -0.353001
     65 H                     0.256784
     66 C                     0.076459
     67 C                    -0.770425
     68 H                     0.253732
     69 H                     0.251096
     70 H                     0.251035
     71 C                    -0.228313
     72 C                     0.010608
     73 C                    -0.292312
     74 H                     0.239208
     75 C                    -0.332116
     76 H                     0.242454
     77 C                     0.104168
     78 C                    -0.306425
     79 H                     0.243634
     80 C                    -0.259731
     81 H                     0.247520
     82 C                    -0.259553
     83 H                     0.249178
     84 C                    -0.352888
     85 H                     0.256240
     86 C                     0.078904
     87 C                    -0.769885
     88 H                     0.254005
     89 H                     0.250983
     90 H                     0.250983
  ----------------------------------------
  Sum of atomic charges =     0.000000

                    Cartesian Multipole Moments
 -----------------------------------------------------------------
    Charge (ESU x 10^10)
                -0.0000
    Dipole Moment (Debye)
         X      -0.1278      Y       0.0891      Z      -0.1062
       Tot       0.1885
    Quadrupole Moments (Debye-Ang)
        XX    -265.6665     XY       4.8131     YY    -311.2629
        XZ      -4.9761     YZ       1.1486     ZZ    -257.1626

 Total job time:  23089.66s(wall), 54821.64s(cpu)
        *  Thank you very much for using Q-Chem.  Have a nice day.  *
