 Q-Chem 5.0, Q-Chem, Inc., Pleasanton, CA (2017)
 Q-Chem 5.0.1 for Intel X86 EM64T Linux

User input:
--------------------------------------------------------------
$rem
threads 4
jobtype	opt
method PBEh-3c
basis def2-mSVP
mem_static	1024
mem_total	4000
sym_ignore	true
scf_convergence	9
solvent_method	pcm
$end

$molecule
read gsopt.mol
$end

$solvent
dielectric	4.33
$end

$pcm
theory iefpcm
$end
--------------------------------------------------------------

   16   -2123.3986441143      8.96E-10 Convergence criterion met
 Total energy in the final basis set = -2123.39864411
   15   -2123.3989100767      4.36E-10 Convergence criterion met
 Total energy in the final basis set = -2123.39891008
   15   -2123.3989136811      4.00E-10 Convergence criterion met
 Total energy in the final basis set = -2123.39891368
   15   -2123.3989815506      3.36E-10 Convergence criterion met
 Total energy in the final basis set = -2123.39898155
   14   -2123.3990100403      9.83E-10 Convergence criterion met
 Total energy in the final basis set = -2123.39901004
   15   -2123.3990510513      3.56E-10 Convergence criterion met
 Total energy in the final basis set = -2123.39905105
   15   -2123.3990835425      3.56E-10 Convergence criterion met
 Total energy in the final basis set = -2123.39908354
   14   -2123.3991114432      9.43E-10 Convergence criterion met
   15   -2123.3991024679      3.67E-10 Convergence criterion met
 Total energy in the final basis set = -2123.39910247
   15   -2123.3990968770      3.47E-10 Convergence criterion met
 Total energy in the final basis set = -2123.39909688
   14   -2123.3990943105      9.78E-10 Convergence criterion met
 Total energy in the final basis set = -2123.39909431
   14   -2123.3990967939      8.67E-10 Convergence criterion met
 Total energy in the final basis set = -2123.39909679
   14   -2123.3990985001      8.55E-10 Convergence criterion met
 Total energy in the final basis set = -2123.39909850
   14   -2123.3991005280      8.41E-10 Convergence criterion met
 Total energy in the final basis set = -2123.39910053

             Standard Nuclear Orientation (Angstroms)
    I     Atom           X                Y                Z
 ----------------------------------------------------------------
    1      C      -0.0301556158     0.0869047296     0.0948345893
    2      C      -0.0416250915     0.0703664053     1.4947192117
    3      H       0.8938816556     0.0801039728     2.0429979803
    4      C      -1.2479860698     0.0431048584     2.1773707222
    5      C      -2.4613065435     0.0303206661     1.4542346878
    6      C      -2.4622347543     0.0406267891     0.0720922230
    7      H      -3.4006074587     0.0267246742    -0.4715698684
    8      C      -1.2531461784     0.0698910440    -0.6222001885
    9      C      -3.5694972105     0.0060732080     2.4018185477
   10      C      -4.9357063317    -0.0116919849     2.2900530156
   11      H      -5.4319668534    -0.0096661911     1.3271780011
   12      C      -2.9882426675     0.0041496852     3.6812683488
   13      C      -3.7202691511    -0.0156267621     4.8630438739
   14      C      -1.5818846241     0.0253161938     3.6049866365
   15      C      -0.8723364283     0.0251698373     4.7766586949
   16      H       0.2102211414     0.0394399331     4.7904825830
   17      C      -2.9621251396    -0.0146866162     6.0582689089
   18      H      -3.4620279410    -0.0295439639     7.0189609743
   19      C      -1.5872212396     0.0049330544     5.9995889573
   20      H      -1.0239109480     0.0048860431     6.9234218156
   21      C      -5.7062948743    -0.0317397281     3.4760445168
   22      H      -6.7853259614    -0.0453919545     3.3925130115
   23      C      -5.1307676171    -0.0340134261     4.7265189217
   24      H      -5.7600660359    -0.0495615697     5.6079957916
   25      B      -1.2551229753     0.0837815562    -2.1740790322
   26      B       1.3148346797     0.1268437850    -0.6856348780
   27      C       1.3207562190     0.1573485775    -2.2393153052
   28      C       2.5292634665     0.1963505601    -2.9455475946
   29      H       3.4700535548     0.1994522467    -2.4064653434
   30      C       2.5201848533     0.2307686509    -4.3308716168
   31      C       1.2881574136     0.2264047764    -5.0221251087
   32      C       0.0900715228     0.1816847368    -4.3367442282
   33      H      -0.8468675392     0.1739119064    -4.8828067577
   34      C       0.0911921035     0.1457818114    -2.9430265849
   35      C       1.5557834956     0.2692071288    -6.4556399837
   36      C       0.7794077805     0.2862573379    -7.5859743422
   37      H      -0.3026132638     0.2683363292    -7.5385042846
   38      C       2.9543380142     0.2962811000    -6.5894172657
   39      C       3.6130899990     0.3384627828    -7.8144952143
   40      C       3.5920174437     0.2744617860    -5.3337071065
   41      C       4.9621953936     0.2951374085    -5.3079027233
   42      H       5.5177430153     0.2788182923    -4.3787497391
   43      C       1.4228459718     0.3296273391    -8.8455162312
   44      H       0.8119293569     0.3431744006    -9.7389154295
   45      C       2.7930887473     0.3550006931    -8.9699520197
   46      H       3.2447303802     0.3875408637    -9.9540454866
   47      C       5.6638863839     0.3374819990    -6.5381112853
   48      H       6.7455641187     0.3530856898    -6.5119657485
   49      C       5.0266486042     0.3591932806    -7.7575807402
   50      H       5.6069206639     0.3918372197    -8.6717125811
   51      C       2.6724487888     0.1395330496     0.0983324914
   52      C       3.2515217566     1.3377274645     0.4616945111
   53      C       4.4656653005     1.3371817601     1.1842639964
   54      H       4.9096068931     2.2847683193     1.4665257826
   55      C       5.0834945699     0.1691301700     1.5337229270
   56      H       6.0133319435     0.1867189966     2.0899869248
   57      C       4.5204444585    -1.0744545083     1.1745128845
   58      C       5.1318623119    -2.3027451162     1.5186442167
   59      H       6.0611983884    -2.2866058059     2.0761018327
   60      C       4.5653081903    -3.4931940910     1.1562761422
   61      H       5.0412814026    -4.4273143032     1.4251999123
   62      C       3.3577188806    -3.5089123400     0.4286424551
   63      H       2.9157926369    -4.4546940363     0.1427732351
   64      C       2.7449184453    -2.3362025455     0.0840861101
   65      H       1.8164542627    -2.3685248877    -0.4764115633
   66      C       3.3034831306    -1.0843636045     0.4461351571
   67      C       2.5923126647     2.6382544133     0.0939575737
   68      H       3.1631152547     3.4965199482     0.4468481929
   69      H       2.4843999879     2.7391427612    -0.9885358887
   70      H       1.5899318228     2.7136484528     0.5223567384
   71      C      -2.6049572528     0.0221206388    -2.9813155229
   72      C      -3.1261401137    -1.1979794287    -3.3642084624
   73      C      -4.3186943831    -1.2481421641    -4.1208853830
   74      H      -4.7133554974    -2.2142548821    -4.4135871187
   75      C      -4.9759914635    -0.1092292963    -4.4899136800
   76      H      -5.8884838346    -0.1668778151    -5.0716923329
   77      C      -4.4743735897     1.1559724895    -4.1179611127
   78      C      -5.1285568948     2.3546039069    -4.4850757737
   79      H      -6.0412504934     2.2943522962    -5.0666418956
   80      C      -4.6231683188     3.5696886831    -4.1156500456
   81      H      -5.1310199903     4.4814175055    -4.4022821796
   82      C      -3.4361622951     3.6380859109    -3.3584026282
   83      H      -3.0404009813     4.6025530330    -3.0678936904
   84      C      -2.7845459230     2.4936354717    -2.9899727803
   85      H      -1.8729631614     2.5677713167    -2.4067702280
   86      C      -3.2791840185     1.2170311470    -3.3555102930
   87      C      -2.4281117400    -2.4785951059    -2.9982520063
   88      H      -2.9984909800    -3.3525170693    -3.3117974828
   89      H      -1.4446029570    -2.5453219942    -3.4694964294
   90      H      -2.2734737856    -2.5591800673    -1.9201609737
 ----------------------------------------------------------------

   14   -2123.3991002025      8.36E-10 Convergence criterion met
 Total energy in the final basis set = -2123.39910020
 Final energy is   -2123.39910020245
 **  OPTIMIZATION CONVERGED  **

                    Orbital Energies (a.u.)
 --------------------------------------------------------------

 Alpha MOs
 -- Occupied --
-10.467 -10.467 -10.465 -10.465 -10.464 -10.464 -10.464 -10.464
-10.464 -10.464 -10.463 -10.462 -10.461 -10.461 -10.461 -10.461
-10.460 -10.460 -10.458 -10.458 -10.458 -10.458 -10.458 -10.457
-10.457 -10.457 -10.456 -10.456 -10.455 -10.455 -10.455 -10.455
-10.448 -10.448 -10.448 -10.447 -10.447 -10.447 -10.446 -10.446
-10.446 -10.446 -10.446 -10.446 -10.444 -10.444 -10.438 -10.438
-10.437 -10.436 -10.431 -10.429 -10.428 -10.428  -6.953  -6.953
 -1.017  -1.017  -0.979  -0.979  -0.963  -0.961  -0.933  -0.933
 -0.925  -0.925  -0.911  -0.902  -0.873  -0.870  -0.856  -0.855
 -0.848  -0.848  -0.846  -0.846  -0.824  -0.817  -0.813  -0.812
 -0.810  -0.806  -0.767  -0.767  -0.736  -0.730  -0.726  -0.721
 -0.701  -0.700  -0.689  -0.688  -0.679  -0.676  -0.672  -0.672
 -0.667  -0.658  -0.649  -0.648  -0.597  -0.596  -0.590  -0.588
 -0.583  -0.577  -0.577  -0.575  -0.574  -0.568  -0.567  -0.550
 -0.550  -0.543  -0.531  -0.528  -0.525  -0.513  -0.509  -0.506
 -0.505  -0.503  -0.502  -0.497  -0.495  -0.491  -0.487  -0.487
 -0.486  -0.483  -0.482  -0.481  -0.478  -0.476  -0.471  -0.471
 -0.466  -0.465  -0.454  -0.453  -0.449  -0.444  -0.442  -0.441
 -0.440  -0.439  -0.436  -0.432  -0.431  -0.426  -0.421  -0.415
 -0.408  -0.401  -0.397  -0.395  -0.395  -0.393  -0.391  -0.389
 -0.388  -0.387  -0.382  -0.373  -0.371  -0.371  -0.355  -0.355
 -0.353  -0.341  -0.327  -0.322  -0.320  -0.315  -0.296  -0.295
 -0.283  -0.280  -0.280  -0.263  -0.260  -0.257  -0.249  -0.248

          Ground-State Mulliken Net Atomic Charges

     Atom                 Charge (a.u.)
  ----------------------------------------
      1 C                    -0.156497
      2 C                    -0.395332
      3 H                     0.244990
      4 C                     0.100577
      5 C                     0.073655
      6 C                    -0.386013
      7 H                     0.245080
      8 C                    -0.158481
      9 C                     0.181888
     10 C                    -0.385129
     11 H                     0.246681
     12 C                    -0.063365
     13 C                     0.230397
     14 C                     0.183495
     15 C                    -0.394210
     16 H                     0.246624
     17 C                    -0.348194
     18 H                     0.247539
     19 C                    -0.225733
     20 H                     0.250985
     21 C                    -0.228502
     22 H                     0.251555
     23 C                    -0.343947
     24 H                     0.247162
     25 B                     0.707888
     26 B                     0.708578
     27 C                    -0.158456
     28 C                    -0.396472
     29 H                     0.245176
     30 C                     0.099939
     31 C                     0.072929
     32 C                    -0.382993
     33 H                     0.245956
     34 C                    -0.154840
     35 C                     0.183273
     36 C                    -0.385542
     37 H                     0.246499
     38 C                    -0.064104
     39 C                     0.228723
     40 C                     0.184707
     41 C                    -0.395308
     42 H                     0.246516
     43 C                    -0.228527
     44 H                     0.251514
     45 C                    -0.342915
     46 H                     0.247194
     47 C                    -0.225510
     48 H                     0.250921
     49 C                    -0.347733
     50 H                     0.247597
     51 C                    -0.223545
     52 C                     0.014030
     53 C                    -0.288513
     54 H                     0.232141
     55 C                    -0.328565
     56 H                     0.234713
     57 C                     0.107985
     58 C                    -0.303564
     59 H                     0.235971
     60 C                    -0.253515
     61 H                     0.241050
     62 C                    -0.254979
     63 H                     0.243195
     64 C                    -0.346718
     65 H                     0.252494
     66 C                     0.079702
     67 C                    -0.768698
     68 H                     0.249519
     69 H                     0.251135
     70 H                     0.250874
     71 C                    -0.228776
     72 C                     0.011887
     73 C                    -0.287570
     74 H                     0.232448
     75 C                    -0.328663
     76 H                     0.235207
     77 C                     0.110887
     78 C                    -0.302620
     79 H                     0.236252
     80 C                    -0.253956
     81 H                     0.241191
     82 C                    -0.254745
     83 H                     0.243227
     84 C                    -0.346886
     85 H                     0.252065
     86 C                     0.081385
     87 C                    -0.767758
     88 H                     0.249614
     89 H                     0.250770
     90 H                     0.251097
  ----------------------------------------
  Sum of atomic charges =     0.000000

                    Cartesian Multipole Moments
 -----------------------------------------------------------------
    Charge (ESU x 10^10)
                -0.0000
    Dipole Moment (Debye)
         X      -0.1279      Y       0.0445      Z      -0.0972
       Tot       0.1667
    Quadrupole Moments (Debye-Ang)
        XX    -269.4563     XY       3.8374     YY    -312.0946
        XZ      -4.5299     YZ       0.9291     ZZ    -261.4331

 Total job time:  32766.56s(wall), 77482.58s(cpu)
        *  Thank you very much for using Q-Chem.  Have a nice day.  *
