 Q-Chem 5.1, Q-Chem, Inc., Pleasanton, CA (2018)
 Q-Chem 5.1.1 for Intel X86 EM64T Linux

User input:
--------------------------------------------------------------
$rem
threads 8
jobtype	opt
method PBEh-3c
basis def2-mSVP
mem_static	512
mem_total	6096
sym_ignore	true
$end

$molecule
read incoords.mol
$end

--------------------------------------------------------------

   15   -3317.7235165638      5.36e-09  Convergence criterion met
 Total energy in the final basis set =    -3317.7235165638
   12   -3317.7654325453      5.25e-09  Convergence criterion met
 Total energy in the final basis set =    -3317.7654325453
   12   -3317.7789471678      5.80e-09  Convergence criterion met
 Total energy in the final basis set =    -3317.7789471678
   11   -3317.7835251123      1.00e-08  Convergence criterion met
 Total energy in the final basis set =    -3317.7835251123
   11   -3317.7851947678      9.62e-09  Convergence criterion met
 Total energy in the final basis set =    -3317.7851947678
   11   -3317.7869892958      7.97e-09  Convergence criterion met
 Total energy in the final basis set =    -3317.7869892958
   11   -3317.7878610576      9.91e-09  Convergence criterion met
 Total energy in the final basis set =    -3317.7878610576
   11   -3317.7888551057      7.80e-09  Convergence criterion met
    9   -3317.7920511151      4.65e-09  Convergence criterion met
 Total energy in the final basis set =    -3317.7920511151
    9   -3317.7920809930      9.04e-09  Convergence criterion met
 Total energy in the final basis set =    -3317.7920809930
    8   -3317.7920862803      5.74e-09  Convergence criterion met
 Total energy in the final basis set =    -3317.7920862803
    7   -3317.7920915670      8.49e-09  Convergence criterion met
 Total energy in the final basis set =    -3317.7920915670
    8   -3317.7920973095      5.77e-09  Convergence criterion met
 Total energy in the final basis set =    -3317.7920973095
    8   -3317.7921060460      7.45e-09  Convergence criterion met
 Total energy in the final basis set =    -3317.7921060460

             Standard Nuclear Orientation (Angstroms)
    I     Atom           X                Y                Z
 ----------------------------------------------------------------
    1      N       0.0929164776    -1.1409145179     0.7055404547
    2      C      -0.6222354280    -0.3712109066     1.6164937210
    3      C       0.0340754578     0.5178286691     2.4718201164
    4      C       1.5395516921     0.7052340569     2.4575000123
    5      C      -0.7372795330     1.2651825925     3.3567628051
    6      H      -0.2430940248     1.9628458226     4.0217958677
    7      C      -2.1143673112     1.1581576994     3.4214701742
    8      H      -2.6773105600     1.7575817614     4.1238206089
    9      C      -2.7518014040     0.2707445480     2.5705382695
   10      H      -3.8284407010     0.1608180801     2.5967765788
   11      C      -2.0175525966    -0.4846493448     1.6788253036
   12      H      -2.5342179160    -1.1709539200     1.0231766158
   13      C       1.4793373980    -1.0810069909     0.6246266466
   14      C       2.1600055363    -1.8949922014    -0.2883380466
   15      H       1.6084355451    -2.5697441852    -0.9275765849
   16      C       3.5360685073    -1.8509522551    -0.3878100261
   17      H       4.0347744005    -2.4910255270    -1.1039967658
   18      C       4.2670306734    -0.9959199709     0.4203887058
   19      H       5.3451986716    -0.9509028687     0.3512486395
   20      C       3.5894489363    -0.1956295451     1.3216528434
   21      H       4.1620436706     0.4741557832     1.9513094876
   22      C       2.2045082915    -0.2144329525     1.4480357296
   23      C      -0.6233699320    -1.9756839695    -0.1937055897
   24      C      -0.9365191129    -3.2765793259     0.1598833579
   25      H      -0.6125947153    -3.6559324011     1.1227720160
   26      C      -1.6731629410    -4.0867128914    -0.6987020722
   27      C      -1.0324853602    -1.4790771226    -1.4206358694
   28      H      -0.7798371485    -0.4598195842    -1.6904126955
   29      C      -1.7718064090    -2.2678432346    -2.2923398455
   30      C      -2.1077284179    -3.5810390701    -1.9301873369
   31      C      -2.1646319657    -1.7080420515    -3.6355142054
   32      H      -2.2742299355    -0.6235383688    -3.5589703768
   33      H      -3.1484841553    -2.0821858341    -3.9335022714
   34      C      -1.1461602372    -2.0360819437    -4.7256595888
   35      C      -2.0463051423    -5.4775695995    -0.2515727791
   36      H      -1.2307080687    -5.8979125398     0.3423628564
   37      H      -2.1541160029    -6.1393668645    -1.1155393693
   38      C      -3.3325198324    -5.5057228724     0.5714185832
   39      H      -4.1837021441    -5.1492298980    -0.0082891644
   40      H      -3.5602675438    -6.5191228430     0.9030778065
   41      H      -3.2473804863    -4.8754962350     1.4573919746
   42      B      -3.0377700643    -4.4242825815    -2.8795670524
   43      C      -4.5743227786    -4.1653030288    -2.8309507726
   44      C      -5.1165703240    -3.2816505319    -1.8900374961
   45      H      -4.4600816023    -2.7700271851    -1.1954580026
   46      C      -6.4825783049    -3.0646586758    -1.8467213343
   47      C      -7.3272383743    -3.7289067656    -2.7630086665
   48      C      -6.8035588158    -4.5895678316    -3.7057266457
   49      H      -7.4559422079    -5.0859498000    -4.4157097311
   50      C      -5.4291147858    -4.8227477932    -3.7470762368
   51      C      -7.3272926502    -2.2297950698    -0.9860007269
   52      C      -7.1160601423    -1.3720243800     0.0604818033
   53      H      -6.1235867063    -1.1697692978     0.4436251028
   54      C      -8.6515367720    -2.4318582798    -1.4209396398
   55      C      -9.7706426477    -1.8246117858    -0.8617734654
   56      C      -8.7068458816    -3.3323773372    -2.4986058022
   57      C      -9.9263302646    -3.6416453428    -3.0423422065
   58      H     -10.0259472150    -4.3282129552    -3.8743021281
   59      C      -8.2342901303    -0.7351557386     0.6509925590
   60      H      -8.0638704495    -0.0574613208     1.4770395337
   61      C      -9.5223289986    -0.9444572344     0.2174405070
   62      H     -10.3453761014    -0.4342887629     0.7026192307
   63      C     -11.0203016114    -2.1595410127    -1.4381333965
   64      H     -11.9314244716    -1.7223932574    -1.0483417336
   65      C     -11.0819803522    -3.0396307308    -2.4930013039
   66      H     -12.0461439123    -3.2828773542    -2.9202379941
   67      C      -2.4616006584    -5.4743487838    -3.8746489078
   68      C      -1.0947466164    -5.7777986832    -3.8828656246
   69      H      -0.4326595206    -5.2765130103    -3.1852134390
   70      C      -0.5954613735    -6.7151716044    -4.7718031111
   71      C      -1.4681478257    -7.3477960479    -5.6842891020
   72      C      -2.8139935773    -7.0422063616    -5.6993952663
   73      H      -3.4778465607    -7.5259793222    -6.4074786278
   74      C      -3.3281849766    -6.1155511424    -4.7930822971
   75      C       0.7491864096    -7.2577616524    -4.9938293515
   76      C       1.9863417477    -7.0677524121    -4.4390339502
   77      H       2.1512551361    -6.3616489239    -3.6350588081
   78      C       0.6257176119    -8.2008511369    -6.0328550305
   79      C       1.6705589681    -8.9639659401    -6.5402156249
   80      C      -0.7008740074    -8.2916709112    -6.4877514671
   81      C      -1.0021998908    -9.1750612204    -7.4905762587
   82      H      -2.0094023239    -9.2861716748    -7.8734586253
   83      C       3.0739250488    -7.8256944121    -4.9361488817
   84      H       4.0503425845    -7.6737724185    -4.4955375172
   85      C       2.9372671983    -8.7453381432    -5.9493471251
   86      H       3.8001164704    -9.3030205610    -6.2918412963
   87      C       1.3380105917    -9.8694238203    -7.5773113680
   88      H       2.1053133226   -10.4946348333    -8.0170346615
   89      C       0.0419776871    -9.9618769300    -8.0283931752
   90      H      -0.1911081147   -10.6618791118    -8.8201371549
   91      B      -4.8476929321    -5.7988397316    -4.8028554174
   92      C      -5.7963081779    -6.4468832103    -5.8802309831
   93      C      -6.1411284777    -5.7159201094    -7.0264696024
   94      C      -7.0008550134    -6.2679640365    -7.9676665144
   95      H      -7.2818063432    -5.7038441493    -8.8501747641
   96      C      -7.5105473045    -7.5425318271    -7.7925624299
   97      C      -7.1633757477    -8.2749024177    -6.6713854160
   98      H      -7.5732788295    -9.2711015708    -6.5451860376
   99      C      -6.3175636413    -7.7363452274    -5.7085573933
  100      N      -8.4119687497    -8.0868633001    -8.7467088993
  101      C      -9.7767096093    -7.9158391748    -8.5479112644
  102      C     -10.7013750749    -8.4229827317    -9.4665787099
  103      C     -10.2882830109    -9.1714131423   -10.7226705514
  104      C     -12.0550410316    -8.2217056396    -9.2173285902
  105      H     -12.7795120211    -8.6093583724    -9.9229761483
  106      C     -12.5171253347    -7.5436675568    -8.1051599511
  107      H     -13.5784388933    -7.4081057063    -7.9479578136
  108      C     -11.5919772885    -7.0448336165    -7.2035535320
  109      H     -11.9188694812    -6.5089368961    -6.3218443192
  110      C     -10.2405238760    -7.2268179282    -7.4199744073
  111      H      -9.5374215475    -6.8283212531    -6.7030567245
  112      C      -7.9131872093    -8.7733641715    -9.8474658726
  113      C      -8.7774104732    -9.3067029546   -10.8096088757
  114      C      -8.2205277364    -9.9811211247   -11.8912589688
  115      H      -8.8788587441   -10.3974595372   -12.6441078530
  116      C      -6.8565876387   -10.1424193583   -12.0483334419
  117      H      -6.4633740015   -10.6721288788   -12.9052509647
  118      C      -6.0117438884    -9.6110511072   -11.0882469005
  119      H      -4.9388662880    -9.7183742288   -11.1809932175
  120      C      -6.5312050862    -8.9359134943   -10.0016306386
  121      H      -5.8548072506    -8.5271455443    -9.2648838186
  122      C      -6.0409007720    -8.5394790585    -4.4645027865
  123      H      -5.9064054362    -9.5908886675    -4.7318720210
  124      H      -5.0993267480    -8.2273834343    -4.0054424388
  125      C      -7.1718151841    -8.4185127786    -3.4450991363
  126      C      -5.5494473332    -4.3588779588    -7.2999767024
  127      H      -6.2982392254    -3.7232915445    -7.7796633170
  128      H      -5.2908280926    -3.8558127040    -6.3643664271
  129      C      -4.3132753763    -4.4490634981    -8.1919261464
  130      H      -3.5347730763    -5.0535296151    -7.7259261913
  131      H      -4.5554858897    -4.9046618902    -9.1529090746
  132      H      -3.8959250357    -3.4606623742    -8.3858196948
  133      H      -7.2971978743    -7.3866531184    -3.1161105885
  134      H      -6.9718771486    -9.0264321961    -2.5624422449
  135      H      -8.1202535989    -8.7485886472    -3.8708509834
  136      H      -1.4458673756    -1.6030929159    -5.6805452212
  137      H      -1.0479627361    -3.1121379750    -4.8681926927
  138      H      -0.1609779565    -1.6430355099    -4.4733664833
  139      C     -10.7940012275    -8.3993605273   -11.9544535877
  140      C     -10.9207134274   -10.5737045045   -10.7033575182
  141      C       2.0905169042     0.3918306887     3.8586588426
  142      C       1.8500836614     2.1629179898     2.0806545335
  143      H       1.4544354711     2.3958417899     1.0921076245
  144      H       2.9245147474     2.3489118626     2.0653312435
  145      H       1.4059828647     2.8603167323     2.7917545995
  146      H       1.8781079415    -0.6414207028     4.1330352257
  147      H       1.6441315459     1.0370001739     4.6158065135
  148      H       3.1700092898     0.5370264212     3.9069805576
  149      H     -10.3553174214    -7.4026834701   -11.9966235211
  150      H     -11.8788406930    -8.2870481579   -11.9348331675
  151      H     -10.5384743962    -8.9173467679   -12.8796781152
  152      H     -10.5788430476   -11.1431878069    -9.8396140670
  153      H     -10.6650351102   -11.1394700442   -11.5999097822
  154      H     -12.0088455396   -10.5178858584   -10.6585515267
 ----------------------------------------------------------------

    8   -3317.7921129112      7.33e-09  Convergence criterion met
 Total energy in the final basis set =    -3317.7921129112
 Final energy is   -3317.79211291123
 **  OPTIMIZATION CONVERGED  **

                    Orbital Energies (a.u.)
 --------------------------------------------------------------

 Alpha MOs
 -- Occupied --
-14.673 -14.672 -10.489 -10.489 -10.489 -10.488 -10.485 -10.485
-10.470 -10.469 -10.469 -10.469 -10.469 -10.469 -10.469 -10.468
-10.467 -10.466 -10.466 -10.466 -10.466 -10.466 -10.466 -10.465
-10.465 -10.465 -10.464 -10.464 -10.464 -10.464 -10.463 -10.463
-10.461 -10.460 -10.458 -10.458 -10.458 -10.458 -10.458 -10.457
-10.451 -10.450 -10.447 -10.447 -10.447 -10.446 -10.445 -10.445
-10.445 -10.444 -10.441 -10.441 -10.441 -10.441 -10.441 -10.441
-10.440 -10.440 -10.440 -10.440 -10.440 -10.440 -10.440 -10.440
-10.439 -10.438 -10.436 -10.436 -10.436 -10.435 -10.434 -10.433
-10.433 -10.433 -10.433 -10.432 -10.426 -10.425 -10.425 -10.424
-10.423 -10.423 -10.423 -10.422  -6.957  -6.955  -1.086  -1.085
 -1.021  -1.020  -0.973  -0.972  -0.966  -0.964  -0.955  -0.955
 -0.950  -0.950  -0.938  -0.937  -0.914  -0.906  -0.905  -0.905
 -0.897  -0.895  -0.873  -0.870  -0.860  -0.859  -0.851  -0.851
 -0.847  -0.847  -0.832  -0.832  -0.830  -0.827  -0.823  -0.818
 -0.817  -0.812  -0.812  -0.810  -0.808  -0.807  -0.789  -0.788
 -0.766  -0.766  -0.740  -0.736  -0.731  -0.725  -0.721  -0.720
 -0.720  -0.718  -0.709  -0.709  -0.705  -0.704  -0.694  -0.693
 -0.688  -0.684  -0.676  -0.671  -0.667  -0.666  -0.655  -0.653
 -0.639  -0.638  -0.638  -0.636  -0.613  -0.613  -0.612  -0.612
 -0.600  -0.600  -0.597  -0.593  -0.589  -0.587  -0.586  -0.580
 -0.579  -0.563  -0.562  -0.556  -0.550  -0.548  -0.534  -0.533
 -0.533  -0.533  -0.531  -0.528  -0.523  -0.521  -0.521  -0.519
 -0.516  -0.514  -0.508  -0.507  -0.506  -0.505  -0.503  -0.498
 -0.497  -0.496  -0.496  -0.495  -0.495  -0.490  -0.490  -0.489
 -0.489  -0.488  -0.488  -0.487  -0.482  -0.480  -0.479  -0.476
 -0.476  -0.476  -0.475  -0.475  -0.473  -0.473  -0.465  -0.462
 -0.459  -0.457  -0.449  -0.449  -0.448  -0.445  -0.444  -0.444
 -0.441  -0.440  -0.437  -0.435  -0.435  -0.431  -0.430  -0.430
 -0.429  -0.425  -0.424  -0.424  -0.421  -0.420  -0.413  -0.412
 -0.411  -0.408  -0.406  -0.405  -0.403  -0.401  -0.399  -0.399
 -0.398  -0.398  -0.398  -0.397  -0.396  -0.394  -0.392  -0.391
 -0.390  -0.389  -0.385  -0.378  -0.378  -0.372  -0.370  -0.369
 -0.368  -0.365  -0.364  -0.363  -0.358  -0.355  -0.353  -0.346
 -0.323  -0.318  -0.299  -0.298  -0.296  -0.295  -0.287  -0.285
 -0.285  -0.283  -0.281  -0.279  -0.279  -0.279  -0.279  -0.266
 -0.262  -0.260  -0.219  -0.218

          Ground-State Mulliken Net Atomic Charges

     Atom                 Charge (a.u.)
  ----------------------------------------
      1 N                    -0.723785
      2 C                     0.312256
      3 C                     0.145042
      4 C                    -0.209370
      5 C                    -0.291486
      6 H                     0.206201
      7 C                    -0.227143
      8 H                     0.209953
      9 C                    -0.229011
     10 H                     0.206543
     11 C                    -0.302835
     12 H                     0.245996
     13 C                     0.315504
     14 C                    -0.305646
     15 H                     0.247284
     16 C                    -0.230323
     17 H                     0.211609
     18 C                    -0.228028
     19 H                     0.210176
     20 C                    -0.290999
     21 H                     0.205858
     22 C                     0.142265
     23 C                     0.189069
     24 C                    -0.295083
     25 H                     0.225281
     26 C                     0.067151
     27 C                    -0.293506
     28 H                     0.223912
     29 C                     0.063237
     30 C                    -0.216242
     31 C                    -0.554892
     32 H                     0.236027
     33 H                     0.256871
     34 C                    -0.645795
     35 C                    -0.552166
     36 H                     0.234533
     37 H                     0.251820
     38 C                    -0.647603
     39 H                     0.242923
     40 H                     0.222581
     41 H                     0.218858
     42 B                     0.667694
     43 C                    -0.152284
     44 C                    -0.391094
     45 H                     0.234817
     46 C                     0.112096
     47 C                     0.087839
     48 C                    -0.384220
     49 H                     0.231117
     50 C                    -0.151972
     51 C                     0.198131
     52 C                    -0.384972
     53 H                     0.217916
     54 C                    -0.062985
     55 C                     0.252004
     56 C                     0.197530
     57 C                    -0.376241
     58 H                     0.216950
     59 C                    -0.202474
     60 H                     0.227540
     61 C                    -0.335816
     62 H                     0.222362
     63 C                    -0.331609
     64 H                     0.222078
     65 C                    -0.205087
     66 H                     0.228126
     67 C                    -0.151174
     68 C                    -0.396526
     69 H                     0.229478
     70 C                     0.112195
     71 C                     0.087810
     72 C                    -0.385046
     73 H                     0.230345
     74 C                    -0.149737
     75 C                     0.198007
     76 C                    -0.385234
     77 H                     0.218867
     78 C                    -0.062280
     79 C                     0.252843
     80 C                     0.196883
     81 C                    -0.375482
     82 H                     0.218618
     83 C                    -0.202906
     84 H                     0.228262
     85 C                    -0.336262
     86 H                     0.222461
     87 C                    -0.331587
     88 H                     0.222137
     89 C                    -0.206100
     90 H                     0.228771
     91 B                     0.667642
     92 C                    -0.227168
     93 C                     0.062961
     94 C                    -0.292552
     95 H                     0.224749
     96 C                     0.190646
     97 C                    -0.290593
     98 H                     0.225471
     99 C                     0.066251
    100 N                    -0.723247
    101 C                     0.312955
    102 C                     0.143337
    103 C                    -0.211485
    104 C                    -0.290722
    105 H                     0.206067
    106 C                    -0.227808
    107 H                     0.210161
    108 C                    -0.228626
    109 H                     0.207845
    110 C                    -0.302444
    111 H                     0.245619
    112 C                     0.317214
    113 C                     0.142376
    114 C                    -0.291052
    115 H                     0.206068
    116 C                    -0.227980
    117 H                     0.210390
    118 C                    -0.229776
    119 H                     0.210897
    120 C                    -0.306529
    121 H                     0.245531
    122 C                    -0.550377
    123 H                     0.234959
    124 H                     0.254090
    125 C                    -0.643937
    126 C                    -0.555354
    127 H                     0.236716
    128 H                     0.257581
    129 C                    -0.643430
    130 H                     0.239425
    131 H                     0.219799
    132 H                     0.221220
    133 H                     0.237001
    134 H                     0.222903
    135 H                     0.219488
    136 H                     0.220425
    137 H                     0.243458
    138 H                     0.220192
    139 C                    -0.595674
    140 C                    -0.598112
    141 C                    -0.599668
    142 C                    -0.595271
    143 H                     0.232735
    144 H                     0.215940
    145 H                     0.215395
    146 H                     0.234384
    147 H                     0.215820
    148 H                     0.215786
    149 H                     0.233420
    150 H                     0.215584
    151 H                     0.215365
    152 H                     0.234001
    153 H                     0.215566
    154 H                     0.215549
  ----------------------------------------
  Sum of atomic charges =    -0.000000

                    Cartesian Multipole Moments
 -----------------------------------------------------------------
    Charge (ESU x 10^10)
                -0.0000
    Dipole Moment (Debye)
         X       0.0916      Y      -0.6064      Z       0.0585
       Tot       0.6160
    Quadrupole Moments (Debye-Ang)
        XX    -454.6887     XY     -20.0693     YY    -481.3659
        XZ     -15.9364     YZ      23.0805     ZZ    -490.0227

 Total job time:  52677.05s(wall), 395254.96s(cpu)
        *  Thank you very much for using Q-Chem.  Have a nice day.  *
