 Q-Chem 5.1, Q-Chem, Inc., Pleasanton, CA (2018)
 Q-Chem 5.1.1 for Intel X86 EM64T Linux

User input:
--------------------------------------------------------------
$rem
threads 8
jobtype	sp
method PBEh-3c
basis def2-mSVP
mem_static	1024
mem_total	10000
sym_ignore	true
cis_n_roots             6
cis_singlets            true
cis_triplets		true
rpa                     false
calc_soc 		true
cis_moments             true
cis_relaxed_density	true
$end

$molecule
read gsopt.mol
$end

--------------------------------------------------------------

             Standard Nuclear Orientation (Angstroms)
    I     Atom           X                Y                Z
 ----------------------------------------------------------------
    1      N       0.0000000000     0.0000000000     0.0000000000
    2      C       0.0000000000     0.0000000000     1.3897080000
    3      C       1.1816295524     0.0000000000    -0.7317681725
    4      C       1.2024300050    -0.0139337216     2.1039347323
    5      C       1.1425689480    -0.0139679503     3.4937071448
    6      H       2.0678684805    -0.0258414142     4.0565132811
    7      C      -0.0512354821    -0.0019761849     4.1900279849
    8      H      -0.0547236877    -0.0028149941     5.2714450339
    9      C      -1.2351789210     0.0101946565     3.4718641454
   10      H      -2.1881178091     0.0198598434     3.9849621924
   11      C      -1.2123186276     0.0108391698     2.0913355557
   12      H      -2.1486168382     0.0199655900     1.5524607265
   13      C       2.4226846325    -0.0160035514    -0.0863411158
   14      C       3.5712990029    -0.0182509058    -0.8709464241
   15      H       4.5385625305    -0.0321781013    -0.3833741811
   16      C       3.5313673046    -0.0048984984    -2.2527020603
   17      H       4.4479452289    -0.0090847981    -2.8266220747
   18      C       2.2966456820     0.0123333778    -2.8796345471
   19      H       2.2293941290     0.0221056035    -3.9597127266
   20      C       1.1365199465     0.0153614012    -2.1309797096
   21      H       0.1832905446     0.0268369545    -2.6395289338
   22      C      -1.2467838980     0.0012910500    -0.6817482034
   23      C      -1.8868172651     1.1975451729    -0.9524274691
   24      H      -1.4140906853     2.1271085555    -0.6544327920
   25      C      -1.8373620166    -1.1946301588    -1.0504778861
   26      H      -1.3259122140    -2.1254402053    -0.8313933984
   27      C      -3.0693660577    -1.2053297169    -1.6921838207
   28      C      -3.1276592849     1.2100257218    -1.5790343608
   29      C      -3.7307984241     0.0027930554    -1.9567956576
   30      C      -3.6338772363    -2.5253361702    -2.1453560485
   31      H      -3.4110269448    -3.2935565979    -1.4004175111
   32      H      -4.7246136653    -2.4781287995    -2.2035804098
   33      C      -3.8224376329     2.5326891500    -1.7716024008
   34      H      -4.5421246893     2.4743971517    -2.5921839314
   35      H      -3.0913604044     3.2881581729    -2.0713202365
   36      C       2.5622045886    -0.0388722369     1.4264745355
   37      C      -3.0664557088    -2.9498176585    -3.4980119764
   38      H      -3.2990046534    -2.2162220898    -4.2702554503
   39      H      -3.4795675544    -3.9080587160    -3.8139634563
   40      H      -1.9813428054    -3.0512581246    -3.4536895922
   41      C      -4.5324188325     2.9936479211    -0.5002934467
   42      H      -5.0068131624     3.9645138900    -0.6451890238
   43      H      -5.3072663215     2.2865513662    -0.2031158840
   44      H      -3.8304566293     3.0847930062     0.3295815269
   45      C       3.3714156035     1.1892592557     1.8777331733
   46      H       2.8671575234     2.1129994181     1.5954798173
   47      H       3.5079151431     1.1991139535     2.9595955097
   48      H       4.3651927631     1.1996632635     1.4287705011
   49      C       3.3049424779    -1.3213919938     1.8419132882
   50      H       2.7557855743    -2.2086945546     1.5277340145
   51      H       4.2987999198    -1.3666769639     1.3948779454
   52      H       3.4335439301    -1.3729726354     2.9238912393
   53      B      -5.1425911320    -0.0221139061    -2.6544985266
   54      C      -6.4171062515    -0.2902711890    -1.8123703872
   55      C      -6.3139512064    -0.4247251110    -0.4280073924
   56      H      -5.3435257569    -0.3482175673     0.0500053936
   57      C      -7.4456367542    -0.6547073537     0.3270371453
   58      C      -8.7104759549    -0.7737214062    -0.2896276362
   59      C      -8.8185748871    -0.6538531365    -1.6639946315
   60      H      -9.7844730158    -0.7515012062    -2.1463669677
   61      C      -7.6802599334    -0.4038757012    -2.4398448443
   62      C      -7.6120014072    -0.8128967152     1.7684809633
   63      C      -6.7706576793    -0.7921697931     2.8502150253
   64      H      -5.7042511714    -0.6338469751     2.7445381322
   65      C      -8.9852821715    -1.0252092103     1.9791477892
   66      C      -9.5549518756    -1.2187956834     3.2328676802
   67      C      -9.7002902109    -1.0140612106     0.7657790952
   68      C     -11.0547161789    -1.2109363120     0.8136021723
   69      H     -11.6644334942    -1.2163513278    -0.0813417934
   70      C      -7.3226051538    -0.9852289176     4.1377732653
   71      H      -6.6602945415    -0.9685483769     4.9935635023
   72      C      -8.6675412109    -1.1921097344     4.3364095180
   73      H      -9.0472683795    -1.3347520730     5.3407211573
   74      C     -10.9551662586    -1.4189913249     3.2517126801
   75      H     -11.4685464917    -1.5773356489     4.1921621795
   76      C     -11.6659226464    -1.4136055681     2.0745916771
   77      H     -12.7360379781    -1.5696457554     2.1088000019
   78      C      -5.2736661070     0.2056501228    -4.1842858033
   79      C      -4.1375926131     0.5111988172    -4.9329260617
   80      H      -3.1729995221     0.5782795650    -4.4418263750
   81      C      -4.2464674878     0.7377017697    -6.2900391995
   82      C      -5.4973537637     0.6428531240    -6.9386622806
   83      C      -6.6269637680     0.3186658676    -6.2058267455
   84      H      -7.5912754520     0.2312676692    -6.6945294853
   85      C      -6.5327606828     0.1067487312    -4.8250094040
   86      C      -3.2354874009     1.1033207724    -7.2746215676
   87      C      -1.8881700391     1.3475678206    -7.2308774619
   88      H      -1.3219392332     1.2757050761    -6.3102153892
   89      C      -3.9116040168     1.2197954016    -8.5011310331
   90      C      -3.2931110685     1.5757697183    -9.6936917540
   91      C      -5.2864810515     0.9489211065    -8.3576879597
   92      C      -6.0802370808     1.0352714463    -9.4698700322
   93      H      -7.1450624185     0.8436847043    -9.4299155421
   94      C      -1.2319164836     1.7080195885    -8.4300598111
   95      H      -0.1677977319     1.9028858844    -8.4005660916
   96      C      -1.8999561267     1.8220839244    -9.6269034817
   97      H      -1.3564527790     2.1040558183   -10.5202653517
   98      C      -4.1372194766     1.6554425973   -10.8262135059
   99      H      -3.7275396570     1.9271249499   -11.7911865624
  100      C      -5.4809443505     1.3907913518   -10.7023024520
  101      H      -6.1107118352     1.4586917482   -11.5794522465
  102      B      -7.7944263086    -0.2562578258    -3.9876187048
  103      C      -9.1933975875    -0.5137435162    -4.6613694047
  104      C     -10.0571054200     0.5432608544    -4.9741944319
  105      C     -11.3268459277     0.2730787193    -5.4750846158
  106      H     -12.0073129225     1.0863462672    -5.7021334175
  107      C     -11.7436895083    -1.0317012707    -5.6730943511
  108      C     -10.8839794090    -2.0793990801    -5.3857262926
  109      H     -11.2180566813    -3.0981639178    -5.5469923051
  110      C      -9.6134680990    -1.8341929847    -4.8814541096
  111      N     -13.0563535249    -1.3012050147    -6.1451445228
  112      C     -13.2763259951    -1.4380720849    -7.5108603361
  113      C     -14.0797265401    -1.4639047227    -5.2178055575
  114      C     -15.3716026829    -1.8006641502    -5.6305615330
  115      C     -16.3513121158    -1.9559841025    -4.6545001128
  116      H     -17.3560136363    -2.2227966216    -4.9588165964
  117      C     -16.0956314107    -1.7875570107    -3.3060672885
  118      H     -16.8855255734    -1.9177428446    -2.5789983983
  119      C     -14.8117926415    -1.4505035554    -2.9110201824
  120      H     -14.5781168211    -1.3090210713    -1.8634975594
  121      C     -13.8154142189    -1.2906548829    -3.8525999788
  122      H     -12.8201745824    -1.0279721142    -3.5234672572
  123      C     -14.5427684282    -1.7743595975    -7.9985697695
  124      C     -14.7033883824    -1.8996388889    -9.3743939462
  125      H     -15.6787849032    -2.1634499370    -9.7642024566
  126      C     -13.6657536698    -1.7045951270   -10.2672161145
  127      H     -13.8307849015    -1.8129131847   -11.3303646616
  128      C     -12.4168815673    -1.3700987679    -9.7702232342
  129      H     -11.5828538986    -1.2103303723   -10.4411908764
  130      C     -12.2224896721    -1.2374921476    -8.4100725212
  131      H     -11.2404206796    -0.9750695369    -8.0428930006
  132      C      -8.6906972286    -2.9966831009    -4.6189351055
  133      H      -9.2822512856    -3.8801748535    -4.3668921811
  134      H      -8.0676033658    -2.8005104845    -3.7414291874
  135      C      -9.6625426532     1.9753081092    -4.7149596681
  136      H     -10.1027780081     2.6167584574    -5.4826712657
  137      H      -8.5801343448     2.0961260856    -4.8141200617
  138      C     -15.7342180343    -2.0156894802    -7.0879762931
  139      C     -10.1027907163     2.4667196828    -3.3375881797
  140      H      -9.6356992749     1.8883259734    -2.5407532012
  141      H      -9.8284678432     3.5117860801    -3.1912021709
  142      H     -11.1835956769     2.3850044425    -3.2169008055
  143      C      -7.7956394282    -3.3138506865    -5.8154247615
  144      H      -7.1506013919    -2.4714389740    -6.0646722104
  145      H      -8.3900025053    -3.5499134580    -6.6984470046
  146      H      -7.1534982256    -4.1695598346    -5.6044127140
  147      C     -16.2101115237    -3.4664136543    -7.2674474560
  148      H     -15.4207592499    -4.1656103896    -6.9916542460
  149      H     -16.4909737934    -3.6671610545    -8.3018789695
  150      H     -17.0789459648    -3.6795228883    -6.6437771358
  151      C     -16.8596633838    -1.0386471100    -7.4671765119
  152      H     -16.5298861620    -0.0068087349    -7.3464909970
  153      H     -17.1745245795    -1.1716886639    -8.5024947015
  154      H     -17.7405260055    -1.1831775939    -6.8411031319
 ----------------------------------------------------------------

   15   -3317.7915727446      6.07e-09  Convergence criterion met
 Total energy in the final basis set =    -3317.7915727446

         TDDFT/TDA Excitation Energies
 ---------------------------------------------------

 Excited state   1: excitation energy (eV) =    2.3342
 Total energy for state  1:                 -3317.70579259 au
    Multiplicity: Triplet
    Trans. Mom.:  0.0000 X   0.0000 Y   0.0000 Z
    Strength   :     0.0000000000
    D(289) --> V(  1) amplitude =  0.8702
    D(290) --> V(  1) amplitude =  0.2685

 Excited state   2: excitation energy (eV) =    2.4886
 Total energy for state  2:                 -3317.70012017 au
    Multiplicity: Triplet
    Trans. Mom.:  0.0000 X   0.0000 Y   0.0000 Z
    Strength   :     0.0000000000
    D(288) --> V(  2) amplitude = -0.4941
    D(289) --> V(  1) amplitude = -0.2448
    D(290) --> V(  1) amplitude =  0.7437
    D(290) --> V(  4) amplitude = -0.2225

 Excited state   3: excitation energy (eV) =    2.5372
 Total energy for state  3:                 -3317.69833060 au
    Multiplicity: Triplet
    Trans. Mom.:  0.0000 X   0.0000 Y   0.0000 Z
    Strength   :     0.0000000000
    D(288) --> V(  1) amplitude =  0.7192
    D(288) --> V(  4) amplitude = -0.2508
    D(290) --> V(  2) amplitude = -0.5525

 Excited state   4: excitation energy (eV) =    2.5963
 Total energy for state  4:                 -3317.69615942 au
    Multiplicity: Triplet
    Trans. Mom.:  0.0000 X   0.0000 Y   0.0000 Z
    Strength   :     0.0000000000
    D(292) --> V(  1) amplitude =  0.9971

 Excited state   5: excitation energy (eV) =    2.5967
 Total energy for state  5:                 -3317.69614635 au
    Multiplicity: Singlet
    Trans. Mom.:  0.0034 X  -0.0002 Y   0.0063 Z
    Strength   :     0.0000032332
    D(292) --> V(  1) amplitude =  0.9981

 Excited state   6: excitation energy (eV) =    2.6082
 Total energy for state  6:                 -3317.69572165 au
    Multiplicity: Triplet
    Trans. Mom.:  0.0000 X   0.0000 Y   0.0000 Z
    Strength   :     0.0000000000
    D(291) --> V(  1) amplitude =  0.9978

 Excited state   7: excitation energy (eV) =    2.6087
 Total energy for state  7:                 -3317.69570598 au
    Multiplicity: Singlet
    Trans. Mom.:  0.0063 X   0.0005 Y   0.0026 Z
    Strength   :     0.0000029638
    D(291) --> V(  1) amplitude =  0.9983

 Excited state   8: excitation energy (eV) =    2.7650
 Total energy for state  8:                 -3317.68996087 au
    Multiplicity: Triplet
    Trans. Mom.:  0.0000 X   0.0000 Y   0.0000 Z
    Strength   :     0.0000000000
    D(279) --> V(  1) amplitude =  0.4356
    D(282) --> V(  1) amplitude =  0.5300
    D(289) --> V(  2) amplitude =  0.5544

 Excited state   9: excitation energy (eV) =    3.0024
 Total energy for state  9:                 -3317.68123537 au
    Multiplicity: Singlet
    Trans. Mom.: -0.0568 X  -0.0265 Y   0.1265 Z
    Strength   :     0.0014661606
    D(289) --> V(  1) amplitude =  0.9315
    D(290) --> V(  1) amplitude =  0.2499

 Excited state  10: excitation energy (eV) =    3.2784
 Total energy for state 10:                 -3317.67109321 au
    Multiplicity: Singlet
    Trans. Mom.: -1.4192 X  -0.6413 Y   2.9042 Z
    Strength   :     0.8722646528
    D(289) --> V(  1) amplitude = -0.2452
    D(290) --> V(  1) amplitude =  0.9147

 Excited state  11: excitation energy (eV) =    3.6022
 Total energy for state 11:                 -3317.65919328 au
    Multiplicity: Singlet
    Trans. Mom.: -0.0012 X   0.0012 Y   0.0025 Z
    Strength   :     0.0000008116
    D(292) --> V(  2) amplitude =  0.9976

 Excited state  12: excitation energy (eV) =    3.6111
 Total energy for state 12:                 -3317.65886848 au
    Multiplicity: Singlet
    Trans. Mom.:  0.0021 X  -0.0012 Y  -0.0060 Z
    Strength   :     0.0000037216
    D(291) --> V(  2) amplitude =  0.9980

 ---------------------------------------------------

                    Orbital Energies (a.u.)
 --------------------------------------------------------------

 Alpha MOs
 -- Occupied --
-14.673 -14.672 -10.489 -10.489 -10.489 -10.488 -10.485 -10.485
-10.470 -10.469 -10.469 -10.469 -10.469 -10.469 -10.468 -10.468
-10.467 -10.466 -10.466 -10.466 -10.466 -10.466 -10.466 -10.465
-10.465 -10.465 -10.464 -10.464 -10.464 -10.464 -10.463 -10.463
-10.461 -10.459 -10.458 -10.458 -10.458 -10.458 -10.458 -10.457
-10.451 -10.450 -10.447 -10.447 -10.447 -10.446 -10.445 -10.445
-10.445 -10.444 -10.441 -10.441 -10.441 -10.441 -10.441 -10.441
-10.440 -10.440 -10.440 -10.440 -10.440 -10.440 -10.440 -10.440
-10.439 -10.438 -10.436 -10.436 -10.436 -10.435 -10.434 -10.433
-10.433 -10.433 -10.433 -10.432 -10.426 -10.425 -10.425 -10.424
-10.423 -10.423 -10.423 -10.422  -6.957  -6.955  -1.086  -1.085
 -1.021  -1.020  -0.973  -0.972  -0.966  -0.964  -0.955  -0.955
 -0.950  -0.950  -0.938  -0.937  -0.914  -0.906  -0.905  -0.905
 -0.897  -0.895  -0.873  -0.870  -0.860  -0.859  -0.851  -0.851
 -0.847  -0.847  -0.832  -0.832  -0.830  -0.827  -0.823  -0.818
 -0.817  -0.812  -0.812  -0.810  -0.808  -0.807  -0.789  -0.788
 -0.766  -0.766  -0.740  -0.736  -0.731  -0.725  -0.721  -0.720
 -0.720  -0.718  -0.709  -0.709  -0.705  -0.704  -0.694  -0.693
 -0.688  -0.684  -0.676  -0.671  -0.667  -0.666  -0.655  -0.653
 -0.639  -0.638  -0.638  -0.636  -0.613  -0.613  -0.612  -0.612
 -0.600  -0.600  -0.597  -0.593  -0.589  -0.587  -0.586  -0.580
 -0.579  -0.563  -0.562  -0.556  -0.550  -0.548  -0.534  -0.533
 -0.533  -0.533  -0.531  -0.528  -0.523  -0.521  -0.521  -0.519
 -0.516  -0.514  -0.508  -0.507  -0.506  -0.505  -0.503  -0.498
 -0.497  -0.496  -0.496  -0.495  -0.495  -0.490  -0.490  -0.489
 -0.489  -0.488  -0.488  -0.487  -0.482  -0.480  -0.479  -0.476
 -0.476  -0.476  -0.475  -0.475  -0.473  -0.473  -0.465  -0.462
 -0.459  -0.457  -0.449  -0.449  -0.448  -0.445  -0.444  -0.444
 -0.441  -0.440  -0.437  -0.435  -0.435  -0.431  -0.430  -0.430
 -0.429  -0.425  -0.424  -0.424  -0.421  -0.420  -0.413  -0.412
 -0.411  -0.408  -0.406  -0.405  -0.403  -0.401  -0.399  -0.399
 -0.398  -0.398  -0.398  -0.397  -0.396  -0.394  -0.392  -0.391
 -0.390  -0.389  -0.385  -0.378  -0.378  -0.372  -0.370  -0.369
 -0.368  -0.365  -0.364  -0.363  -0.358  -0.355  -0.353  -0.346
 -0.323  -0.318  -0.299  -0.298  -0.296  -0.295  -0.287  -0.285
 -0.285  -0.283  -0.281  -0.279  -0.279  -0.279  -0.279  -0.266
 -0.262  -0.260  -0.219  -0.218

          Ground-State Mulliken Net Atomic Charges

     Atom                 Charge (a.u.)
  ----------------------------------------
      1 N                    -0.723120
      2 C                     0.313406
      3 C                     0.316611
      4 C                     0.143392
      5 C                    -0.290814
      6 H                     0.206083
      7 C                    -0.227766
      8 H                     0.210115
      9 C                    -0.228646
     10 H                     0.207841
     11 C                    -0.302513
     12 H                     0.245621
     13 C                     0.142238
     14 C                    -0.290784
     15 H                     0.205924
     16 C                    -0.227879
     17 H                     0.210417
     18 C                    -0.229817
     19 H                     0.210870
     20 C                    -0.306265
     21 H                     0.245380
     22 C                     0.191205
     23 C                    -0.290925
     24 H                     0.225509
     25 C                    -0.293020
     26 H                     0.224777
     27 C                     0.063267
     28 C                     0.066847
     29 C                    -0.227708
     30 C                    -0.555238
     31 H                     0.236684
     32 H                     0.257590
     33 C                    -0.550398
     34 H                     0.254013
     35 H                     0.234958
     36 C                    -0.211823
     37 C                    -0.643609
     38 H                     0.239429
     39 H                     0.221260
     40 H                     0.219822
     41 C                    -0.643941
     42 H                     0.222903
     43 H                     0.236961
     44 H                     0.219484
     45 C                    -0.598024
     46 H                     0.234017
     47 H                     0.215571
     48 H                     0.215546
     49 C                    -0.595657
     50 H                     0.233426
     51 H                     0.215378
     52 H                     0.215610
     53 B                     0.667668
     54 C                    -0.151840
     55 C                    -0.384136
     56 H                     0.231133
     57 C                     0.087348
     58 C                     0.112524
     59 C                    -0.391458
     60 H                     0.234849
     61 C                    -0.152047
     62 C                     0.197784
     63 C                    -0.376229
     64 H                     0.216971
     65 C                    -0.063480
     66 C                     0.252223
     67 C                     0.197935
     68 C                    -0.384787
     69 H                     0.217947
     70 C                    -0.205142
     71 H                     0.228114
     72 C                    -0.331515
     73 H                     0.222049
     74 C                    -0.335822
     75 H                     0.222376
     76 C                    -0.202460
     77 H                     0.227546
     78 C                    -0.149526
     79 C                    -0.385116
     80 H                     0.230292
     81 C                     0.088203
     82 C                     0.111593
     83 C                    -0.396257
     84 H                     0.229433
     85 C                    -0.151447
     86 C                     0.196822
     87 C                    -0.375589
     88 H                     0.218634
     89 C                    -0.062662
     90 C                     0.252999
     91 C                     0.198223
     92 C                    -0.385085
     93 H                     0.218858
     94 C                    -0.206103
     95 H                     0.228755
     96 C                    -0.331683
     97 H                     0.222161
     98 C                    -0.336200
     99 H                     0.222477
    100 C                    -0.202962
    101 H                     0.228295
    102 B                     0.667725
    103 C                    -0.216137
    104 C                     0.066977
    105 C                    -0.295159
    106 H                     0.225266
    107 C                     0.189168
    108 C                    -0.293737
    109 H                     0.223941
    110 C                     0.063603
    111 N                    -0.724002
    112 C                     0.316175
    113 C                     0.312758
    114 C                     0.145213
    115 C                    -0.291640
    116 H                     0.206104
    117 C                    -0.227210
    118 H                     0.209942
    119 C                    -0.228978
    120 H                     0.206533
    121 C                    -0.302747
    122 H                     0.245953
    123 C                     0.142122
    124 C                    -0.291198
    125 H                     0.205882
    126 C                    -0.227915
    127 H                     0.210155
    128 C                    -0.230373
    129 H                     0.211599
    130 C                    -0.305603
    131 H                     0.247197
    132 C                    -0.555122
    133 H                     0.236023
    134 H                     0.256825
    135 C                    -0.551665
    136 H                     0.234476
    137 H                     0.251672
    138 C                    -0.209866
    139 C                    -0.647480
    140 H                     0.242899
    141 H                     0.222513
    142 H                     0.218807
    143 C                    -0.645632
    144 H                     0.243406
    145 H                     0.220157
    146 H                     0.220422
    147 C                    -0.595572
    148 H                     0.232795
    149 H                     0.216027
    150 H                     0.215484
    151 C                    -0.599653
    152 H                     0.234366
    153 H                     0.215790
    154 H                     0.215843
  ----------------------------------------
  Sum of atomic charges =    -0.000000

                    Cartesian Multipole Moments
 -----------------------------------------------------------------
    Charge (ESU x 10^10)
                -0.0000
    Dipole Moment (Debye)
         X       0.2385      Y       0.5448      Z      -0.1580
       Tot       0.6153
    Quadrupole Moments (Debye-Ang)
        XX    -481.9210     XY       4.4068     YY    -507.5571
        XZ     -19.7688     YZ     -12.5936     ZZ    -443.8018

 Total job time:  24048.64s(wall), 89401.15s(cpu)
        *  Thank you very much for using Q-Chem.  Have a nice day.  *
