 Q-Chem 5.1, Q-Chem, Inc., Pleasanton, CA (2018)
 Q-Chem 5.1.1 for Intel X86 EM64T Linux

User input:
--------------------------------------------------------------
$rem
threads 8
jobtype	opt
method PBEh-3c
basis def2-mSVP
mem_static	1024
mem_total	10000
sym_ignore	true
cis_n_roots             2
cis_singlets            true
cis_triplets		false
rpa                     false
cis_state_deriv         1
$end

$molecule
read incoords.mol
$end

--------------------------------------------------------------

   15   -3317.7235165638      5.36e-09  Convergence criterion met
 Total energy in the final basis set =    -3317.7235165638
   12   -3317.7640556360      5.50e-09  Convergence criterion met
 Total energy in the final basis set =    -3317.7640556360
   12   -3317.7762273887      6.40e-09  Convergence criterion met
 Total energy in the final basis set =    -3317.7762273887
   11   -3317.7797435640      9.46e-09  Convergence criterion met
 Total energy in the final basis set =    -3317.7797435640
   11   -3317.7809774191      8.16e-09  Convergence criterion met
 Total energy in the final basis set =    -3317.7809774191
   11   -3317.7813405813      8.49e-09  Convergence criterion met
 Total energy in the final basis set =    -3317.7813405813
   11   -3317.7824396042      7.46e-09  Convergence criterion met
 Total energy in the final basis set =    -3317.7824396042
   11   -3317.7835157513      7.28e-09  Convergence criterion met
    9   -3317.7865309763      6.93e-09  Convergence criterion met
 Total energy in the final basis set =    -3317.7865309763
   10   -3317.7865592914      5.62e-09  Convergence criterion met
 Total energy in the final basis set =    -3317.7865592914
    9   -3317.7865721860      5.06e-09  Convergence criterion met
 Total energy in the final basis set =    -3317.7865721860
    9   -3317.7865813428      4.70e-09  Convergence criterion met
 Total energy in the final basis set =    -3317.7865813428
    8   -3317.7865799397      8.41e-09  Convergence criterion met
 Total energy in the final basis set =    -3317.7865799397
    9   -3317.7865865611      3.84e-09  Convergence criterion met
 Total energy in the final basis set =    -3317.7865865611

             Standard Nuclear Orientation (Angstroms)
    I     Atom           X                Y                Z
 ----------------------------------------------------------------
    1      N       0.1038279772    -1.1398569161     0.7159893365
    2      C      -0.6097657887    -0.3543720578     1.6121543966
    3      C       0.0478865259     0.5205288650     2.4818233629
    4      C       1.5576198291     0.6693049770     2.5025231822
    5      C      -0.7242278781     1.2862447902     3.3503792126
    6      H      -0.2277963054     1.9727489650     4.0256763298
    7      C      -2.1043735693     1.2105898837     3.3864430149
    8      H      -2.6684773097     1.8233882261     4.0764350671
    9      C      -2.7435975167     0.3359909511     2.5228687928
   10      H      -3.8227169559     0.2495457000     2.5259893551
   11      C      -2.0087865157    -0.4366581193     1.6470601936
   12      H      -2.5256192061    -1.1123716361     0.9808627587
   13      C       1.4903955443    -1.1074829598     0.6606858198
   14      C       2.1709235291    -1.9312618697    -0.2445959577
   15      H       1.6148202968    -2.5895214197    -0.8967988553
   16      C       3.5489101815    -1.9168245807    -0.3182035469
   17      H       4.0457508724    -2.5649140647    -1.0285704691
   18      C       4.2843855167    -1.0819017806     0.5075220740
   19      H       5.3645434364    -1.0610461290     0.4586489724
   20      C       3.6078309376    -0.2705755299     1.3995702186
   21      H       4.1829145119     0.3837989821     2.0433618787
   22      C       2.2206603280    -0.2597927794     1.5002918658
   23      C      -0.6150700372    -1.9691125331    -0.1907457434
   24      C      -0.9370974562    -3.2690754187     0.1559697377
   25      H      -0.6185536004    -3.6557429710     1.1180058463
   26      C      -1.6757425353    -4.0704559512    -0.7101363118
   27      C      -1.0186404696    -1.4666812342    -1.4161994622
   28      H      -0.7606114814    -0.4474607012    -1.6819231171
   29      C      -1.7618231028    -2.2489892449    -2.2920714546
   30      C      -2.1113767849    -3.5640917344    -1.9429402369
   31      C      -2.1503607101    -1.6683534214    -3.6279800282
   32      H      -2.2148730921    -0.5801770436    -3.5449751205
   33      H      -3.1485241122    -2.0094540732    -3.9125317310
   34      C      -1.1592020618    -2.0320175101    -4.7314038651
   35      C      -2.0487678766    -5.4624444241    -0.2668080912
   36      H      -1.2499691473    -5.8703860588     0.3586152809
   37      H      -2.1248341806    -6.1243850251    -1.1323739357
   38      C      -3.3629557154    -5.4937726856     0.5100882887
   39      H      -4.1921292594    -5.1495381430    -0.1073308296
   40      H      -3.5952019151    -6.5058682735     0.8444870164
   41      H      -3.3147107185    -4.8526540599     1.3914306776
   42      B      -3.0484240977    -4.4081713176    -2.9043323682
   43      C      -4.5673628465    -4.1490823701    -2.8687035029
   44      C      -5.1213296253    -3.2436442387    -1.9426624115
   45      H      -4.4625174546    -2.7253982165    -1.2539649661
   46      C      -6.4776560734    -3.0143294606    -1.8997975131
   47      C      -7.3360657723    -3.6948771941    -2.8114885433
   48      C      -6.8168523404    -4.5697795388    -3.7308440225
   49      H      -7.4820937081    -5.0736977551    -4.4253391522
   50      C      -5.4348622224    -4.8250493828    -3.7831343741
   51      C      -7.3139775509    -2.1636656158    -1.0555673493
   52      C      -7.0971259803    -1.2881948318    -0.0204030086
   53      H      -6.1020445151    -1.0872837632     0.3564980773
   54      C      -8.6441012573    -2.3634529678    -1.4829730347
   55      C      -9.7583899837    -1.7391455012    -0.9276441388
   56      C      -8.7083595206    -3.2838352532    -2.5474895856
   57      C      -9.9384597403    -3.5910618118    -3.0765970260
   58      H     -10.0458673222    -4.2918878688    -3.8958106880
   59      C      -8.2088854085    -0.6371576954     0.5613412728
   60      H      -8.0316485159     0.0523415503     1.3768874137
   61      C      -9.5014848748    -0.8433858428     0.1370129701
   62      H     -10.3198544342    -0.3208666267     0.6171005947
   63      C     -11.0136440007    -2.0744570361    -1.4913348394
   64      H     -11.9194876206    -1.6246861565    -1.1032522635
   65      C     -11.0844648580    -2.9725282392    -2.5316531627
   66      H     -12.0544721769    -3.2152836423    -2.9479835844
   67      C      -2.4859098602    -5.4477313339    -3.8892036895
   68      C      -1.1107721984    -5.7534854088    -3.9125724401
   69      H      -0.4473453630    -5.2401866449    -3.2238332456
   70      C      -0.6069716204    -6.6909767945    -4.7868065669
   71      C      -1.4879494066    -7.3542203407    -5.6905368551
   72      C      -2.8273015024    -7.0591880027    -5.6969815439
   73      H      -3.4850124673    -7.5678751746    -6.3951179448
   74      C      -3.3629165286    -6.1143309772    -4.8037982675
   75      C       0.7365332182    -7.2198663533    -5.0134601627
   76      C       1.9811618437    -7.0048418319    -4.4757340822
   77      H       2.1433011258    -6.2831157227    -3.6852742375
   78      C       0.6179012898    -8.1836682796    -6.0379862014
   79      C       1.6711986766    -8.9404211591    -6.5434540850
   80      C      -0.7145415562    -8.2998911980    -6.4798218452
   81      C      -1.0061085125    -9.2093797790    -7.4668413317
   82      H      -2.0156458753    -9.3437258335    -7.8363680212
   83      C       3.0714840505    -7.7546531362    -4.9723010577
   84      H       4.0506247646    -7.5813647549    -4.5443289644
   85      C       2.9409100649    -8.6939489344    -5.9696088372
   86      H       3.8084034224    -9.2446399535    -6.3119563820
   87      C       1.3445682111    -9.8684818163    -7.5622502259
   88      H       2.1182115329   -10.4892387142    -7.9974871710
   89      C       0.0444016818    -9.9875771488    -7.9982813433
   90      H      -0.1829442013   -10.7072765210    -8.7750371680
   91      B      -4.8579001183    -5.8037538615    -4.8035843794
   92      C      -5.8183920113    -6.4700411892    -5.8904540718
   93      C      -6.1781608945    -5.7448542059    -7.0390301527
   94      C      -7.0335706280    -6.3008682675    -7.9843536147
   95      H      -7.3226714020    -5.7358848140    -8.8637707584
   96      C      -7.5163771325    -7.5780096069    -7.7885710951
   97      C      -7.1740834648    -8.3216306153    -6.6791244520
   98      H      -7.5718631378    -9.3221175996    -6.5476773077
   99      C      -6.3263408743    -7.7677414810    -5.7241350068
  100      N      -8.4350605092    -8.1356049716    -8.7523481938
  101      C      -9.7783011714    -7.9838850860    -8.5289078213
  102      C     -10.7173715303    -8.5052724585    -9.4439965003
  103      C     -10.3047399867    -9.2268361850   -10.7024282082
  104      C     -12.0618635886    -8.3267353390    -9.1644308440
  105      H     -12.8043122396    -8.7157183599    -9.8478680376
  106      C     -12.4907676358    -7.6573193141    -8.0311082645
  107      H     -13.5487039038    -7.5363752563    -7.8460194944
  108      C     -11.5568322907    -7.1393032641    -7.1362590315
  109      H     -11.8820408788    -6.6120000328    -6.2515404259
  110      C     -10.2165118846    -7.2958730561    -7.3761948014
  111      H      -9.4964895596    -6.8919274998    -6.6825564075
  112      C      -7.9339427041    -8.7863885476    -9.8485263525
  113      C      -8.8044571696    -9.3281446686   -10.8187458187
  114      C      -8.2391939715    -9.9672310808   -11.9092120313
  115      H      -8.8801651422   -10.3906491987   -12.6707382208
  116      C      -6.8673028650   -10.0832865753   -12.0585168281
  117      H      -6.4619958051   -10.5881296101   -12.9239607122
  118      C      -6.0156780356    -9.5505562860   -11.0929169593
  119      H      -4.9445915231    -9.6386124262   -11.2006153930
  120      C      -6.5359937097    -8.9096042486    -9.9987081524
  121      H      -5.8767000117    -8.4965576816    -9.2516029163
  122      C      -6.0312892246    -8.5758576041    -4.4895469424
  123      H      -5.9629627714    -9.6352188876    -4.7521091195
  124      H      -5.0594146969    -8.2952293648    -4.0837867176
  125      C      -7.1075446826    -8.3812058458    -3.4234789835
  126      C      -5.6171289664    -4.3763595895    -7.3143593020
  127      H      -6.3539952772    -3.7805071844    -7.8599493305
  128      H      -5.4333305075    -3.8544817316    -6.3752958482
  129      C      -4.3227516677    -4.4545094862    -8.1208193810
  130      H      -3.5621113854    -5.0180894319    -7.5823355359
  131      H      -4.4828039079    -4.9399161215    -9.0854616957
  132      H      -3.9247347131    -3.4579058629    -8.3108848115
  133      H      -7.1614989055    -7.3391844927    -3.1100864813
  134      H      -6.8915167753    -8.9819960858    -2.5401897908
  135      H      -8.0920528187    -8.6741990305    -3.7934433654
  136      H      -1.4520508172    -1.5829190936    -5.6817242211
  137      H      -1.1105959399    -3.1108007649    -4.8759732211
  138      H      -0.1550846196    -1.6812547181    -4.4899218886
  139      C     -10.8483012395    -8.4498684793   -11.9206300763
  140      C     -10.9040367961   -10.6481862014   -10.6860582212
  141      C       2.0685740175     0.3303050651     3.9128793896
  142      C       1.9151052613     2.1213318481     2.1460766394
  143      H       1.5476984671     2.3727681597     1.1511497510
  144      H       2.9942513963     2.2784270518     2.1552189979
  145      H       1.4740912111     2.8244169568     2.8536434052
  146      H       1.8211656060    -0.6988258448     4.1732414852
  147      H       1.6227580140     0.9818104995     4.6651477097
  148      H       3.1506287532     0.4437336766     3.9854290243
  149      H     -10.4353099201    -7.4429948136   -11.9655425972
  150      H     -11.9336174947    -8.3676573619   -11.8768154882
  151      H     -10.5981601060    -8.9596962490   -12.8500946861
  152      H     -10.5365233957   -11.2234516051    -9.8374478004
  153      H     -10.6502254499   -11.1900629224   -11.5961231303
  154      H     -11.9908479411   -10.6127860963   -10.6243225604
 ----------------------------------------------------------------

    7   -3317.7865864218      7.43e-09  Convergence criterion met
 Total energy in the final basis set =    -3317.7865864218

         TDDFT/TDA Excitation Energies
 ---------------------------------------------------

 Excited state   1: excitation energy (eV) =    2.2886
 Total energy for state  1:                 -3317.70248264 au
    Multiplicity: Singlet
    Trans. Mom.:  0.0208 X   0.0127 Y   0.0212 Z
    Strength   :     0.0000585867
    D(292) --> V(  1) amplitude =  0.9985

 Excited state   2: excitation energy (eV) =    2.4395
 Total energy for state  2:                 -3317.69693803 au
    Multiplicity: Singlet
    Trans. Mom.: -0.0006 X   0.0058 Y   0.0051 Z
    Strength   :     0.0000035672
    D(291) --> V(  1) amplitude =  0.9984

 ---------------------------------------------------

 Final energy is   -3317.70248264449
 **  OPTIMIZATION CONVERGED  **

                    Orbital Energies (a.u.)
 --------------------------------------------------------------

 Alpha MOs
 -- Occupied --
-14.673 -14.672 -10.489 -10.488 -10.488 -10.488 -10.486 -10.485
-10.471 -10.471 -10.471 -10.470 -10.470 -10.470 -10.470 -10.469
-10.469 -10.468 -10.468 -10.468 -10.468 -10.467 -10.467 -10.467
-10.466 -10.466 -10.465 -10.465 -10.465 -10.464 -10.464 -10.463
-10.462 -10.461 -10.460 -10.460 -10.458 -10.458 -10.458 -10.458
-10.453 -10.452 -10.447 -10.446 -10.445 -10.445 -10.445 -10.445
-10.445 -10.444 -10.443 -10.442 -10.441 -10.441 -10.441 -10.440
-10.440 -10.440 -10.440 -10.440 -10.439 -10.439 -10.439 -10.438
-10.438 -10.438 -10.436 -10.436 -10.435 -10.435 -10.435 -10.434
-10.433 -10.432 -10.431 -10.431 -10.426 -10.425 -10.424 -10.424
-10.422 -10.422 -10.422 -10.422  -6.956  -6.953  -1.090  -1.086
 -1.021  -1.020  -0.972  -0.971  -0.966  -0.964  -0.955  -0.952
 -0.950  -0.949  -0.939  -0.938  -0.914  -0.905  -0.905  -0.904
 -0.897  -0.895  -0.873  -0.870  -0.862  -0.861  -0.853  -0.852
 -0.847  -0.846  -0.832  -0.831  -0.831  -0.826  -0.822  -0.818
 -0.817  -0.812  -0.812  -0.809  -0.808  -0.807  -0.788  -0.785
 -0.766  -0.765  -0.741  -0.738  -0.733  -0.726  -0.721  -0.720
 -0.720  -0.718  -0.710  -0.709  -0.707  -0.705  -0.695  -0.693
 -0.687  -0.685  -0.677  -0.673  -0.666  -0.664  -0.654  -0.652
 -0.638  -0.637  -0.637  -0.635  -0.613  -0.612  -0.612  -0.612
 -0.603  -0.600  -0.598  -0.595  -0.589  -0.586  -0.585  -0.582
 -0.582  -0.563  -0.562  -0.556  -0.550  -0.549  -0.534  -0.533
 -0.533  -0.532  -0.531  -0.527  -0.523  -0.521  -0.519  -0.518
 -0.515  -0.514  -0.510  -0.507  -0.506  -0.505  -0.503  -0.498
 -0.497  -0.497  -0.496  -0.495  -0.495  -0.490  -0.490  -0.489
 -0.489  -0.488  -0.488  -0.488  -0.484  -0.480  -0.479  -0.476
 -0.475  -0.475  -0.475  -0.473  -0.472  -0.472  -0.464  -0.462
 -0.460  -0.458  -0.449  -0.449  -0.448  -0.447  -0.445  -0.444
 -0.440  -0.440  -0.437  -0.435  -0.434  -0.433  -0.431  -0.431
 -0.429  -0.424  -0.424  -0.424  -0.420  -0.419  -0.412  -0.411
 -0.409  -0.408  -0.406  -0.405  -0.404  -0.402  -0.400  -0.399
 -0.399  -0.399  -0.398  -0.397  -0.397  -0.393  -0.392  -0.392
 -0.390  -0.388  -0.386  -0.379  -0.378  -0.373  -0.370  -0.369
 -0.368  -0.365  -0.363  -0.362  -0.358  -0.357  -0.354  -0.343
 -0.326  -0.320  -0.301  -0.299  -0.295  -0.294  -0.288  -0.285
 -0.283  -0.283  -0.282  -0.280  -0.279  -0.279  -0.278  -0.267
 -0.261  -0.260  -0.218  -0.212

          Ground-State Mulliken Net Atomic Charges

     Atom                 Charge (a.u.)
  ----------------------------------------
      1 N                    -0.723656
      2 C                     0.312787
      3 C                     0.144411
      4 C                    -0.209209
      5 C                    -0.291088
      6 H                     0.206250
      7 C                    -0.227630
      8 H                     0.209905
      9 C                    -0.228838
     10 H                     0.206131
     11 C                    -0.303071
     12 H                     0.246008
     13 C                     0.316344
     14 C                    -0.306220
     15 H                     0.247223
     16 C                    -0.230136
     17 H                     0.211092
     18 C                    -0.228505
     19 H                     0.210125
     20 C                    -0.290420
     21 H                     0.205909
     22 C                     0.141341
     23 C                     0.187726
     24 C                    -0.291629
     25 H                     0.225344
     26 C                     0.060940
     27 C                    -0.291575
     28 H                     0.224336
     29 C                     0.059142
     30 C                    -0.214433
     31 C                    -0.551898
     32 H                     0.235078
     33 H                     0.255327
     34 C                    -0.646863
     35 C                    -0.550133
     36 H                     0.233931
     37 H                     0.251183
     38 C                    -0.648163
     39 H                     0.243606
     40 H                     0.222368
     41 H                     0.219006
     42 B                     0.656171
     43 C                    -0.150922
     44 C                    -0.392663
     45 H                     0.234620
     46 C                     0.115427
     47 C                     0.095892
     48 C                    -0.388876
     49 H                     0.231050
     50 C                    -0.144798
     51 C                     0.197021
     52 C                    -0.381624
     53 H                     0.218769
     54 C                    -0.067495
     55 C                     0.251981
     56 C                     0.198835
     57 C                    -0.375125
     58 H                     0.217812
     59 C                    -0.202471
     60 H                     0.227862
     61 C                    -0.333912
     62 H                     0.223322
     63 C                    -0.330830
     64 H                     0.223079
     65 C                    -0.204275
     66 H                     0.228836
     67 C                    -0.147560
     68 C                    -0.398709
     69 H                     0.230274
     70 C                     0.115945
     71 C                     0.095175
     72 C                    -0.388455
     73 H                     0.230494
     74 C                    -0.142606
     75 C                     0.196571
     76 C                    -0.381936
     77 H                     0.219657
     78 C                    -0.066639
     79 C                     0.252737
     80 C                     0.198020
     81 C                    -0.374080
     82 H                     0.219699
     83 C                    -0.202780
     84 H                     0.228585
     85 C                    -0.334488
     86 H                     0.223435
     87 C                    -0.330632
     88 H                     0.223150
     89 C                    -0.205437
     90 H                     0.229457
     91 B                     0.645151
     92 C                    -0.217821
     93 C                     0.049378
     94 C                    -0.276757
     95 H                     0.228254
     96 C                     0.162725
     97 C                    -0.275050
     98 H                     0.228544
     99 C                     0.052326
    100 N                    -0.706440
    101 C                     0.304752
    102 C                     0.141732
    103 C                    -0.210107
    104 C                    -0.289891
    105 H                     0.206344
    106 C                    -0.234119
    107 H                     0.207629
    108 C                    -0.226415
    109 H                     0.206967
    110 C                    -0.298799
    111 H                     0.248331
    112 C                     0.309508
    113 C                     0.140830
    114 C                    -0.290206
    115 H                     0.206219
    116 C                    -0.234372
    117 H                     0.207921
    118 C                    -0.227597
    119 H                     0.210259
    120 C                    -0.303442
    121 H                     0.248162
    122 C                    -0.547528
    123 H                     0.233680
    124 H                     0.253259
    125 C                    -0.646103
    126 C                    -0.552507
    127 H                     0.235268
    128 H                     0.257471
    129 C                    -0.645873
    130 H                     0.242455
    131 H                     0.219696
    132 H                     0.221079
    133 H                     0.239415
    134 H                     0.222824
    135 H                     0.219578
    136 H                     0.220659
    137 H                     0.243973
    138 H                     0.219948
    139 C                    -0.596164
    140 C                    -0.598052
    141 C                    -0.598850
    142 C                    -0.595605
    143 H                     0.232832
    144 H                     0.215904
    145 H                     0.215210
    146 H                     0.234062
    147 H                     0.215656
    148 H                     0.215710
    149 H                     0.233688
    150 H                     0.215334
    151 H                     0.214893
    152 H                     0.234025
    153 H                     0.215201
    154 H                     0.215234
  ----------------------------------------
  Sum of atomic charges =    -0.000000

                    Cartesian Multipole Moments
 -----------------------------------------------------------------
    Charge (ESU x 10^10)
                -0.0000
    Dipole Moment (Debye)
         X       0.3641      Y      -0.4393      Z       0.3651
       Tot       0.6774
    Quadrupole Moments (Debye-Ang)
        XX    -457.2317     XY     -24.8954     YY    -482.9979
        XZ     -21.0857     YZ      19.9614     ZZ    -495.5655

 Total job time:  144723.08s(wall), 1001677.65s(cpu)
        *  Thank you very much for using Q-Chem.  Have a nice day.  *
