 Q-Chem 5.1, Q-Chem, Inc., Pleasanton, CA (2018)
 Q-Chem 5.1.1 for Intel X86 EM64T Linux

User input:
--------------------------------------------------------------
$rem
threads 8
jobtype	sp
method PBEh-3c
basis def2-mSVP
mem_static	1024
mem_total	10000
sym_ignore	true
cis_n_roots             6
cis_singlets            true
cis_triplets		true
rpa                     false
calc_soc 		true
cis_moments             true
cis_relaxed_density	true
$end

$molecule
read t1opt.mol
$end

--------------------------------------------------------------

             Standard Nuclear Orientation (Angstroms)
    I     Atom           X                Y                Z
 ----------------------------------------------------------------
    1      N       0.0000000000     0.0000000000     0.0000000000
    2      C       0.0000000000     0.0000000000     1.3879270000
    3      C       1.1813484940     0.0000000000    -0.7287288883
    4      C       2.4224778110     0.0181085626    -0.0829345500
    5      C       3.5731475085     0.0189381778    -0.8647014604
    6      H       4.5384717058     0.0346343406    -0.3733585230
    7      C       3.5373275108     0.0031636254    -2.2461911307
    8      H       4.4550518572     0.0050312223    -2.8185095793
    9      C       2.3029660426    -0.0144456487    -2.8746687965
   10      H       2.2366604612    -0.0277955134    -3.9549495247
   11      C       1.1410191155    -0.0159026355    -2.1294481795
   12      H       0.1896135827    -0.0297816577    -2.6409470759
   13      C       1.2010336410     0.0188020524     2.1061610101
   14      C       1.1373385893     0.0205279236     3.4957749260
   15      H       2.0608780907     0.0372031715     4.0621549323
   16      C      -0.0591559277     0.0036775920     4.1878753019
   17      H      -0.0662322179     0.0069586055     5.2694311766
   18      C      -1.2412853819    -0.0161939162     3.4658197932
   19      H      -2.1961155759    -0.0293596263     3.9751731197
   20      C      -1.2143130310    -0.0182036120     2.0856757932
   21      H      -2.1467291947    -0.0317422576     1.5400743244
   22      C      -1.2370227737     0.0029759232    -0.7048636118
   23      C      -1.8133934295    -1.1900474250    -1.1000002812
   24      H      -1.3227757347    -2.1231793316    -0.8442744035
   25      C      -1.8490069051     1.2008674567    -1.0268565936
   26      H      -1.3873775897     2.1308093041    -0.7129394752
   27      C      -3.0375140888     1.2153728358    -1.7473896686
   28      C      -2.9948069609    -1.1955343055    -1.8343930550
   29      C      -3.6254225993     0.0119579164    -2.1715001389
   30      C      -3.6954422322     2.5449728733    -2.0056022356
   31      H      -4.2672145655     2.5101647055    -2.9350108222
   32      H      -2.9278994182     3.3106820549    -2.1474607573
   33      C      -3.5286279452    -2.5212168004    -2.3099539717
   34      H      -4.6091648016    -2.4657456471    -2.4545567017
   35      H      -3.3613976545    -3.2790401639    -1.5395249029
   36      C       2.5613070169     0.0467144663     1.4298303129
   37      C      -4.6132107975     2.9531728361    -0.8557388595
   38      H      -5.4109307306     2.2237795051    -0.7165912205
   39      H      -5.0761953191     3.9224551843    -1.0463223217
   40      H      -4.0605896710     3.0245216055     0.0823727379
   41      C      -2.8612322920    -2.9651890706    -3.6098356529
   42      H      -3.0572101586    -2.2531719599    -4.4117010434
   43      H      -3.2324839221    -3.9393365023    -3.9309776579
   44      H      -1.7794363959    -3.0420187524    -3.4895394652
   45      C       3.3771581023    -1.1761205226     1.8834796188
   46      H       2.8766372819    -2.1024033872     1.6029084188
   47      H       4.3696101094    -1.1810173820     1.4313330919
   48      H       3.5164077026    -1.1849837628     2.9651915795
   49      C       3.2989120401     1.3336116871     1.8410334176
   50      H       2.7385860620     2.2168408204     1.5351372871
   51      H       3.4383293485     1.3829653102     2.9218526476
   52      H       4.2873818044     1.3887398499     1.3826338812
   53      B      -4.9603052787     0.0424023967    -3.0285515279
   54      C      -6.3278811766    -0.1745822096    -2.3679720967
   55      C      -6.4024708124    -0.4831885844    -1.0013348791
   56      H      -5.4853461709    -0.5531153782    -0.4252770014
   57      C      -7.6138136841    -0.7086411308    -0.3958100841
   58      C      -8.8242652848    -0.6164559458    -1.1430672529
   59      C      -8.7718557003    -0.2945666182    -2.4795734317
   60      H      -9.6932133165    -0.2167634638    -3.0487126223
   61      C      -7.5367796946    -0.0742263873    -3.1282869929
   62      C      -7.9409444321    -1.0762057523     0.9712624479
   63      C      -7.2130984069    -1.3207166062     2.1100905237
   64      H      -6.1327629934    -1.2437880845     2.1239823345
   65      C      -9.3431235922    -1.2010167736     1.0215789538
   66      C     -10.0478686537    -1.5663121818     2.1650200062
   67      C      -9.9275774649    -0.9316148954    -0.2346526073
   68      C     -11.2921043792    -1.0336694717    -0.3411492461
   69      H     -11.8052437478    -0.8498535954    -1.2768323214
   70      C      -7.9052370643    -1.6871923334     3.2844301251
   71      H      -7.3330288727    -1.8814343646     4.1829260885
   72      C      -9.2754198105    -1.8107371373     3.3271049644
   73      H      -9.7622481059    -2.0989232806     4.2507368672
   74      C     -12.0365696803    -1.3981351848     0.8035140755
   75      H     -13.1125624268    -1.4795990515     0.7142011625
   76      C     -11.4522555592    -1.6589868694     2.0219072246
   77      H     -12.0671059611    -1.9394807762     2.8683502210
   78      B      -7.4593159639     0.2708108285    -4.6188094210
   79      C      -6.0999328059     0.4307464916    -5.3093509699
   80      C      -5.9978990798     0.6958270343    -6.6924758236
   81      H      -6.9024930854     0.7907038507    -7.2849456504
   82      C      -4.7719152686     0.8303851863    -7.3004625028
   83      C      -3.5846364543     0.7080521872    -6.5212612705
   84      C      -3.6592678395     0.4635642149    -5.1729563332
   85      H      -2.7502187905     0.3830500510    -4.5857874742
   86      C      -4.9011583745     0.3152824282    -4.5371563233
   87      C      -2.4363513696     0.8794677940    -7.3976675411
   88      C      -1.0726059463     0.8635438240    -7.2299679897
   89      H      -0.6190083939     0.6981045258    -6.2603013804
   90      C      -2.9560224391     1.1021370830    -8.6877910017
   91      C      -2.1668847273     1.3083507582    -9.8168105517
   92      C      -4.3673954690     1.0850744610    -8.6837322090
   93      C      -5.0123372177     1.2911428745    -9.8780149684
   94      H      -6.0931559651     1.2938642317    -9.9469612061
   95      C      -0.2508573759     1.0699187942    -8.3594227434
   96      H       0.8237289634     1.0564583078    -8.2265068736
   97      C      -0.7644778869     1.2856779713    -9.6177147058
   98      H      -0.0951659369     1.4379575586   -10.4556678744
   99      C      -4.2390283347     1.5056792422   -11.0415039687
  100      H      -4.7529411794     1.6683165615   -11.9806169440
  101      C      -2.8630541345     1.5158955362   -11.0305156631
  102      H      -2.3142697005     1.6832918458   -11.9493282221
  103      C      -8.7840123927     0.5155222716    -5.4732304479
  104      C      -9.5228625672    -0.5534450960    -6.0020842149
  105      C     -10.6474317177    -0.3131512365    -6.7867932305
  106      H     -11.2122038465    -1.1407652045    -7.2018645583
  107      C     -11.0336010338     0.9887129818    -7.0334165010
  108      C     -10.3334294170     2.0613162087    -6.5170320099
  109      H     -10.6542221625     3.0758418703    -6.7258826612
  110      C      -9.2070259569     1.8297255227    -5.7352486180
  111      N     -12.1892125903     1.2418014165    -7.8577747252
  112      C     -13.3837693060     1.5206969353    -7.2467270485
  113      C     -12.0402317032     1.2134103354    -9.2208493710
  114      C     -13.1365582314     1.4807036449   -10.0657548347
  115      C     -12.9233896825     1.4296156346   -11.4335197498
  116      H     -13.7427412375     1.6333785468   -12.1091711257
  117      C     -11.6809630727     1.1328493819   -11.9694159022
  118      H     -11.5517959305     1.1022716476   -13.0420057434
  119      C     -10.5997394273     0.8867532606   -11.1258129913
  120      H      -9.6245391295     0.6672608285   -11.5353143242
  121      C     -10.7689201242     0.9305795779    -9.7667435989
  122      H      -9.9285138391     0.7524554469    -9.1145088449
  123      C     -14.5228344904     1.8323192740    -8.0174346268
  124      C     -15.6943029524     2.1315523508    -7.3427108210
  125      H     -16.5836236708     2.3823599018    -7.9046071817
  126      C     -15.7649754287     2.1189962772    -5.9593107399
  127      H     -16.6965573304     2.3594466971    -5.4670853559
  128      C     -14.6391293250     1.7891686428    -5.2074125053
  129      H     -14.6889996936     1.7653655161    -4.1286559309
  130      C     -13.4595646061     1.4900160059    -5.8372890812
  131      H     -12.5884580592     1.2306559240    -5.2562455292
  132      C      -9.0905301933    -1.9793027508    -5.7813846050
  133      H      -8.6404953409    -2.0795221802    -4.7930944367
  134      H      -9.9667517077    -2.6334363864    -5.7887663270
  135      C      -8.4842989398     3.0156062427    -5.1512808436
  136      H      -7.4089709888     2.8344099457    -5.1554093746
  137      H      -8.6497914972     3.8911699709    -5.7848381919
  138      C     -14.4949110475     1.8455223121    -9.5250592153
  139      C      -8.0950710829    -2.4470414770    -6.8410512191
  140      H      -7.1874075643    -1.8456694152    -6.8188824309
  141      H      -7.8087775232    -3.4844350332    -6.6684744154
  142      H      -8.5204768692    -2.3805723299    -7.8439604118
  143      C      -8.9407608472     3.3246436608    -3.7266697202
  144      H      -8.7435671313     2.4866984082    -3.0598355731
  145      H      -8.4079618639     4.1907036191    -3.3339640893
  146      H     -10.0091002529     3.5437226176    -3.6889765097
  147      C     -15.5290106597     0.8299294060   -10.0481657107
  148      H     -15.5580918267     0.8270287513   -11.1367464687
  149      H     -16.5303481596     1.0755834632    -9.6976624185
  150      H     -15.2907431302    -0.1788806169    -9.7131588516
  151      C     -14.8449113975     3.2660360737   -10.0139692670
  152      H     -14.8562090878     3.3108187682   -11.1020224585
  153      H     -15.8305445474     3.5688846601    -9.6632913859
  154      H     -14.1184754252     3.9938858312    -9.6542977170
 ----------------------------------------------------------------

   15   -3317.7857039613      6.02e-09  Convergence criterion met
 Total energy in the final basis set =    -3317.7857039613

         TDDFT/TDA Excitation Energies
 ---------------------------------------------------

 Excited state   1: excitation energy (eV) =    2.1624
 Total energy for state  1:                 -3317.70623746 au
    Multiplicity: Triplet
    Trans. Mom.:  0.0000 X   0.0000 Y   0.0000 Z
    Strength   :     0.0000000000
    D(289) --> V(  1) amplitude =  0.7512
    D(290) --> V(  1) amplitude = -0.5374

 Excited state   2: excitation energy (eV) =    2.2703
 Total energy for state  2:                 -3317.70227017 au
    Multiplicity: Triplet
    Trans. Mom.:  0.0000 X   0.0000 Y   0.0000 Z
    Strength   :     0.0000000000
    D(292) --> V(  1) amplitude =  0.9972

 Excited state   3: excitation energy (eV) =    2.2714
 Total energy for state  3:                 -3317.70223219 au
    Multiplicity: Singlet
    Trans. Mom.: -0.0840 X   0.0188 Y  -0.0616 Z
    Strength   :     0.0006227893
    D(292) --> V(  1) amplitude =  0.9977

 Excited state   4: excitation energy (eV) =    2.3997
 Total energy for state  4:                 -3317.69751629 au
    Multiplicity: Triplet
    Trans. Mom.:  0.0000 X   0.0000 Y   0.0000 Z
    Strength   :     0.0000000000
    D(288) --> V(  2) amplitude =  0.4610
    D(289) --> V(  1) amplitude =  0.4833
    D(290) --> V(  1) amplitude =  0.6550

 Excited state   5: excitation energy (eV) =    2.4534
 Total energy for state  5:                 -3317.69554492 au
    Multiplicity: Triplet
    Trans. Mom.:  0.0000 X   0.0000 Y   0.0000 Z
    Strength   :     0.0000000000
    D(291) --> V(  1) amplitude =  0.9780

 Excited state   6: excitation energy (eV) =    2.4541
 Total energy for state  6:                 -3317.69551667 au
    Multiplicity: Singlet
    Trans. Mom.: -0.0028 X   0.0007 Y  -0.0032 Z
    Strength   :     0.0000010887
    D(291) --> V(  1) amplitude =  0.9985

 Excited state   7: excitation energy (eV) =    2.4624
 Total energy for state  7:                 -3317.69521371 au
    Multiplicity: Triplet
    Trans. Mom.:  0.0000 X   0.0000 Y   0.0000 Z
    Strength   :     0.0000000000
    D(288) --> V(  1) amplitude =  0.7310
    D(288) --> V(  4) amplitude =  0.2269
    D(289) --> V(  2) amplitude =  0.2328
    D(290) --> V(  2) amplitude =  0.4749

 Excited state   8: excitation energy (eV) =    2.6810
 Total energy for state  8:                 -3317.68717913 au
    Multiplicity: Triplet
    Trans. Mom.:  0.0000 X   0.0000 Y   0.0000 Z
    Strength   :     0.0000000000
    D(279) --> V(  1) amplitude =  0.5143
    D(281) --> V(  1) amplitude =  0.4236
    D(283) --> V(  1) amplitude =  0.2649
    D(289) --> V(  2) amplitude =  0.4964
    D(290) --> V(  2) amplitude = -0.2386

 Excited state   9: excitation energy (eV) =    2.8237
 Total energy for state  9:                 -3317.68193347 au
    Multiplicity: Singlet
    Trans. Mom.: -0.1167 X  -0.0431 Y   0.1803 Z
    Strength   :     0.0033182257
    D(289) --> V(  1) amplitude =  0.8083
    D(290) --> V(  1) amplitude = -0.5332

 Excited state  10: excitation energy (eV) =    3.1531
 Total energy for state 10:                 -3317.66982976 au
    Multiplicity: Singlet
    Trans. Mom.:  1.8243 X   0.6918 Y  -2.7874 Z
    Strength   :     0.8942526581
    D(289) --> V(  1) amplitude =  0.5243
    D(290) --> V(  1) amplitude =  0.7955

 Excited state  11: excitation energy (eV) =    3.3702
 Total energy for state 11:                 -3317.66185208 au
    Multiplicity: Singlet
    Trans. Mom.: -0.0028 X   0.0015 Y  -0.0191 Z
    Strength   :     0.0000308492
    D(292) --> V(  2) amplitude =  0.9982

 Excited state  12: excitation energy (eV) =    3.5465
 Total energy for state 12:                 -3317.65537240 au
    Multiplicity: Singlet
    Trans. Mom.: -0.0011 X   0.0013 Y   0.0028 Z
    Strength   :     0.0000009342
    D(291) --> V(  2) amplitude =  0.9980

 ---------------------------------------------------

                    Orbital Energies (a.u.)
 --------------------------------------------------------------

 Alpha MOs
 -- Occupied --
-14.674 -14.672 -10.489 -10.489 -10.487 -10.487 -10.485 -10.485
-10.471 -10.471 -10.470 -10.470 -10.470 -10.470 -10.470 -10.469
-10.469 -10.468 -10.468 -10.468 -10.467 -10.467 -10.467 -10.467
-10.465 -10.465 -10.465 -10.465 -10.464 -10.464 -10.464 -10.463
-10.463 -10.462 -10.459 -10.459 -10.459 -10.458 -10.458 -10.457
-10.453 -10.452 -10.447 -10.447 -10.445 -10.445 -10.445 -10.444
-10.444 -10.444 -10.443 -10.442 -10.441 -10.441 -10.441 -10.441
-10.440 -10.440 -10.440 -10.440 -10.440 -10.439 -10.438 -10.438
-10.438 -10.438 -10.436 -10.436 -10.436 -10.434 -10.434 -10.434
-10.433 -10.433 -10.431 -10.430 -10.426 -10.425 -10.425 -10.423
-10.423 -10.423 -10.422 -10.421  -6.954  -6.954  -1.089  -1.086
 -1.021  -1.020  -0.973  -0.971  -0.966  -0.964  -0.955  -0.952
 -0.950  -0.949  -0.939  -0.938  -0.914  -0.905  -0.905  -0.904
 -0.897  -0.895  -0.873  -0.870  -0.862  -0.861  -0.852  -0.852
 -0.847  -0.845  -0.832  -0.831  -0.831  -0.826  -0.822  -0.818
 -0.817  -0.812  -0.812  -0.809  -0.808  -0.807  -0.789  -0.784
 -0.766  -0.766  -0.741  -0.737  -0.733  -0.726  -0.721  -0.720
 -0.719  -0.718  -0.710  -0.709  -0.706  -0.705  -0.695  -0.693
 -0.687  -0.685  -0.677  -0.673  -0.666  -0.664  -0.654  -0.652
 -0.638  -0.637  -0.637  -0.635  -0.613  -0.612  -0.612  -0.611
 -0.602  -0.600  -0.598  -0.595  -0.589  -0.587  -0.584  -0.582
 -0.582  -0.563  -0.562  -0.556  -0.550  -0.549  -0.534  -0.534
 -0.533  -0.532  -0.531  -0.527  -0.523  -0.521  -0.519  -0.518
 -0.515  -0.514  -0.510  -0.507  -0.505  -0.505  -0.503  -0.498
 -0.497  -0.497  -0.496  -0.495  -0.495  -0.490  -0.490  -0.489
 -0.489  -0.488  -0.488  -0.488  -0.483  -0.480  -0.479  -0.476
 -0.475  -0.475  -0.475  -0.473  -0.472  -0.472  -0.464  -0.462
 -0.460  -0.458  -0.449  -0.448  -0.448  -0.447  -0.444  -0.444
 -0.441  -0.439  -0.437  -0.435  -0.434  -0.433  -0.431  -0.430
 -0.429  -0.424  -0.424  -0.424  -0.421  -0.418  -0.412  -0.412
 -0.409  -0.408  -0.406  -0.405  -0.404  -0.402  -0.400  -0.399
 -0.399  -0.399  -0.398  -0.397  -0.397  -0.393  -0.392  -0.391
 -0.390  -0.388  -0.385  -0.379  -0.378  -0.373  -0.370  -0.369
 -0.368  -0.365  -0.363  -0.362  -0.358  -0.357  -0.354  -0.343
 -0.325  -0.320  -0.300  -0.299  -0.296  -0.294  -0.288  -0.285
 -0.283  -0.283  -0.282  -0.279  -0.279  -0.279  -0.278  -0.267
 -0.261  -0.259  -0.218  -0.212

          Ground-State Mulliken Net Atomic Charges

     Atom                 Charge (a.u.)
  ----------------------------------------
      1 N                    -0.722821
      2 C                     0.317676
      3 C                     0.313522
      4 C                     0.142587
      5 C                    -0.290220
      6 H                     0.206052
      7 C                    -0.228167
      8 H                     0.210094
      9 C                    -0.228577
     10 H                     0.207317
     11 C                    -0.302696
     12 H                     0.245698
     13 C                     0.141612
     14 C                    -0.290530
     15 H                     0.206013
     16 C                    -0.228348
     17 H                     0.210311
     18 C                    -0.229759
     19 H                     0.210703
     20 C                    -0.306869
     21 H                     0.245511
     22 C                     0.189552
     23 C                    -0.287589
     24 H                     0.225630
     25 C                    -0.289859
     26 H                     0.224948
     27 C                     0.057308
     28 C                     0.059862
     29 C                    -0.223984
     30 C                    -0.552182
     31 H                     0.256670
     32 H                     0.235544
     33 C                    -0.548311
     34 H                     0.253158
     35 H                     0.234137
     36 C                    -0.211662
     37 C                    -0.644793
     38 H                     0.240550
     39 H                     0.221166
     40 H                     0.219786
     41 C                    -0.645280
     42 H                     0.238231
     43 H                     0.222729
     44 H                     0.219553
     45 C                    -0.597960
     46 H                     0.233977
     47 H                     0.215368
     48 H                     0.215503
     49 C                    -0.595309
     50 H                     0.233190
     51 H                     0.215348
     52 H                     0.215407
     53 B                     0.655241
     54 C                    -0.145794
     55 C                    -0.388443
     56 H                     0.230914
     57 C                     0.092256
     58 C                     0.118631
     59 C                    -0.396973
     60 H                     0.229329
     61 C                    -0.144659
     62 C                     0.195112
     63 C                    -0.372708
     64 H                     0.219435
     65 C                    -0.066290
     66 C                     0.252675
     67 C                     0.199136
     68 C                    -0.383785
     69 H                     0.220405
     70 C                    -0.206021
     71 H                     0.229026
     72 C                    -0.329958
     73 H                     0.223071
     74 C                    -0.202272
     75 H                     0.229104
     76 C                    -0.335300
     77 H                     0.223346
     78 B                     0.643813
     79 C                    -0.145751
     80 C                    -0.394967
     81 H                     0.232806
     82 C                     0.119254
     83 C                     0.091504
     84 C                    -0.386752
     85 H                     0.231801
     86 C                    -0.149072
     87 C                     0.196258
     88 C                    -0.373355
     89 H                     0.218039
     90 C                    -0.067362
     91 C                     0.251844
     92 C                     0.199639
     93 C                    -0.383588
     94 H                     0.219198
     95 C                    -0.205040
     96 H                     0.228435
     97 C                    -0.329636
     98 H                     0.223026
     99 C                    -0.201928
    100 H                     0.228826
    101 C                    -0.334987
    102 H                     0.223285
    103 C                    -0.209490
    104 C                     0.055882
    105 C                    -0.282761
    106 H                     0.229127
    107 C                     0.165443
    108 C                    -0.282186
    109 H                     0.228712
    110 C                     0.052506
    111 N                    -0.706845
    112 C                     0.305673
    113 C                     0.305378
    114 C                     0.142412
    115 C                    -0.290597
    116 H                     0.206321
    117 C                    -0.233879
    118 H                     0.207585
    119 C                    -0.227374
    120 H                     0.208178
    121 C                    -0.301505
    122 H                     0.249380
    123 C                     0.141749
    124 C                    -0.291031
    125 H                     0.206075
    126 C                    -0.233947
    127 H                     0.207746
    128 C                    -0.228532
    129 H                     0.211193
    130 C                    -0.301723
    131 H                     0.250722
    132 C                    -0.548592
    133 H                     0.252113
    134 H                     0.233065
    135 C                    -0.552063
    136 H                     0.256295
    137 H                     0.234485
    138 C                    -0.208723
    139 C                    -0.648523
    140 H                     0.243974
    141 H                     0.222507
    142 H                     0.218715
    143 C                    -0.647978
    144 H                     0.245898
    145 H                     0.220516
    146 H                     0.219817
    147 C                    -0.599123
    148 H                     0.215207
    149 H                     0.215784
    150 H                     0.234290
    151 C                    -0.596636
    152 H                     0.215353
    153 H                     0.215446
    154 H                     0.233396
  ----------------------------------------
  Sum of atomic charges =    -0.000000

                    Cartesian Multipole Moments
 -----------------------------------------------------------------
    Charge (ESU x 10^10)
                -0.0000
    Dipole Moment (Debye)
         X       0.3724      Y      -0.6188      Z       0.4030
       Tot       0.8270
    Quadrupole Moments (Debye-Ang)
        XX    -479.8826     XY      10.1701     YY    -507.6652
        XZ     -31.5765     YZ      -9.4047     ZZ    -454.6457

 Total job time:  24912.53s(wall), 82781.58s(cpu)
        *  Thank you very much for using Q-Chem.  Have a nice day.  *
