 Q-Chem 5.1, Q-Chem, Inc., Pleasanton, CA (2018)
 Q-Chem 5.1.1 for Intel X86 EM64T Linux

User input:
--------------------------------------------------------------
$rem
threads 4
jobtype	opt
method PBEh-3c
basis def2-mSVP
mem_static	512
mem_total	6096
sym_ignore	true
scf_convergence 9
$end

$molecule
read gsopt.mol
$end

--------------------------------------------------------------

   17   -2280.7118779947      5.94e-10  Convergence criterion met
 Total energy in the final basis set =    -2280.7118779947
   14   -2280.7135993128      8.79e-10  Convergence criterion met
 Total energy in the final basis set =    -2280.7135993128
   14   -2280.7141674098      7.00e-10  Convergence criterion met
 Total energy in the final basis set =    -2280.7141674098
   14   -2280.7141095597      6.80e-10  Convergence criterion met
 Total energy in the final basis set =    -2280.7141095597
   14   -2280.7145805506      5.30e-10  Convergence criterion met
 Total energy in the final basis set =    -2280.7145805506
   13   -2280.7146934774      5.83e-10  Convergence criterion met
 Total energy in the final basis set =    -2280.7146934774
   13   -2280.7147910301      4.30e-10  Convergence criterion met
 Total energy in the final basis set =    -2280.7147910301
   13   -2280.7147907432      4.01e-10  Convergence criterion met
 Total energy in the final basis set =    -2280.7147907432
   12   -2280.7148240847      7.50e-10  Convergence criterion met
 Total energy in the final basis set =    -2280.7148240847
   12   -2280.7148252223      4.52e-10  Convergence criterion met
 Total energy in the final basis set =    -2280.7148252223
   11   -2280.7148372845      6.76e-10  Convergence criterion met
 Total energy in the final basis set =    -2280.7148372845
   10   -2280.7148412950      6.61e-10  Convergence criterion met
 Total energy in the final basis set =    -2280.7148412950
   10   -2280.7148474368      6.76e-10  Convergence criterion met
 Total energy in the final basis set =    -2280.7148474368

             Standard Nuclear Orientation (Angstroms)
    I     Atom           X                Y                Z
 ----------------------------------------------------------------
    1      C       0.0320803284    -0.4917146828     0.0727226731
    2      C       0.0234522310    -0.5093850135     1.4737290238
    3      H       0.9637052054    -0.5299588784     2.0140103213
    4      C      -1.1781973955    -0.5006500874     2.1618980752
    5      C      -2.3930951983    -0.4730620502     1.4425696950
    6      C      -2.3977786705    -0.4581883544     0.0622294418
    7      H      -3.3357308134    -0.4441848407    -0.4825640312
    8      C      -1.1918977403    -0.4636279473    -0.6391282746
    9      C      -1.5086110405    -0.5171565619     3.5915171596
   10      C      -0.7985554364    -0.5465055981     4.7616096643
   11      H       0.2839651682    -0.5631821599     4.7739451743
   12      C      -2.9153398864    -0.4985246253     3.6704471448
   13      C      -3.6450636607    -0.5074782176     4.8527590129
   14      C      -3.4996210932    -0.4711937707     2.3921448239
   15      C      -4.8650401068    -0.4506815372     2.2836269679
   16      H      -5.3628282765    -0.4287135789     1.3217790533
   17      C      -1.5115340526    -0.5559537141     5.9851063284
   18      H      -0.9475656600    -0.5793891203     6.9081955405
   19      C      -2.8851495377    -0.5372808786     6.0456294731
   20      H      -3.3831962043    -0.5458675797     7.0072641374
   21      C      -5.6329409232    -0.4585654293     3.4708951364
   22      H      -6.7121264184    -0.4422915088     3.3905863957
   23      C      -5.0551856146    -0.4861699205     4.7186811261
   24      H      -5.6832482058    -0.4914741166     5.6010533381
   25      B      -1.2080090577    -0.4532625466    -2.1945888865
   26      B       1.3800242593    -0.5012034564    -0.7103626475
   27      C       1.3725585303    -0.4515387386    -2.2675688227
   28      C       2.5783353974    -0.4572660979    -2.9813535656
   29      H       3.5185398045    -0.4881132616    -2.4419051218
   30      C       2.5658642831    -0.4319411706    -4.3647286824
   31      C       1.3319923971    -0.4061420874    -5.0507261564
   32      C       0.1380017989    -0.4089810506    -4.3601557802
   33      H      -0.8039810992    -0.3981786764    -4.8976457723
   34      C       0.1418321813    -0.4319518804    -2.9654620411
   35      C       1.5952581613    -0.3898373305    -6.4857744000
   36      C       0.8164247727    -0.3650413050    -7.6128894220
   37      H      -0.2652846819    -0.3482777329    -7.5606162647
   38      C       2.9930590337    -0.4100345304    -6.6261583184
   39      C       3.6471930558    -0.4091856595    -7.8536871402
   40      C       3.6341727245    -0.4364570478    -5.3726130290
   41      C       5.0031647780    -0.4642994318    -5.3532935104
   42      H       5.5613994963    -0.4883028759    -4.4260496868
   43      C       1.4546658653    -0.3615852586    -8.8750567701
   44      H       0.8407950380    -0.3417304990    -9.7662515843
   45      C       2.8231983554    -0.3834211926    -9.0052545745
   46      H       3.2705924001    -0.3812671718    -9.9917339299
   47      C       5.7007839258    -0.4638403160    -6.5857583527
   48      H       6.7823850641    -0.4863894167    -6.5642456166
   49      C       5.0600836506    -0.4371918056    -7.8018805187
   50      H       5.6378048846    -0.4388149970    -8.7180945583
   51      C       2.7428660590    -0.5786806537     0.0592808566
   52      C       3.5135539650     0.5664835679     0.2708786376
   53      C       4.7192639482     0.4912784628     0.9660863177
   54      H       5.2856253812     1.4020442948     1.1181242909
   55      C       5.1722047514    -0.7286279268     1.4495957136
   56      O       6.3239676553    -0.9007673883     2.1317174180
   57      C       4.4121282058    -1.8744146440     1.2329635183
   58      H       4.7765927333    -2.8240028318     1.6084565158
   59      C       3.2103049146    -1.8090436937     0.5500144245
   60      C       7.1219129076     0.2229249302     2.3872360008
   61      H       7.9861556841    -0.1293696936     2.9466145193
   62      H       6.6015314952     0.9747661603     2.9898700654
   63      H       7.4753646871     0.7006009711     1.4673972285
   64      C       3.0267069090     1.9170637669    -0.1893629082
   65      H       3.8828861157     2.5543150779    -0.4257885025
   66      H       2.4642947271     1.8212856326    -1.1221977459
   67      C       2.4492086850    -3.0852152172     0.2894648518
   68      H       2.6231389463    -3.7867938854     1.1090745559
   69      H       1.3728005575    -2.8934232824     0.2871297526
   70      C       2.1536521282     2.6112011584     0.8542201681
   71      H       1.2547086512     2.0329078410     1.0682130465
   72      H       1.8373686590     3.5952978950     0.5064434056
   73      H       2.6929481138     2.7432329465     1.7927388297
   74      C       2.8453368990    -3.7459974875    -1.0299991645
   75      H       2.6323823909    -3.0987923828    -1.8808459701
   76      H       3.9108111868    -3.9768278341    -1.0485948585
   77      H       2.2975375008    -4.6773915032    -1.1790645553
   78      C      -2.5668571822    -0.4909443689    -2.9888503599
   79      C      -3.0549304499    -1.7005391797    -3.4892183702
   80      C      -4.2487463673    -1.7486171239    -4.2063344190
   81      H      -4.5911259590    -2.7091022873    -4.5726635441
   82      C      -4.9759618681    -0.5901111680    -4.4351065825
   83      O      -6.1404010968    -0.5387132825    -5.1157656170
   84      C      -4.4976741229     0.6192656129    -3.9410746491
   85      H      -5.0681063534     1.5226805010    -4.1261067466
   86      C      -3.3115965825     0.6760367958    -3.2289032126
   87      C      -6.6688022256    -1.7324145256    -5.6282768315
   88      H      -7.5979038186    -1.4713115389    -6.1308129161
   89      H      -6.8928778601    -2.4604919315    -4.8415947105
   90      H      -6.0019104408    -2.2048722845    -6.3571235616
   91      C      -2.8046014612     2.0234751419    -2.7856394238
   92      H      -3.6487502956     2.6563313180    -2.5002538459
   93      H      -2.1893337427     1.9252824294    -1.8870198045
   94      C      -2.3464937214    -3.0030829504    -3.2144692437
   95      H      -1.2792553385    -2.8324928491    -3.0511681897
   96      H      -2.4097878940    -3.6483032058    -4.0950139612
   97      C      -1.9994140963     2.7196398235    -3.8811306729
   98      H      -1.1190437586     2.1380311915    -4.1548246166
   99      H      -2.5999315235     2.8539331396    -4.7813507874
  100      H      -1.6589476219     3.7025845547    -3.5539114944
  101      C      -2.9329145020    -3.7322984305    -2.0077904588
  102      H      -2.8488845008    -3.1268294085    -1.1050902263
  103      H      -3.9897599041    -3.9554929086    -2.1585619734
  104      H      -2.4136001963    -4.6741115462    -1.8272023135
 ----------------------------------------------------------------

   10   -2280.7148524866      6.62e-10  Convergence criterion met
 Total energy in the final basis set =    -2280.7148524866
 Final energy is   -2280.71485248664
 **  OPTIMIZATION CONVERGED  **

                    Orbital Energies (a.u.)
 --------------------------------------------------------------

 Alpha MOs
 -- Occupied --
-19.523 -19.522 -10.499 -10.498 -10.489 -10.488 -10.462 -10.462
-10.462 -10.462 -10.462 -10.461 -10.460 -10.460 -10.460 -10.460
-10.460 -10.460 -10.459 -10.459 -10.458 -10.458 -10.457 -10.457
-10.457 -10.457 -10.457 -10.456 -10.451 -10.450 -10.448 -10.448
-10.447 -10.447 -10.446 -10.445 -10.444 -10.443 -10.432 -10.432
-10.431 -10.431 -10.431 -10.430 -10.430 -10.430 -10.429 -10.429
-10.426 -10.426 -10.418 -10.418 -10.417 -10.416 -10.414 -10.412
 -6.945  -6.944  -1.180  -1.180  -1.013  -1.013  -0.960  -0.956
 -0.952  -0.951  -0.931  -0.931  -0.906  -0.897  -0.886  -0.885
 -0.864  -0.861  -0.851  -0.851  -0.845  -0.844  -0.821  -0.819
 -0.816  -0.811  -0.809  -0.801  -0.798  -0.798  -0.773  -0.772
 -0.732  -0.726  -0.724  -0.718  -0.709  -0.708  -0.700  -0.699
 -0.686  -0.678  -0.677  -0.662  -0.655  -0.645  -0.644  -0.643
 -0.628  -0.628  -0.592  -0.590  -0.590  -0.586  -0.583  -0.581
 -0.581  -0.573  -0.572  -0.560  -0.560  -0.542  -0.541  -0.534
 -0.533  -0.533  -0.525  -0.521  -0.510  -0.504  -0.502  -0.501
 -0.500  -0.498  -0.497  -0.493  -0.492  -0.487  -0.486  -0.482
 -0.481  -0.481  -0.480  -0.479  -0.478  -0.477  -0.475  -0.465
 -0.462  -0.457  -0.457  -0.453  -0.452  -0.449  -0.440  -0.438
 -0.433  -0.432  -0.429  -0.427  -0.426  -0.423  -0.422  -0.415
 -0.411  -0.410  -0.406  -0.404  -0.398  -0.398  -0.396  -0.393
 -0.392  -0.392  -0.390  -0.388  -0.388  -0.385  -0.380  -0.379
 -0.375  -0.368  -0.360  -0.359  -0.356  -0.353  -0.352  -0.347
 -0.336  -0.334  -0.314  -0.309  -0.293  -0.292  -0.277  -0.272
 -0.272  -0.259  -0.254  -0.252  -0.248  -0.245

          Ground-State Mulliken Net Atomic Charges

     Atom                 Charge (a.u.)
  ----------------------------------------
      1 C                    -0.152710
      2 C                    -0.396802
      3 H                     0.237084
      4 C                     0.113466
      5 C                     0.086059
      6 C                    -0.387924
      7 H                     0.235045
      8 C                    -0.151835
      9 C                     0.196959
     10 C                    -0.387648
     11 H                     0.220774
     12 C                    -0.063830
     13 C                     0.252983
     14 C                     0.195561
     15 C                    -0.377634
     16 H                     0.220928
     17 C                    -0.202742
     18 H                     0.225670
     19 C                    -0.337705
     20 H                     0.219693
     21 C                    -0.206212
     22 H                     0.226089
     23 C                    -0.332803
     24 H                     0.219308
     25 B                     0.660019
     26 B                     0.660311
     27 C                    -0.154690
     28 C                    -0.395434
     29 H                     0.237266
     30 C                     0.114455
     31 C                     0.085837
     32 C                    -0.387227
     33 H                     0.237845
     34 C                    -0.151490
     35 C                     0.195965
     36 C                    -0.379076
     37 H                     0.220342
     38 C                    -0.063822
     39 C                     0.252615
     40 C                     0.197822
     41 C                    -0.389077
     42 H                     0.220076
     43 C                    -0.205535
     44 H                     0.225855
     45 C                    -0.332515
     46 H                     0.219235
     47 C                    -0.202278
     48 H                     0.225342
     49 C                    -0.337794
     50 H                     0.219710
     51 C                    -0.223097
     52 C                     0.085907
     53 C                    -0.429698
     54 H                     0.221343
     55 C                     0.402599
     56 O                    -0.453368
     57 C                    -0.379874
     58 H                     0.219392
     59 C                     0.081241
     60 C                    -0.405848
     61 H                     0.238877
     62 H                     0.203287
     63 H                     0.202903
     64 C                    -0.552089
     65 H                     0.225403
     66 H                     0.255487
     67 C                    -0.553723
     68 H                     0.230316
     69 H                     0.254960
     70 C                    -0.644048
     71 H                     0.244753
     72 H                     0.217888
     73 H                     0.213850
     74 C                    -0.645080
     75 H                     0.243433
     76 H                     0.217673
     77 H                     0.216521
     78 C                    -0.231344
     79 C                     0.077953
     80 C                    -0.425615
     81 H                     0.221774
     82 C                     0.402397
     83 O                    -0.453881
     84 C                    -0.373850
     85 H                     0.219218
     86 C                     0.082712
     87 C                    -0.405850
     88 H                     0.239029
     89 H                     0.203458
     90 H                     0.203185
     91 C                    -0.550895
     92 H                     0.230357
     93 H                     0.251767
     94 C                    -0.553700
     95 H                     0.258148
     96 H                     0.227569
     97 C                    -0.643530
     98 H                     0.240403
     99 H                     0.217113
    100 H                     0.217675
    101 C                    -0.639136
    102 H                     0.240785
    103 H                     0.212194
    104 H                     0.217522
  ----------------------------------------
  Sum of atomic charges =    -0.000000

                    Cartesian Multipole Moments
 -----------------------------------------------------------------
    Charge (ESU x 10^10)
                -0.0000
    Dipole Moment (Debye)
         X       0.1279      Y      -0.0858      Z      -0.3007
       Tot       0.3378
    Quadrupole Moments (Debye-Ang)
        XX    -291.5006     XY      16.6010     YY    -337.5204
        XZ      -0.5321     YZ       9.6982     ZZ    -289.9527

 Total job time:  26821.82s(wall), 106193.18s(cpu)
        *  Thank you very much for using Q-Chem.  Have a nice day.  *
