 Q-Chem 5.1, Q-Chem, Inc., Pleasanton, CA (2018)
 Q-Chem 5.1.1 for Intel X86 EM64T Linux

User input:
--------------------------------------------------------------
$rem
threads 8
jobtype	opt
method PBEh-3c
basis def2-mSVP
mem_static	1024
mem_total	12000
sym_ignore	true
cis_n_roots             2
cis_singlets            true
cis_triplets		false
rpa                     false
cis_state_deriv         1
$end

$molecule
read s1opt.mol
$end

--------------------------------------------------------------

   15   -2280.7030709574      7.03e-09  Convergence criterion met
 Total energy in the final basis set =    -2280.7030709574
   12   -2280.7047586746      6.91e-09  Convergence criterion met
 Total energy in the final basis set =    -2280.7047586746
   12   -2280.7055589325      6.22e-09  Convergence criterion met
 Total energy in the final basis set =    -2280.7055589325
   12   -2280.7042228161      7.06e-09  Convergence criterion met
 Total energy in the final basis set =    -2280.7042228161
   12   -2280.7056248719      6.07e-09  Convergence criterion met
 Total energy in the final basis set =    -2280.7056248719
   12   -2280.7049630919      6.48e-09  Convergence criterion met
 Total energy in the final basis set =    -2280.7049630919
   11   -2280.7056615419      9.20e-09  Convergence criterion met
 Total energy in the final basis set =    -2280.7056615419
   10   -2280.7055950642      7.42e-09  Convergence criterion met
 Total energy in the final basis set =    -2280.7055950642
    9   -2280.7056255367      7.82e-09  Convergence criterion met
 Total energy in the final basis set =    -2280.7056255367
    9   -2280.7056211695      6.33e-09  Convergence criterion met
 Total energy in the final basis set =    -2280.7056211695
    9   -2280.7056137606      5.21e-09  Convergence criterion met
 Total energy in the final basis set =    -2280.7056137606
    9   -2280.7056057835      4.97e-09  Convergence criterion met
 Total energy in the final basis set =    -2280.7056057835

             Standard Nuclear Orientation (Angstroms)
    I     Atom           X                Y                Z
 ----------------------------------------------------------------
    1      C       0.0245516578    -0.4196831110     0.0731838860
    2      C       0.0205530987    -0.4092497332     1.4824276225
    3      H       0.9699603716    -0.4191642905     2.0078185845
    4      C      -1.1609797646    -0.3828758960     2.1899064415
    5      C      -2.3984480848    -0.3565895128     1.4838908650
    6      C      -2.4213733268    -0.3607563553     0.1142357939
    7      H      -3.3795821375    -0.3304304938    -0.3966546946
    8      C      -1.2216121102    -0.3971827190    -0.6259547123
    9      C      -1.4693459317    -0.3690057182     3.6192024919
   10      C      -0.7409757776    -0.3820460488     4.7814142246
   11      H       0.3413243931    -0.4079182894     4.7756501361
   12      C      -2.8768488081    -0.3354486468     3.7229273301
   13      C      -3.5858271456    -0.3143416296     4.9197104114
   14      C      -3.4854613796    -0.3252913470     2.4535118175
   15      C      -4.8548973756    -0.2911766564     2.3743190943
   16      H      -5.3727708257    -0.2802333222     1.4227645125
   17      C      -1.4337066661    -0.3614000513     6.0144676596
   18      H      -0.8539594249    -0.3719897490     6.9284289811
   19      C      -2.8062395926    -0.3284635291     6.1004688021
   20      H      -3.2879816677    -0.3132574856     7.0702916297
   21      C      -5.5986098325    -0.2693221748     3.5746486295
   22      H      -6.6794232398    -0.2423743285     3.5157397192
   23      C      -4.9976878115    -0.2804813939     4.8123883273
   24      H      -5.6083499216    -0.2626292967     5.7068222720
   25      B      -1.2288849618    -0.3854210961    -2.1507241996
   26      C       0.0722477031    -0.3782645259    -2.9439073404
   27      C       0.0737833494    -0.3806286781    -4.3535980590
   28      H      -0.8615071461    -0.3636255228    -4.9056242332
   29      C       1.2513729694    -0.4087286857    -5.0507985917
   30      C       2.4999651632    -0.4478342858    -4.3666923453
   31      C       2.5158981035    -0.4510908933    -2.9906685392
   32      H       3.4592538693    -0.4915321582    -2.4567062699
   33      C       1.3182749030    -0.4122430801    -2.2490450872
   34      C       1.5088870431    -0.4209771846    -6.4858682339
   35      C       0.7280781314    -0.3983202101    -7.6144377609
   36      H      -0.3530689602    -0.3571149096    -7.5605752239
   37      C       2.9074292614    -0.4721097510    -6.6319763159
   38      C       3.5563298697    -0.5048256477    -7.8638993735
   39      C       3.5556826941    -0.4910077692    -5.3791268553
   40      C       4.9265534325    -0.5464429098    -5.3701412195
   41      H       5.4894356074    -0.5667113436    -4.4457350047
   42      C       1.3608927040    -0.4289715108    -8.8770338701
   43      H       0.7448412104    -0.4106874321    -9.7673179909
   44      C       2.7287092522    -0.4813986957    -9.0126171796
   45      H       3.1726321311    -0.5044998736   -10.0004875576
   46      C       5.6143947880    -0.5799484586    -6.6057616679
   47      H       6.6958241882    -0.6239294556    -6.5898897542
   48      C       4.9690525350    -0.5605398791    -7.8201735139
   49      H       5.5409756660    -0.5891283746    -8.7395715151
   50      B       1.3528563840    -0.4376934970    -0.7089720335
   51      C      -2.5985275897    -0.4103958201    -2.9323566965
   52      C      -3.3060373485     0.8012699212    -3.2282080733
   53      C      -4.4845044939     0.7524195489    -3.9148790972
   54      H      -5.0451666741     1.6525555329    -4.1345945578
   55      C      -5.0096783379    -0.4871428156    -4.3609632245
   56      O      -6.1414726035    -0.4110426621    -5.0167613013
   57      C      -4.3279130951    -1.6885448080    -4.0950292265
   58      H      -4.7159764977    -2.6362867843    -4.4440745621
   59      C      -3.1541880633    -1.6610639382    -3.3878441353
   60      C      -6.7769928621    -1.5805832710    -5.5144641950
   61      H      -7.6867394571    -1.2422571402    -5.9997702208
   62      H      -7.0331549378    -2.2658894737    -4.7056299249
   63      H      -6.1482583112    -2.0914697945    -6.2448225515
   64      C      -2.7490843235     2.1299177262    -2.8111856207
   65      H      -2.1628832307     2.0147805924    -1.8997650740
   66      H      -3.5747761579     2.8039470251    -2.5718141801
   67      C      -2.4619453272    -2.9534074779    -3.0795212482
   68      H      -1.3843281948    -2.7969426412    -3.0466671582
   69      H      -2.6549708824    -3.6652032036    -3.8855106063
   70      C      -1.8840551678     2.7483380034    -3.9090472353
   71      H      -1.0204481011     2.1247647520    -4.1347518336
   72      H      -1.5133297748     3.7216226610    -3.5907673944
   73      H      -2.4513461680     2.8900221357    -4.8299234249
   74      C      -2.9379439396    -3.5456852246    -1.7513284209
   75      H      -2.7181656895    -2.8807306554    -0.9183332375
   76      H      -2.4292764797    -4.4900496466    -1.5635824362
   77      H      -4.0115380221    -3.7379885631    -1.7623281194
   78      C       2.7339177352    -0.4905705122     0.0488927355
   79      C       3.5060219743     0.6621117721     0.2213971985
   80      C       4.7241174888     0.6143232484     0.8989865463
   81      H       5.2869869177     1.5325921612     1.0152881026
   82      C       5.1924914509    -0.5878174340     1.4089921510
   83      O       6.3583427596    -0.7343936315     2.0791066609
   84      C       4.4355548567    -1.7419518888     1.2362925536
   85      H       4.8101268483    -2.6784281957     1.6344749000
   86      C       3.2221820564    -1.7017485338     0.5699507443
   87      C       7.1431602295     0.4037393658     2.3004637020
   88      H       8.0170073065     0.0769588847     2.8610830276
   89      H       7.4835753595     0.8649585783     1.3669638715
   90      H       6.6185422510     1.1645968788     2.8885164663
   91      C       3.0137296303     1.9996061002    -0.2706832398
   92      H       2.4668107161     1.8785220440    -1.2085423164
   93      H       3.8680876011     2.6422204126    -0.5009293032
   94      C       2.4646571106    -2.9911671329     0.3726727850
   95      H       1.3891069357    -2.8094998780     0.4329797688
   96      H       2.7016107711    -3.6792985683     1.1884122053
   97      C       2.7872158116    -3.6633385479    -0.9606139978
   98      H       2.5040793564    -3.0311756850    -1.8021091272
   99      H       3.8541481642    -3.8720925854    -1.0472058189
  100      H       2.2517959022    -4.6090130215    -1.0609846294
  101      C       2.1149437447     2.7000652939     0.7461688251
  102      H       1.2181257342     2.1144172536     0.9482849176
  103      H       2.6341083997     2.8492192096     1.6937740748
  104      H       1.7969317280     3.6774652334     0.3798321197
 ----------------------------------------------------------------

    7   -2280.7056054172      7.97e-09  Convergence criterion met
 Total energy in the final basis set =    -2280.7056054172

         TDDFT/TDA Excitation Energies
 ---------------------------------------------------

 Excited state   1: excitation energy (eV) =    2.4884
 Total energy for state  1:                 -2280.61415739 au
    Multiplicity: Singlet
    Trans. Mom.: -0.2297 X  -0.0140 Y  -0.2178 Z
    Strength   :     0.0061189585
    D(198) --> V(  1) amplitude =  0.9733

 Excited state   2: excitation energy (eV) =    2.9106
 Total energy for state  2:                 -2280.59864373 au
    Multiplicity: Singlet
    Trans. Mom.:  0.4441 X   0.0028 Y   0.2042 Z
    Strength   :     0.0170346813
    D(197) --> V(  1) amplitude =  0.9688

 ---------------------------------------------------

 Final energy is   -2280.61415738963
 **  OPTIMIZATION CONVERGED  **

                    Orbital Energies (a.u.)
 --------------------------------------------------------------

 Alpha MOs
 -- Occupied --
-19.524 -19.522 -10.499 -10.498 -10.493 -10.488 -10.463 -10.463
-10.462 -10.462 -10.462 -10.462 -10.461 -10.461 -10.460 -10.460
-10.460 -10.460 -10.460 -10.460 -10.458 -10.458 -10.458 -10.457
-10.457 -10.457 -10.457 -10.457 -10.450 -10.450 -10.449 -10.448
-10.447 -10.445 -10.445 -10.445 -10.444 -10.442 -10.431 -10.431
-10.430 -10.430 -10.429 -10.429 -10.429 -10.428 -10.428 -10.427
-10.425 -10.422 -10.417 -10.415 -10.415 -10.414 -10.413 -10.413
 -6.942  -6.935  -1.189  -1.179  -1.012  -1.012  -0.958  -0.955
 -0.951  -0.943  -0.931  -0.931  -0.904  -0.896  -0.885  -0.884
 -0.862  -0.858  -0.851  -0.851  -0.845  -0.844  -0.821  -0.818
 -0.816  -0.811  -0.809  -0.800  -0.797  -0.797  -0.771  -0.767
 -0.732  -0.727  -0.725  -0.718  -0.707  -0.706  -0.700  -0.698
 -0.687  -0.678  -0.677  -0.663  -0.653  -0.644  -0.642  -0.642
 -0.627  -0.623  -0.594  -0.590  -0.589  -0.587  -0.581  -0.580
 -0.579  -0.573  -0.573  -0.560  -0.558  -0.541  -0.541  -0.538
 -0.533  -0.532  -0.525  -0.521  -0.511  -0.504  -0.502  -0.501
 -0.500  -0.497  -0.495  -0.492  -0.490  -0.486  -0.485  -0.482
 -0.481  -0.480  -0.479  -0.478  -0.478  -0.477  -0.475  -0.464
 -0.461  -0.457  -0.455  -0.452  -0.452  -0.448  -0.439  -0.438
 -0.432  -0.430  -0.428  -0.426  -0.425  -0.424  -0.422  -0.414
 -0.413  -0.409  -0.405  -0.403  -0.398  -0.397  -0.396  -0.393
 -0.392  -0.392  -0.390  -0.389  -0.388  -0.384  -0.378  -0.377
 -0.374  -0.369  -0.359  -0.358  -0.353  -0.352  -0.348  -0.345
 -0.338  -0.331  -0.315  -0.310  -0.293  -0.292  -0.278  -0.273
 -0.271  -0.259  -0.252  -0.251  -0.246  -0.232

          Ground-State Mulliken Net Atomic Charges

     Atom                 Charge (a.u.)
  ----------------------------------------
      1 C                    -0.144573
      2 C                    -0.403123
      3 H                     0.236739
      4 C                     0.120343
      5 C                     0.088209
      6 C                    -0.389721
      7 H                     0.237094
      8 C                    -0.146350
      9 C                     0.196340
     10 C                    -0.385358
     11 H                     0.221455
     12 C                    -0.067026
     13 C                     0.251894
     14 C                     0.199702
     15 C                    -0.376878
     16 H                     0.221302
     17 C                    -0.202828
     18 H                     0.225705
     19 C                    -0.336087
     20 H                     0.220170
     21 C                    -0.205462
     22 H                     0.226199
     23 C                    -0.332215
     24 H                     0.219648
     25 B                     0.630669
     26 C                    -0.143295
     27 C                    -0.389584
     28 H                     0.239034
     29 C                     0.088828
     30 C                     0.120958
     31 C                    -0.401378
     32 H                     0.237198
     33 C                    -0.147993
     34 C                     0.200000
     35 C                    -0.378461
     36 H                     0.220902
     37 C                    -0.067198
     38 C                     0.251413
     39 C                     0.197491
     40 C                    -0.386714
     41 H                     0.220889
     42 C                    -0.204791
     43 H                     0.225971
     44 C                    -0.331927
     45 H                     0.219547
     46 C                    -0.202432
     47 H                     0.225387
     48 C                    -0.336178
     49 H                     0.220181
     50 B                     0.650347
     51 C                    -0.258131
     52 C                     0.103169
     53 C                    -0.389376
     54 H                     0.215487
     55 C                     0.400691
     56 O                    -0.444014
     57 C                    -0.445151
     58 H                     0.216859
     59 C                     0.099475
     60 C                    -0.403249
     61 H                     0.242392
     62 H                     0.209730
     63 H                     0.209188
     64 C                    -0.549439
     65 H                     0.251476
     66 H                     0.229410
     67 C                    -0.550779
     68 H                     0.256059
     69 H                     0.224732
     70 C                    -0.646516
     71 H                     0.244252
     72 H                     0.216538
     73 H                     0.216552
     74 C                    -0.644627
     75 H                     0.248090
     76 H                     0.216098
     77 H                     0.212483
     78 C                    -0.222254
     79 C                     0.081403
     80 C                    -0.427483
     81 H                     0.221460
     82 C                     0.401235
     83 O                    -0.453984
     84 C                    -0.377993
     85 H                     0.219471
     86 C                     0.078740
     87 C                    -0.405887
     88 H                     0.238427
     89 H                     0.202322
     90 H                     0.202951
     91 C                    -0.550517
     92 H                     0.255439
     93 H                     0.224717
     94 C                    -0.550712
     95 H                     0.253472
     96 H                     0.229310
     97 C                    -0.646995
     98 H                     0.244411
     99 H                     0.217761
    100 H                     0.216938
    101 C                    -0.645203
    102 H                     0.245658
    103 H                     0.214103
    104 H                     0.217766
  ----------------------------------------
  Sum of atomic charges =     0.000000

                    Cartesian Multipole Moments
 -----------------------------------------------------------------
    Charge (ESU x 10^10)
                 0.0000
    Dipole Moment (Debye)
         X      -0.2744      Y      -0.1070      Z      -0.4825
       Tot       0.5653
    Quadrupole Moments (Debye-Ang)
        XX    -287.5714     XY      16.7372     YY    -337.9185
        XZ       0.7183     YZ      10.5773     ZZ    -287.2055

 Total job time:  34629.55s(wall), 247207.30s(cpu)
        *  Thank you very much for using Q-Chem.  Have a nice day.  *
