 Q-Chem 5.0, Q-Chem, Inc., Pleasanton, CA (2017)
 Q-Chem 5.0.1 for Intel X86 EM64T Linux

User input:
--------------------------------------------------------------
$rem
threads 8
jobtype	opt
method PBEh-3c
basis def2-mSVP
mem_static	1024
mem_total	14000
sym_ignore	true
cis_n_roots             2
cis_singlets            true
cis_triplets		false
rpa                     false
cis_state_deriv         1
$end

$molecule
read incoords.mol
$end

--------------------------------------------------------------

   15   -2280.6599868326      4.67E-09 Convergence criterion met
 Total energy in the final basis set = -2280.65998683
   12   -2280.6921586406      9.34E-09 Convergence criterion met
 Total energy in the final basis set = -2280.69215864
   13   -2280.7024849326      5.82E-09 Convergence criterion met
 Total energy in the final basis set = -2280.70248493
   12   -2280.7052640765      9.58E-09 Convergence criterion met
 Total energy in the final basis set = -2280.70526408
   13   -2280.7060286107      6.24E-09 Convergence criterion met
 Total energy in the final basis set = -2280.70602861
   13   -2280.7056118876      5.98E-09 Convergence criterion met
 Total energy in the final basis set = -2280.70561189
   13   -2280.7027595902      6.48E-09 Convergence criterion met
 Total energy in the final basis set = -2280.70275959
   12   -2280.7020355054      9.39E-09 Convergence criterion met
   11   -2280.7030849276      5.83E-09 Convergence criterion met
 Total energy in the final basis set = -2280.70308493
   10   -2280.7032112381      6.56E-09 Convergence criterion met
 Total energy in the final basis set = -2280.70321124
   10   -2280.7031680992      4.76E-09 Convergence criterion met
 Total energy in the final basis set = -2280.70316810
    9   -2280.7031150141      8.35E-09 Convergence criterion met
 Total energy in the final basis set = -2280.70311501
    9   -2280.7031212730      6.77E-09 Convergence criterion met
 Total energy in the final basis set = -2280.70312127
    8   -2280.7031437867      6.82E-09 Convergence criterion met
 Total energy in the final basis set = -2280.70314379

             Standard Nuclear Orientation (Angstroms)
    I     Atom           X                Y                Z
 ----------------------------------------------------------------
    1      C       2.6180697540    -1.5724134040     0.3928898373
    2      C       3.5560065532    -1.2864562724    -0.6463390833
    3      B       4.5234490872    -2.3781530793    -1.1412342128
    4      C       4.5489401914    -3.7355142979    -0.4155669407
    5      C       3.5949665269    -4.0406721170     0.6001193830
    6      B       2.5899604876    -2.9683014959     1.0090278371
    7      C       5.4707309392    -4.7231452631    -0.8030478238
    8      C       5.4446629883    -5.9750979439    -0.2364603664
    9      C       4.4664520709    -6.2921088951     0.7498300843
   10      C       3.5730205627    -5.3374561020     1.1615634329
   11      C       1.6533199492    -0.5990936991     0.7335475121
   12      C       1.6187509131     0.6105212689     0.0892486116
   13      C       2.5712280710     0.9086055435    -0.9283308333
   14      C       3.5086161340    -0.0333112539    -1.2838354016
   15      C       7.2432247768    -7.5136562266    -1.3576010471
   16      C       7.7062754947    -8.8489293337    -1.3721820055
   17      C       7.1625471723    -9.8316078117    -0.5780827650
   18      C       6.0969653626    -9.5205473846     0.3002991187
   19      C       5.6743764381    -8.1935127721     0.3092974837
   20      C       6.2179133038    -7.1819494553    -0.5076320165
   21      C       5.3890697765   -10.4089081210     1.1444995875
   22      C       4.3422102068    -9.9464769937     1.9074524094
   23      C       3.9311409086    -8.5941805561     1.8920678716
   24      C       4.6050271244    -7.7089388745     1.0881854098
   25      C       2.0536805904     4.2001017815    -2.8143645199
   26      C       2.7274155738     2.9973508725    -2.5012947931
   27      C       2.2328791394     2.2124963211    -1.4902428080
   28      C       1.0758850213     2.6493620834    -0.8122827022
   29      C       0.3765228700     3.8131644731    -1.1177903945
   30      C       0.9140892286     4.6068867284    -2.1598055278
   31      C       0.6651420193     1.7132656131     0.1567137024
   32      C      -0.4892775863     1.9569791824     0.8563344509
   33      C      -1.2139370458     3.1365212731     0.5746591785
   34      C      -0.8077731699     4.0427304921    -0.3774584916
   35      C       7.3296830216    -1.3036573596    -3.6175537694
   36      C       6.5832825155    -1.4624847173    -2.4491311659
   37      C       5.3853619889    -2.1802635062    -2.4483572401
   38      C       4.9545199572    -2.7469117311    -3.6643302711
   39      C       5.6995368000    -2.5825149699    -4.8197574448
   40      C       6.8874819853    -1.8596523812    -4.8081064358
   41      C       7.1416967524    -0.8989229900    -1.1684688840
   42      C       3.6499990154    -3.5000205677    -3.7660236210
   43      O       7.5320872219    -1.7558463376    -5.9927583248
   44      C       8.7334132142    -1.0380030894    -6.0364777992
   45      C       0.5251290674    -3.7002935936     4.2065429081
   46      C       1.5698017553    -3.3461894912     3.4032576601
   47      C       1.4194730109    -3.3776293545     1.9788765715
   48      C       0.1637393608    -3.8139306698     1.4217705852
   49      C      -0.8836584475    -4.1397710755     2.2450789395
   50      C      -0.7174177366    -4.0873286307     3.6408133802
   51      C       2.8689861284    -2.9066466680     4.0081531157
   52      C      -0.0142384769    -3.9323363416    -0.0626938506
   53      O      -1.6566962752    -4.3845362327     4.5053694840
   54      C      -2.9494467855    -4.7820625942     4.0714497703
   55      H       6.1871688292    -4.4960731187    -1.5855197764
   56      H       2.8323831808    -5.5963114979     1.9123544523
   57      H       0.9045278646    -0.8171478089     1.4896040263
   58      H       4.2001912791     0.1641194623    -2.0962627394
   59      H       7.6918725349    -6.7848753741    -2.0206272024
   60      H       8.5136087235    -9.1073988317    -2.0454938146
   61      H       7.5408355364   -10.8450878764    -0.6345322637
   62      H       5.6629774423   -11.4564161631     1.1809062111
   63      H       3.8062235143   -10.6434181675     2.5393092342
   64      H       3.0902827031    -8.2872520131     2.5018190538
   65      H       2.4445128972     4.8152101223    -3.6148385519
   66      H       3.6025815760     2.7088449453    -3.0697780031
   67      H       0.4222502468     5.5269824439    -2.4505508660
   68      H      -0.8618816474     1.2654115724     1.6021005048
   69      H      -2.1278255941     3.3268343505     1.1230791085
   70      H      -1.4030166657     4.9273367832    -0.5683821826
   71      H       8.2542894955    -0.7411188992    -3.5696050469
   72      H       5.3607597017    -3.0160669107    -5.7542763083
   73      H       7.7199799285     0.0040119365    -1.3834871213
   74      C       8.0290023075    -1.9063691018    -0.4396502080
   75      H       6.3287007329    -0.5912177182    -0.5068978494
   76      H       3.7149563485    -4.2226246718    -4.5838428611
   77      C       2.4571087262    -2.5771550855    -4.0082741469
   78      H       3.4750010128    -4.0860588721    -2.8611313144
   79      H       9.0809249921    -1.0727365079    -7.0674083703
   80      H       9.5061501986    -1.4766814506    -5.3959440621
   81      H       8.6032972993     0.0111231512    -5.7500414149
   82      H       0.6158116207    -3.6944807064     5.2855291007
   83      H      -1.8295799339    -4.4343680340     1.8099238451
   84      H       3.6955355384    -3.2608656965     3.3909037287
   85      H       2.9852806221    -3.3730311799     4.9889336065
   86      C       2.9450948524    -1.3872509819     4.1485940485
   87      H       0.6362514522    -3.2251943347    -0.5752627846
   88      H      -1.0406105673    -3.6609823387    -0.3219334461
   89      C       0.2772929419    -5.3497764507    -0.5608178759
   90      H      -3.5270075103    -4.9553278022     4.9736942004
   91      H      -3.4277840752    -3.9977523134     3.4832793321
   92      H      -2.9058302324    -5.7035962234     3.4895526452
   93      H       2.5840196243    -2.0040341413    -4.9274140760
   94      H       2.3326744740    -1.8674518879    -3.1904687955
   95      H       1.5325075530    -3.1507027669    -4.0971285378
   96      H       1.3085902995    -5.6377800767    -0.3641542199
   97      H       0.1197842730    -5.4020302367    -1.6372386812
   98      H      -0.3785653646    -6.0830093314    -0.0897227771
   99      H       2.8919313459    -0.8939446151     3.1795944503
  100      H       3.8879232137    -1.1007629956     4.6124338835
  101      H       2.1343276554    -1.0063619860     4.7706679877
  102      H       8.8502837588    -2.2386875500    -1.0761306963
  103      H       7.4607355526    -2.7885442901    -0.1441766839
  104      H       8.4588742332    -1.4718507373     0.4640254721
 ----------------------------------------------------------------

    7   -2280.7031412059      6.27E-09 Convergence criterion met
 Total energy in the final basis set = -2280.70314121

         TDDFT/TDA Excitation Energies
 ---------------------------------------------------

 Excited state   1: excitation energy (eV) =    2.4872
 Total energy for state  1:                 -2280.61173975 au
    Multiplicity: Singlet
    Trans. Mom.: -0.3275 X   0.1395 Y   0.1968 Z
    Strength   :     0.0100828463
    D(198) --> V(  1) amplitude =  0.9724

 Excited state   2: excitation energy (eV) =    2.8916
 Total energy for state  2:                 -2280.59687854 au
    Multiplicity: Singlet
    Trans. Mom.:  0.0615 X   0.0440 Y  -0.0941 Z
    Strength   :     0.0010321475
    D(195) --> V(  1) amplitude =  0.5905
    D(196) --> V(  1) amplitude = -0.7203
    D(197) --> V(  1) amplitude =  0.2593

 ---------------------------------------------------

 Final energy is   -2280.61173975024
 **  OPTIMIZATION CONVERGED  **

                    Orbital Energies (a.u.)
 --------------------------------------------------------------

 Alpha MOs
 -- Occupied --
-19.523 -19.522 -10.499 -10.498 -10.493 -10.488 -10.463 -10.463
-10.462 -10.462 -10.462 -10.462 -10.460 -10.460 -10.460 -10.460
-10.460 -10.459 -10.459 -10.459 -10.459 -10.458 -10.458 -10.458
-10.458 -10.458 -10.457 -10.457 -10.450 -10.449 -10.449 -10.448
-10.447 -10.446 -10.445 -10.444 -10.444 -10.442 -10.433 -10.431
-10.431 -10.430 -10.429 -10.429 -10.429 -10.428 -10.428 -10.426
-10.425 -10.422 -10.419 -10.415 -10.415 -10.414 -10.414 -10.412
 -6.942  -6.935  -1.189  -1.179  -1.013  -1.012  -0.958  -0.955
 -0.951  -0.942  -0.931  -0.931  -0.905  -0.896  -0.885  -0.885
 -0.863  -0.859  -0.852  -0.851  -0.845  -0.844  -0.821  -0.818
 -0.816  -0.811  -0.809  -0.800  -0.797  -0.797  -0.772  -0.767
 -0.732  -0.727  -0.725  -0.718  -0.708  -0.705  -0.700  -0.698
 -0.687  -0.678  -0.677  -0.663  -0.653  -0.644  -0.642  -0.642
 -0.627  -0.623  -0.594  -0.590  -0.589  -0.587  -0.581  -0.580
 -0.579  -0.573  -0.573  -0.560  -0.558  -0.541  -0.541  -0.538
 -0.533  -0.533  -0.525  -0.521  -0.510  -0.504  -0.502  -0.501
 -0.500  -0.498  -0.495  -0.492  -0.490  -0.487  -0.486  -0.482
 -0.481  -0.480  -0.479  -0.478  -0.478  -0.476  -0.475  -0.464
 -0.461  -0.457  -0.456  -0.452  -0.452  -0.448  -0.439  -0.439
 -0.432  -0.429  -0.428  -0.426  -0.425  -0.424  -0.422  -0.414
 -0.414  -0.409  -0.405  -0.404  -0.398  -0.397  -0.396  -0.393
 -0.392  -0.392  -0.390  -0.389  -0.388  -0.383  -0.378  -0.377
 -0.374  -0.369  -0.359  -0.358  -0.353  -0.352  -0.349  -0.345
 -0.337  -0.331  -0.315  -0.310  -0.293  -0.292  -0.278  -0.273
 -0.271  -0.258  -0.252  -0.251  -0.247  -0.231

          Ground-State Mulliken Net Atomic Charges

     Atom                 Charge (a.u.)
  ----------------------------------------
      1 C                    -0.146635
      2 C                    -0.150178
      3 B                     0.641016
      4 C                    -0.141020
      5 C                    -0.146341
      6 B                     0.623775
      7 C                    -0.397907
      8 C                     0.107443
      9 C                     0.095912
     10 C                    -0.391038
     11 C                    -0.390355
     12 C                     0.097733
     13 C                     0.104535
     14 C                    -0.391482
     15 C                    -0.379712
     16 C                    -0.204163
     17 C                    -0.333010
     18 C                     0.248428
     19 C                    -0.065169
     20 C                     0.193389
     21 C                    -0.333022
     22 C                    -0.203533
     23 C                    -0.381835
     24 C                     0.199529
     25 C                    -0.203744
     26 C                    -0.379205
     27 C                     0.191522
     28 C                    -0.063039
     29 C                     0.248737
     30 C                    -0.333118
     31 C                     0.195364
     32 C                    -0.377366
     33 C                    -0.204214
     34 C                    -0.332931
     35 C                    -0.421360
     36 C                     0.088462
     37 C                    -0.222993
     38 C                     0.072137
     39 C                    -0.377896
     40 C                     0.401789
     41 C                    -0.546518
     42 C                    -0.550917
     43 O                    -0.453921
     44 C                    -0.405399
     45 C                    -0.392402
     46 C                     0.120391
     47 C                    -0.257107
     48 C                     0.091211
     49 C                    -0.444120
     50 C                     0.401012
     51 C                    -0.545751
     52 C                    -0.553160
     53 O                    -0.444099
     54 C                    -0.403141
     55 H                     0.237702
     56 H                     0.238147
     57 H                     0.237620
     58 H                     0.232771
     59 H                     0.221152
     60 H                     0.225744
     61 H                     0.219933
     62 H                     0.219713
     63 H                     0.225948
     64 H                     0.221335
     65 H                     0.225597
     66 H                     0.220442
     67 H                     0.220073
     68 H                     0.221252
     69 H                     0.225911
     70 H                     0.219773
     71 H                     0.221236
     72 H                     0.219967
     73 H                     0.224324
     74 C                    -0.644321
     75 H                     0.251365
     76 H                     0.230297
     77 C                    -0.645321
     78 H                     0.257683
     79 H                     0.238597
     80 H                     0.202300
     81 H                     0.202501
     82 H                     0.215606
     83 H                     0.217100
     84 H                     0.248315
     85 H                     0.228368
     86 C                    -0.648656
     87 H                     0.261484
     88 H                     0.225782
     89 C                    -0.642624
     90 H                     0.242242
     91 H                     0.209011
     92 H                     0.209373
     93 H                     0.218281
     94 H                     0.245155
     95 H                     0.214930
     96 H                     0.247632
     97 H                     0.215148
     98 H                     0.211981
     99 H                     0.244746
    100 H                     0.217375
    101 H                     0.217447
    102 H                     0.214192
    103 H                     0.241612
    104 H                     0.219178
  ----------------------------------------
  Sum of atomic charges =     0.000000

                    Cartesian Multipole Moments
 -----------------------------------------------------------------
    Charge (ESU x 10^10)
                 0.0000
    Dipole Moment (Debye)
         X      -0.8338      Y      -0.0407      Z      -0.8817
       Tot       1.2141
    Quadrupole Moments (Debye-Ang)
        XX    -295.2348     XY      -0.6500     YY    -293.5983
        XZ     -24.7129     YZ     -12.3341     ZZ    -331.5579

 Total job time:  68502.28s(wall), 435558.17s(cpu)
        *  Thank you very much for using Q-Chem.  Have a nice day.  *
