 Q-Chem 5.1, Q-Chem, Inc., Pleasanton, CA (2018)
 Q-Chem 5.1.1 for Intel X86 EM64T Linux

User input:
--------------------------------------------------------------
$rem
threads 8
jobtype	opt
method PBEh-3c
basis def2-mSVP
mem_static	1024
mem_total	14000
sym_ignore	true
cis_n_roots             2
cis_singlets            true
cis_triplets		false
rpa                     false
cis_state_deriv         1
$end

$molecule
read gsopt2.mol
$end

--------------------------------------------------------------

   15   -2280.7148272454      6.83e-09  Convergence criterion met
 Total energy in the final basis set =    -2280.7148272454
   12   -2280.7110045502      9.18e-09  Convergence criterion met
 Total energy in the final basis set =    -2280.7110045502
   12   -2280.7056985979      7.31e-09  Convergence criterion met
 Total energy in the final basis set =    -2280.7056985979
   12   -2280.7005642494      9.39e-09  Convergence criterion met
 Total energy in the final basis set =    -2280.7005642494
   12   -2280.7052266696      6.15e-09  Convergence criterion met
 Total energy in the final basis set =    -2280.7052266696
   12   -2280.7090212259      7.37e-09  Convergence criterion met
 Total energy in the final basis set =    -2280.7090212259
   11   -2280.7052565999      9.78e-09  Convergence criterion met
 Total energy in the final basis set =    -2280.7052565999
   10   -2280.7054558559      6.35e-09  Convergence criterion met
 Total energy in the final basis set =    -2280.7054558559
   10   -2280.7055913270      5.28e-09  Convergence criterion met
 Total energy in the final basis set =    -2280.7055913270
   10   -2280.7055136501      5.55e-09  Convergence criterion met
 Total energy in the final basis set =    -2280.7055136501
    9   -2280.7054799987      5.72e-09  Convergence criterion met
 Total energy in the final basis set =    -2280.7054799987
    8   -2280.7054757603      7.51e-09  Convergence criterion met
 Total energy in the final basis set =    -2280.7054757603
    8   -2280.7054829030      6.84e-09  Convergence criterion met
 Total energy in the final basis set =    -2280.7054829030

             Standard Nuclear Orientation (Angstroms)
    I     Atom           X                Y                Z
 ----------------------------------------------------------------
    1      C       0.0384242331    -0.1630556001     0.0640540475
    2      C       0.0149553575    -0.1697597641     1.4730739119
    3      H       0.9569020138    -0.1729760919     2.0118359552
    4      C      -1.1762468125    -0.1725478218     2.1640068348
    5      C      -2.4040784600    -0.1662606685     1.4408732652
    6      C      -2.4078472733    -0.1607407511     0.0708954840
    7      H      -3.3594252594    -0.1532858610    -0.4529626802
    8      C      -1.1977199990    -0.1681532943    -0.6533580325
    9      C      -1.5040217723    -0.1804952644     3.5888441253
   10      C      -0.7910039647    -0.1890576903     4.7605649713
   11      H       0.2915866071    -0.1903891654     4.7690619992
   12      C      -2.9130490515    -0.1792783603     3.6735381108
   13      C      -3.6381029294    -0.1868522481     4.8608499940
   14      C      -3.5046152795    -0.1708269968     2.3959251779
   15      C      -4.8733668269    -0.1704998248     2.2987021539
   16      H      -5.3784833759    -0.1661742780     1.3402780417
   17      C      -1.5002631698    -0.1964480978     5.9843019985
   18      H      -0.9326235836    -0.2032587596     6.9058721037
   19      C      -2.8742041102    -0.1955391379     6.0519281917
   20      H      -3.3690343618    -0.2016694922     7.0152341494
   21      C      -5.0487939010    -0.1855641416     4.7347232930
   22      H      -5.6714253459    -0.1914126219     5.6210327163
   23      C      -5.6333270794    -0.1777615058     3.4890503988
   24      H      -6.7136186002    -0.1779049209     3.4158421309
   25      B       1.3775320554    -0.1418508449    -0.6971910914
   26      C       1.3643589088    -0.1392061280    -2.2376714693
   27      C       2.5743775865    -0.1258926138    -2.9589353259
   28      H       3.5096548176    -0.1057519184    -2.4095431569
   29      C       2.5803883663    -0.1341800554    -4.3350002669
   30      C       1.3431581424    -0.1624410515    -5.0413794072
   31      C       0.1532525336    -0.1734569461    -4.3637066251
   32      H      -0.7728451686    -0.2001079932    -4.9311020097
   33      C       0.1288705978    -0.1535258765    -2.9536024763
   34      C       3.6553823225    -0.1171675677    -5.3269969075
   35      C       5.0266779007    -0.0838645928    -5.2919972117
   36      H       5.5725031866    -0.0645561541    -4.3572714690
   37      C       3.0288094656    -0.1374156595    -6.5916017928
   38      C       3.7009255215    -0.1263678825    -7.8111761698
   39      C       1.6263612806    -0.1665651389    -6.4725055982
   40      C       0.8665313389    -0.1872655502    -7.6157945830
   41      H      -0.2160751582    -0.2105840929    -7.5829413902
   42      C       5.7370633893    -0.0725061846    -6.5152609544
   43      H       6.8186018364    -0.0458488443    -6.4804256234
   44      C       5.1134708643    -0.0928505957    -7.7410826376
   45      H       5.7027926381    -0.0824439015    -8.6498101769
   46      C       2.8949207067    -0.1480308483    -8.9753773621
   47      H       3.3578233122    -0.1410067374    -9.9547332544
   48      C       1.5240352675    -0.1779186213    -8.8661585445
   49      H       0.9250324945    -0.1946936491    -9.7680380886
   50      B      -1.1839198947    -0.1603613164    -2.1788550937
   51      C      -2.5436139686    -0.1289130138    -2.9769958576
   52      C      -3.1957480400     1.1264126309    -3.2550526951
   53      C      -4.3910291227     1.1607307356    -3.9259144316
   54      H      -4.8745429077     2.1122458459    -4.1024448910
   55      C      -4.9723127536    -0.0392616904    -4.3739859529
   56      O      -6.1058461290    -0.1133979561    -5.0268759653
   57      C      -4.3331827608    -1.2824259558    -4.1342128710
   58      H      -4.8066844032    -2.1799650436    -4.5127344062
   59      C      -3.1546764407    -1.3381377377    -3.4490929054
   60      C      -6.8497080664     1.0566131011    -5.3362816913
   61      H      -7.7317018177     0.7169605808    -5.8695748328
   62      H      -7.1564551612     1.5809669860    -4.4303276342
   63      H      -6.2789115185     1.7301625089    -5.9766623679
   64      C      -2.5632441511     2.4166907089    -2.8335150872
   65      H      -3.3469059666     3.1301515592    -2.5675460432
   66      H      -1.9606955879     2.2595158140    -1.9399928576
   67      C      -2.5166606690    -2.6702596130    -3.1839703196
   68      H      -2.7545035105    -3.3483222468    -4.0067648085
   69      H      -1.4322659764    -2.5614159844    -3.1704265781
   70      C      -1.6938139362     3.0041545133    -3.9472438423
   71      H      -0.8753105603     2.3356025981    -4.2078248347
   72      H      -2.2765205487     3.1978127860    -4.8487990680
   73      H      -1.2582937107     3.9469169307    -3.6198533203
   74      C      -2.9918607059    -3.2800226945    -1.8657223473
   75      H      -2.7274053063    -2.6509069695    -1.0176815153
   76      H      -4.0731377120    -3.4237504276    -1.8604748902
   77      H      -2.5242554497    -4.2517821111    -1.7135450261
   78      C       2.7478771650    -0.1206540350     0.0815321113
   79      C       3.4930009347    -1.2907269278     0.2516666702
   80      C       4.7013552908    -1.2760094487     0.9478771174
   81      H       5.2428965686    -2.2075409621     1.0603002640
   82      C       5.1867859488    -0.0914165814     1.4808680543
   83      O       6.3447833665     0.0191482273     2.1713588998
   84      C       4.4566825364     1.0806050151     1.3109222176
   85      H       4.8437257840     2.0038453952     1.7273266435
   86      C       3.2534634530     1.0731867475     0.6249770572
   87      C       7.0953111344    -1.1418191837     2.3953094223
   88      H       7.9643033279    -0.8449553133     2.9795429775
   89      H       7.4449735455    -1.6003773104     1.4638177648
   90      H       6.5378604743    -1.8962711865     2.9610615346
   91      C       2.5220263291     2.3772125994     0.4311805300
   92      H       2.7736446646     3.0592725671     1.2474583957
   93      H       1.4432696319     2.2153367556     0.4933100582
   94      C       2.9852275845    -2.6146505086    -0.2637596759
   95      H       2.4391582536    -2.4721441263    -1.1989899456
   96      H       3.8328027906    -3.2618941062    -0.5064019547
   97      C       2.8555452862     3.0435536054    -0.9021532179
   98      H       2.5560736632     2.4189423090    -1.7434803244
   99      H       2.3408195996     4.0008501863    -1.0000844827
  100      H       3.9266838150     3.2282217519    -0.9912054901
  101      C       2.0802074930    -3.3264261629     0.7399967524
  102      H       1.1884826384    -2.7369659069     0.9534579879
  103      H       1.7537412661    -4.2937061787     0.3544698925
  104      H       2.5977215182    -3.4996746863     1.6844392400
 ----------------------------------------------------------------

    7   -2280.7054848785      8.12e-09  Convergence criterion met
 Total energy in the final basis set =    -2280.7054848785

         TDDFT/TDA Excitation Energies
 ---------------------------------------------------

 Excited state   1: excitation energy (eV) =    2.4862
 Total energy for state  1:                 -2280.61412008 au
    Multiplicity: Singlet
    Trans. Mom.: -0.2364 X   0.0141 Y  -0.0489 Z
    Strength   :     0.0035612935
    D(198) --> V(  1) amplitude =  0.9732

 Excited state   2: excitation energy (eV) =    2.9063
 Total energy for state  2:                 -2280.59867929 au
    Multiplicity: Singlet
    Trans. Mom.: -0.4803 X   0.0132 Y  -0.1881 Z
    Strength   :     0.0189561044
    D(197) --> V(  1) amplitude =  0.9690

 ---------------------------------------------------

 Final energy is   -2280.61412008441
 **  OPTIMIZATION CONVERGED  **

                    Orbital Energies (a.u.)
 --------------------------------------------------------------

 Alpha MOs
 -- Occupied --
-19.524 -19.522 -10.499 -10.498 -10.493 -10.487 -10.463 -10.463
-10.463 -10.462 -10.462 -10.462 -10.461 -10.460 -10.460 -10.460
-10.460 -10.460 -10.460 -10.460 -10.458 -10.458 -10.458 -10.458
-10.458 -10.457 -10.457 -10.457 -10.450 -10.449 -10.449 -10.449
-10.447 -10.445 -10.445 -10.445 -10.444 -10.442 -10.431 -10.431
-10.430 -10.430 -10.429 -10.429 -10.429 -10.429 -10.428 -10.427
-10.425 -10.422 -10.417 -10.415 -10.415 -10.414 -10.413 -10.413
 -6.942  -6.935  -1.190  -1.179  -1.012  -1.012  -0.958  -0.955
 -0.951  -0.943  -0.931  -0.931  -0.904  -0.895  -0.885  -0.884
 -0.862  -0.858  -0.851  -0.851  -0.845  -0.844  -0.821  -0.818
 -0.816  -0.811  -0.809  -0.800  -0.797  -0.797  -0.771  -0.767
 -0.732  -0.727  -0.725  -0.718  -0.707  -0.705  -0.700  -0.698
 -0.687  -0.678  -0.677  -0.663  -0.653  -0.644  -0.642  -0.642
 -0.627  -0.623  -0.594  -0.590  -0.589  -0.587  -0.581  -0.580
 -0.579  -0.573  -0.573  -0.559  -0.558  -0.541  -0.541  -0.538
 -0.533  -0.532  -0.525  -0.521  -0.511  -0.504  -0.501  -0.501
 -0.500  -0.497  -0.495  -0.491  -0.491  -0.486  -0.485  -0.482
 -0.481  -0.480  -0.479  -0.478  -0.478  -0.476  -0.475  -0.464
 -0.460  -0.457  -0.456  -0.452  -0.452  -0.448  -0.439  -0.439
 -0.432  -0.430  -0.428  -0.426  -0.426  -0.424  -0.422  -0.414
 -0.413  -0.409  -0.405  -0.403  -0.398  -0.397  -0.396  -0.393
 -0.392  -0.392  -0.390  -0.389  -0.388  -0.383  -0.378  -0.377
 -0.374  -0.368  -0.360  -0.357  -0.353  -0.351  -0.348  -0.345
 -0.338  -0.331  -0.315  -0.310  -0.293  -0.292  -0.278  -0.273
 -0.271  -0.259  -0.252  -0.251  -0.246  -0.232

          Ground-State Mulliken Net Atomic Charges

     Atom                 Charge (a.u.)
  ----------------------------------------
      1 C                    -0.144835
      2 C                    -0.402131
      3 H                     0.236774
      4 C                     0.119534
      5 C                     0.089063
      6 C                    -0.390198
      7 H                     0.237775
      8 C                    -0.147143
      9 C                     0.196519
     10 C                    -0.385279
     11 H                     0.221513
     12 C                    -0.067175
     13 C                     0.251968
     14 C                     0.199439
     15 C                    -0.376990
     16 H                     0.221006
     17 C                    -0.202866
     18 H                     0.225743
     19 C                    -0.336047
     20 H                     0.220178
     21 C                    -0.332308
     22 H                     0.219637
     23 C                    -0.205349
     24 H                     0.226023
     25 B                     0.649910
     26 C                    -0.146632
     27 C                    -0.400528
     28 H                     0.237523
     29 C                     0.119727
     30 C                     0.087919
     31 C                    -0.390964
     32 H                     0.238901
     33 C                    -0.142917
     34 C                     0.198206
     35 C                    -0.385729
     36 H                     0.221039
     37 C                    -0.068116
     38 C                     0.250307
     39 C                     0.200598
     40 C                    -0.378069
     41 H                     0.221172
     42 C                    -0.202852
     43 H                     0.225401
     44 C                    -0.335617
     45 H                     0.220156
     46 C                    -0.331493
     47 H                     0.219572
     48 C                    -0.205003
     49 H                     0.226236
     50 B                     0.631858
     51 C                    -0.257641
     52 C                     0.097412
     53 C                    -0.442673
     54 H                     0.216846
     55 C                     0.400517
     56 O                    -0.443904
     57 C                    -0.391649
     58 H                     0.215606
     59 C                     0.104404
     60 C                    -0.402821
     61 H                     0.242231
     62 H                     0.209145
     63 H                     0.209355
     64 C                    -0.551415
     65 H                     0.224976
     66 H                     0.255954
     67 C                    -0.548178
     68 H                     0.229059
     69 H                     0.250192
     70 C                    -0.643970
     71 H                     0.247971
     72 H                     0.211853
     73 H                     0.216609
     74 C                    -0.646605
     75 H                     0.245428
     76 H                     0.216404
     77 H                     0.216437
     78 C                    -0.222069
     79 C                     0.079864
     80 C                    -0.427858
     81 H                     0.221484
     82 C                     0.401488
     83 O                    -0.454142
     84 C                    -0.378652
     85 H                     0.219390
     86 C                     0.079835
     87 C                    -0.406044
     88 H                     0.238503
     89 H                     0.202339
     90 H                     0.203056
     91 C                    -0.550004
     92 H                     0.229124
     93 H                     0.252166
     94 C                    -0.551255
     95 H                     0.255535
     96 H                     0.225047
     97 C                    -0.647584
     98 H                     0.245688
     99 H                     0.216978
    100 H                     0.217735
    101 C                    -0.644074
    102 H                     0.245188
    103 H                     0.217539
    104 H                     0.213720
  ----------------------------------------
  Sum of atomic charges =     0.000000

                    Cartesian Multipole Moments
 -----------------------------------------------------------------
    Charge (ESU x 10^10)
                -0.0000
    Dipole Moment (Debye)
         X      -0.4217      Y       0.0815      Z      -0.2967
       Tot       0.5221
    Quadrupole Moments (Debye-Ang)
        XX    -286.1668     XY     -18.5842     YY    -337.5250
        XZ      -0.3887     YZ      -8.4408     ZZ    -289.7044

 Total job time:  33381.18s(wall), 236653.85s(cpu)
        *  Thank you very much for using Q-Chem.  Have a nice day.  *
