 Q-Chem 5.1, Q-Chem, Inc., Pleasanton, CA (2018)
 Q-Chem 5.1.1 for Intel X86 EM64T Linux

User input:
--------------------------------------------------------------
$rem
threads 8
jobtype	sp
method PBEh-3c
basis def2-mSVP
mem_static	1024
mem_total	14000
sym_ignore	true
cis_n_roots             6
cis_singlets            true
cis_triplets		true
rpa                     false
calc_soc 		true
cis_moments             true
cis_relaxed_density	true
$end

$molecule
read s1opt.mol
$end

--------------------------------------------------------------

             Standard Nuclear Orientation (Angstroms)
    I     Atom           X                Y                Z
 ----------------------------------------------------------------
    1      C       0.0000000000     0.0000000000     0.0000000000
    2      C       0.0000000000     0.0000000000     1.4054370000
    3      H       0.9488811653     0.0000000000     1.9314905685
    4      C      -1.1781645248    -0.0437869158     2.1119045308
    5      C      -2.4229914788    -0.1025402133     1.4211698630
    6      C      -2.4489229915    -0.0785325334     0.0508204419
    7      H      -3.4059819399    -0.1265078912    -0.4600356862
    8      C      -1.2476330848    -0.0189551233    -0.6912726415
    9      C      -1.4523060283    -0.1326291199     3.5419022201
   10      C      -0.6885922756    -0.1655689889     4.6818127644
   11      H       0.3907477581    -0.0893815197     4.6467367039
   12      C      -2.8500160683    -0.2583281533     3.6710288900
   13      C      -3.5131185107    -0.4332385143     4.8832105769
   14      C      -3.4870798306    -0.2518265628     2.4144093720
   15      C      -4.8476044099    -0.4286054362     2.3728713505
   16      H      -5.3933288576    -0.4500096593     1.4375790734
   17      C      -1.3372881018    -0.3209420174     5.9278611623
   18      H      -0.7315120612    -0.3487551425     6.8246356421
   19      C      -2.7015702209    -0.4528514966     6.0428585547
   20      H      -3.1529451344    -0.5846646865     7.0187256219
   21      C      -5.5474827066    -0.6025914816     3.5885272567
   22      H      -6.6200469209    -0.7459899776     3.5525389255
   23      C      -4.9160012779    -0.6052867554     4.8104431255
   24      H      -5.4920115626    -0.7519523831     5.7161609262
   25      B      -1.2413081097    -0.0297432152    -2.2167453834
   26      C       0.0614623559     0.0291791457    -3.0093596879
   27      C       0.0671018916    -0.0355028507    -4.4200072835
   28      H      -0.8710265696    -0.0715474560    -4.9663354431
   29      C       1.2471113779    -0.0983690306    -5.1150685505
   30      C       2.4909821525    -0.0840347015    -4.4192853409
   31      C       2.5043554005    -0.0367739852    -3.0445584787
   32      H       3.4449863820    -0.0832785004    -2.5057236638
   33      C       1.3065591454     0.0152089637    -2.3086232788
   34      C       1.5220304653    -0.3006309451    -6.5340381509
   35      C       0.7534437424    -0.4836687039    -7.6553416534
   36      H      -0.3283108634    -0.4415062925    -7.6193525129
   37      C       2.9224566455    -0.3903028204    -6.6553036743
   38      C       3.5858477303    -0.6645768759    -7.8475976827
   39      C       3.5560287859    -0.2549701450    -5.4025508813
   40      C       4.9223917637    -0.3697876996    -5.3509827142
   41      H       5.4654075181    -0.2917371667    -4.4175129788
   42      C       1.4008212277    -0.7526491282    -8.8818586115
   43      H       0.7943739286    -0.9021552167    -9.7661923138
   44      C       2.7693208813    -0.8436150975    -8.9897785650
   45      H       3.2209074181    -1.0647894055    -9.9491771278
   46      C       5.6253882516    -0.6197619365    -6.5517536558
   47      H       6.7029453513    -0.7132093258    -6.5069747191
   48      C       4.9954311501    -0.7699583118    -7.7655016152
   49      H       5.5768696737    -0.9812131230    -8.6544983978
   50      B       1.3311403303    -0.0637968829    -0.7704983392
   51      C      -2.6084085611    -0.2546200677    -2.9641834755
   52      C      -3.4866637763     0.8321797848    -3.2803837777
   53      C      -4.6578936439     0.5923656556    -3.9381880672
   54      H      -5.3435833000     1.3946702948    -4.1802744056
   55      C      -5.0076106171    -0.7273667230    -4.3251928048
   56      O      -6.1429662740    -0.8380988453    -4.9707468567
   57      C      -4.1680360563    -1.8117290927    -4.0125676648
   58      H      -4.4312312240    -2.8194747338    -4.3059811382
   59      C      -3.0000628020    -1.5933254849    -3.3275939475
   60      C      -6.6074789325    -2.1031021568    -5.4196464963
   61      H      -7.5486221639    -1.9132142336    -5.9254465273
   62      H      -6.7790428857    -2.7816056153    -4.5830282642
   63      H      -5.9063459649    -2.5553056606    -6.1223677701
   64      C      -3.1080667987     2.2328662551    -2.9039282602
   65      H      -2.5926464583     2.2241465166    -1.9427214636
   66      H      -4.0147183376     2.8270882442    -2.7703177370
   67      C      -2.1469591498    -2.7682135007    -2.9518502067
   68      H      -1.1032957358    -2.4654997582    -2.8808182805
   69      H      -2.2039002981    -3.5186542845    -3.7442350529
   70      C      -2.2170899324     2.8840325893    -3.9604417463
   71      H      -1.2767108255     2.3476153668    -4.0748128454
   72      H      -1.9794749558     3.9068056123    -3.6712670774
   73      H      -2.7128010396     2.9151289036    -4.9313685151
   74      C      -2.5896312084    -3.3940831696    -1.6272429508
   75      H      -2.4991958005    -2.6890256597    -0.8026756815
   76      H      -1.9610283764    -4.2532078210    -1.3970584682
   77      H      -3.6239428555    -3.7374567041    -1.6720268598
   78      C       2.6710601292    -0.3403222973     0.0161224925
   79      C       3.5918758092     0.6711501784     0.2976230134
   80      C       4.7688400178     0.4024317777     0.9976923685
   81      H       5.4523145492     1.2193429083     1.1955908916
   82      C       5.0458818541    -0.8865078834     1.4266104190
   83      O       6.1593012960    -1.2503940300     2.1030539123
   84      C       4.1341204645    -1.9017754757     1.1586505446
   85      H       4.3566496217    -2.9071918640     1.4987693879
   86      C       2.9629250838    -1.6429515813     0.4669851342
   87      C       7.1103404841    -0.2662284398     2.3985828853
   88      H       7.9170782763    -0.7622780788     2.9351437864
   89      H       7.5267727934     0.1957527134     1.4970285578
   90      H       6.7066294309     0.5269869220     3.0370740560
   91      C       3.3045472535     2.0995712373    -0.0852343383
   92      H       2.7354060747     2.1320371756    -1.0170844137
   93      H       4.2431904447     2.6253919761    -0.2811838830
   94      C       2.0470000886    -2.8054340989     0.1686455440
   95      H       1.0020615381    -2.4912123819     0.2162105010
   96      H       2.1673816055    -3.5661857606     0.9445124837
   97      C       2.3231958541    -3.4349256549    -1.1954696605
   98      H       2.1714299213    -2.7168657088    -2.0012761132
   99      H       3.3507605446    -3.7942790426    -1.2615683841
  100      H       1.6602793022    -4.2836201129    -1.3743505825
  101      C       2.5286806606     2.8382132526     1.0037447715
  102      H       1.5529653899     2.3810797825     1.1694939467
  103      H       3.0687307339     2.8201573132     1.9514078219
  104      H       2.3631354865     3.8815439348     0.7311969160
 ----------------------------------------------------------------

   15   -2280.7030709574      7.03e-09  Convergence criterion met
 Total energy in the final basis set =    -2280.7030709574

         TDDFT/TDA Excitation Energies
 ---------------------------------------------------

 Excited state   1: excitation energy (eV) =    2.2086
 Total energy for state  1:                 -2280.62190516 au
    Multiplicity: Triplet
    Trans. Mom.:  0.0000 X   0.0000 Y   0.0000 Z
    Strength   :     0.0000000000
    D(191) --> V(  2) amplitude =  0.2445
    D(195) --> V(  1) amplitude =  0.5694
    D(196) --> V(  1) amplitude =  0.6956

 Excited state   2: excitation energy (eV) =    2.4070
 Total energy for state  2:                 -2280.61461399 au
    Multiplicity: Triplet
    Trans. Mom.:  0.0000 X   0.0000 Y   0.0000 Z
    Strength   :     0.0000000000
    D(194) --> V(  2) amplitude =  0.3253
    D(195) --> V(  1) amplitude =  0.4720
    D(196) --> V(  1) amplitude = -0.2316
    D(198) --> V(  1) amplitude =  0.6849

 Excited state   3: excitation energy (eV) =    2.4620
 Total energy for state  3:                 -2280.61259546 au
    Multiplicity: Triplet
    Trans. Mom.:  0.0000 X   0.0000 Y   0.0000 Z
    Strength   :     0.0000000000
    D(194) --> V(  1) amplitude =  0.3028
    D(194) --> V(  2) amplitude = -0.3330
    D(195) --> V(  1) amplitude = -0.3254
    D(196) --> V(  1) amplitude =  0.4206
    D(198) --> V(  1) amplitude =  0.5708

 Excited state   4: excitation energy (eV) =    2.4869
 Total energy for state  4:                 -2280.61167751 au
    Multiplicity: Singlet
    Trans. Mom.: -0.1727 X  -0.0297 Y  -0.3680 Z
    Strength   :     0.0101215854
    D(198) --> V(  1) amplitude =  0.9724

 Excited state   5: excitation energy (eV) =    2.4966
 Total energy for state  5:                 -2280.61132419 au
    Multiplicity: Triplet
    Trans. Mom.:  0.0000 X   0.0000 Y   0.0000 Z
    Strength   :     0.0000000000
    D(194) --> V(  1) amplitude =  0.6400
    D(195) --> V(  2) amplitude =  0.3777
    D(196) --> V(  2) amplitude = -0.3278
    D(198) --> V(  1) amplitude = -0.2926

 Excited state   6: excitation energy (eV) =    2.7053
 Total energy for state  6:                 -2280.60365297 au
    Multiplicity: Triplet
    Trans. Mom.:  0.0000 X   0.0000 Y   0.0000 Z
    Strength   :     0.0000000000
    D(191) --> V(  1) amplitude = -0.6670
    D(195) --> V(  2) amplitude = -0.3583
    D(196) --> V(  2) amplitude = -0.4025
    D(197) --> V(  1) amplitude = -0.2587

 Excited state   7: excitation energy (eV) =    2.8919
 Total energy for state  7:                 -2280.59679541 au
    Multiplicity: Singlet
    Trans. Mom.: -0.1143 X   0.0110 Y  -0.0370 Z
    Strength   :     0.0010308185
    D(195) --> V(  1) amplitude =  0.5979
    D(196) --> V(  1) amplitude =  0.7147
    D(197) --> V(  1) amplitude = -0.2580

 Excited state   8: excitation energy (eV) =    2.8960
 Total energy for state  8:                 -2280.59664369 au
    Multiplicity: Triplet
    Trans. Mom.:  0.0000 X   0.0000 Y   0.0000 Z
    Strength   :     0.0000000000
    D(191) --> V(  1) amplitude = -0.2162
    D(197) --> V(  1) amplitude =  0.8638

 Excited state   9: excitation energy (eV) =    2.9424
 Total energy for state  9:                 -2280.59493970 au
    Multiplicity: Singlet
    Trans. Mom.:  0.2369 X  -0.0089 Y   0.5368 Z
    Strength   :     0.0248217929
    D(195) --> V(  1) amplitude =  0.2615
    D(197) --> V(  1) amplitude =  0.9253

 Excited state  10: excitation energy (eV) =    3.2197
 Total energy for state 10:                 -2280.58474949 au
    Multiplicity: Singlet
    Trans. Mom.:  1.7259 X  -0.0530 Y  -2.9847 Z
    Strength   :     0.9378850957
    D(195) --> V(  1) amplitude =  0.6972
    D(196) --> V(  1) amplitude = -0.6290

 Excited state  11: excitation energy (eV) =    3.5204
 Total energy for state 11:                 -2280.57369966 au
    Multiplicity: Singlet
    Trans. Mom.: -0.0980 X   0.1396 Y  -0.0055 Z
    Strength   :     0.0025127096
    D(194) --> V(  1) amplitude =  0.9306

 Excited state  12: excitation energy (eV) =    3.6587
 Total energy for state 12:                 -2280.56861742 au
    Multiplicity: Singlet
    Trans. Mom.: -0.6886 X  -0.0071 Y  -0.3848 Z
    Strength   :     0.0557803117
    D(191) --> V(  1) amplitude = -0.7160
    D(195) --> V(  2) amplitude = -0.3913
    D(196) --> V(  2) amplitude = -0.4261

 ---------------------------------------------------

                    Orbital Energies (a.u.)
 --------------------------------------------------------------

 Alpha MOs
 -- Occupied --
-19.523 -19.522 -10.499 -10.498 -10.493 -10.488 -10.463 -10.463
-10.462 -10.462 -10.462 -10.462 -10.460 -10.460 -10.460 -10.460
-10.460 -10.459 -10.459 -10.459 -10.459 -10.459 -10.458 -10.458
-10.458 -10.458 -10.457 -10.457 -10.450 -10.450 -10.449 -10.448
-10.447 -10.446 -10.445 -10.444 -10.444 -10.442 -10.433 -10.431
-10.431 -10.430 -10.429 -10.429 -10.429 -10.428 -10.428 -10.426
-10.425 -10.422 -10.419 -10.415 -10.415 -10.414 -10.414 -10.412
 -6.942  -6.935  -1.189  -1.179  -1.013  -1.012  -0.958  -0.955
 -0.951  -0.942  -0.931  -0.931  -0.905  -0.896  -0.885  -0.885
 -0.863  -0.859  -0.852  -0.851  -0.845  -0.844  -0.821  -0.818
 -0.816  -0.811  -0.809  -0.800  -0.797  -0.797  -0.772  -0.767
 -0.732  -0.727  -0.725  -0.718  -0.708  -0.705  -0.700  -0.698
 -0.687  -0.678  -0.677  -0.663  -0.653  -0.644  -0.642  -0.642
 -0.627  -0.623  -0.593  -0.590  -0.589  -0.587  -0.581  -0.580
 -0.579  -0.573  -0.573  -0.560  -0.558  -0.541  -0.541  -0.538
 -0.533  -0.533  -0.525  -0.521  -0.510  -0.504  -0.502  -0.501
 -0.500  -0.498  -0.495  -0.492  -0.490  -0.486  -0.486  -0.482
 -0.481  -0.480  -0.479  -0.478  -0.478  -0.476  -0.475  -0.464
 -0.461  -0.457  -0.456  -0.452  -0.452  -0.448  -0.439  -0.439
 -0.432  -0.429  -0.428  -0.426  -0.425  -0.424  -0.422  -0.414
 -0.414  -0.409  -0.405  -0.404  -0.398  -0.397  -0.396  -0.393
 -0.392  -0.392  -0.390  -0.389  -0.388  -0.383  -0.378  -0.377
 -0.374  -0.369  -0.359  -0.358  -0.353  -0.352  -0.349  -0.345
 -0.337  -0.331  -0.315  -0.310  -0.293  -0.292  -0.278  -0.273
 -0.271  -0.258  -0.252  -0.251  -0.247  -0.231

          Ground-State Mulliken Net Atomic Charges

     Atom                 Charge (a.u.)
  ----------------------------------------
      1 C                    -0.141048
      2 C                    -0.397782
      3 H                     0.237727
      4 C                     0.107034
      5 C                     0.096069
      6 C                    -0.391191
      7 H                     0.238227
      8 C                    -0.146227
      9 C                     0.193623
     10 C                    -0.379734
     11 H                     0.221164
     12 C                    -0.065498
     13 C                     0.248474
     14 C                     0.199352
     15 C                    -0.381672
     16 H                     0.221303
     17 C                    -0.204217
     18 H                     0.225748
     19 C                    -0.332804
     20 H                     0.219895
     21 C                    -0.203552
     22 H                     0.225957
     23 C                    -0.333083
     24 H                     0.219739
     25 B                     0.624439
     26 C                    -0.146730
     27 C                    -0.390285
     28 H                     0.237682
     29 C                     0.097397
     30 C                     0.104718
     31 C                    -0.391466
     32 H                     0.232842
     33 C                    -0.150273
     34 C                     0.195050
     35 C                    -0.377554
     36 H                     0.221181
     37 C                    -0.063202
     38 C                     0.248929
     39 C                     0.191909
     40 C                    -0.379227
     41 H                     0.220516
     42 C                    -0.204247
     43 H                     0.225895
     44 C                    -0.332859
     45 H                     0.219758
     46 C                    -0.203740
     47 H                     0.225599
     48 C                    -0.333268
     49 H                     0.220126
     50 B                     0.641113
     51 C                    -0.256803
     52 C                     0.120041
     53 C                    -0.392306
     54 H                     0.215577
     55 C                     0.400913
     56 O                    -0.444061
     57 C                    -0.444247
     58 H                     0.217049
     59 C                     0.091361
     60 C                    -0.403234
     61 H                     0.242263
     62 H                     0.209396
     63 H                     0.209039
     64 C                    -0.545842
     65 H                     0.248305
     66 H                     0.228362
     67 C                    -0.553238
     68 H                     0.261552
     69 H                     0.225737
     70 C                    -0.648532
     71 H                     0.244760
     72 H                     0.217344
     73 H                     0.217404
     74 C                    -0.642775
     75 H                     0.247594
     76 H                     0.215203
     77 H                     0.212006
     78 C                    -0.223121
     79 C                     0.088121
     80 C                    -0.421191
     81 H                     0.221236
     82 C                     0.401949
     83 O                    -0.453908
     84 C                    -0.378076
     85 H                     0.219925
     86 C                     0.072270
     87 C                    -0.405469
     88 H                     0.238605
     89 H                     0.202513
     90 H                     0.202324
     91 C                    -0.546311
     92 H                     0.251354
     93 H                     0.224285
     94 C                    -0.550549
     95 H                     0.257573
     96 H                     0.230221
     97 C                    -0.645549
     98 H                     0.245174
     99 H                     0.218317
    100 H                     0.214964
    101 C                    -0.644219
    102 H                     0.241602
    103 H                     0.214163
    104 H                     0.219116
  ----------------------------------------
  Sum of atomic charges =     0.000000

                    Cartesian Multipole Moments
 -----------------------------------------------------------------
    Charge (ESU x 10^10)
                 0.0000
    Dipole Moment (Debye)
         X       0.2408      Y      -1.1604      Z      -0.2739
       Tot       1.2163
    Quadrupole Moments (Debye-Ang)
        XX    -287.7346     XY      17.5841     YY    -336.8180
        XZ       0.8747     YZ      14.0132     ZZ    -289.2971

 Total job time:  8396.12s(wall), 40526.27s(cpu)
        *  Thank you very much for using Q-Chem.  Have a nice day.  *
