 Q-Chem 5.0, Q-Chem, Inc., Pleasanton, CA (2017)
 Q-Chem 5.0.1 for Intel X86 EM64T Linux

User input:
--------------------------------------------------------------
$rem
threads 8
jobtype	opt
method PBEh-3c
basis def2-mSVP
mem_static	1024
mem_total	14000
sym_ignore	true
cis_n_roots             4
cis_singlets            false
cis_triplets		true
rpa                     false
cis_state_deriv         3
state_follow		true
$end

$molecule
read incoords.mol
$end

--------------------------------------------------------------

   15   -2280.6599868326      4.67E-09 Convergence criterion met
 Total energy in the final basis set = -2280.65998683
   12   -2280.6916455011      8.83E-09 Convergence criterion met
 Total energy in the final basis set = -2280.69164550
   13   -2280.7016734542      5.40E-09 Convergence criterion met
 Total energy in the final basis set = -2280.70167345
   12   -2280.7033254416      9.29E-09 Convergence criterion met
 Total energy in the final basis set = -2280.70332544
   13   -2280.7040563119      4.77E-09 Convergence criterion met
 Total energy in the final basis set = -2280.70405631
   12   -2280.7039786912      6.60E-09 Convergence criterion met
 Total energy in the final basis set = -2280.70397869
   12   -2280.7044698737      9.45E-09 Convergence criterion met
 Total energy in the final basis set = -2280.70446987
   12   -2280.7047273429      6.58E-09 Convergence criterion met
   11   -2280.7063843110      5.70E-09 Convergence criterion met
 Total energy in the final basis set = -2280.70638431
   10   -2280.7064696885      8.70E-09 Convergence criterion met
 Total energy in the final basis set = -2280.70646969
   10   -2280.7065578378      5.66E-09 Convergence criterion met
 Total energy in the final basis set = -2280.70655784
   10   -2280.7065321782      4.42E-09 Convergence criterion met
 Total energy in the final basis set = -2280.70653218
    8   -2280.7065214153      8.50E-09 Convergence criterion met
 Total energy in the final basis set = -2280.70652142
    8   -2280.7065311088      5.80E-09 Convergence criterion met
 Total energy in the final basis set = -2280.70653111

             Standard Nuclear Orientation (Angstroms)
    I     Atom           X                Y                Z
 ----------------------------------------------------------------
    1      C       2.5714485606    -1.6072150379     0.3297014390
    2      C       3.5407112123    -1.3045975441    -0.7161474940
    3      B       4.5250036325    -2.3849917941    -1.1955590320
    4      C       4.5570563774    -3.7307894231    -0.4548060355
    5      C       3.5665134038    -4.0445480154     0.5591155926
    6      B       2.5167614764    -3.0020888400     0.9766266476
    7      C       5.5002491941    -4.7035771556    -0.8237662614
    8      C       5.4639671353    -5.9529710891    -0.2584244032
    9      C       4.4391236119    -6.2836358031     0.7126130202
   10      C       3.5270690878    -5.3353626614     1.1066813957
   11      C       1.6161127174    -0.6447631811     0.6771430344
   12      C       1.5875422150     0.5714372773     0.0363317080
   13      C       2.5704824568     0.8862347619    -0.9879096739
   14      C       3.5128473359    -0.0475928755    -1.3426199188
   15      C       7.2978718274    -7.4752546317    -1.3241861889
   16      C       7.7621600087    -8.8072089781    -1.3266962917
   17      C       7.1916512489    -9.7931863405    -0.5527983212
   18      C       6.0969827635    -9.4910904818     0.2917148644
   19      C       5.6712366095    -8.1657904285     0.2915811344
   20      C       6.2426185599    -7.1512218715    -0.5053325821
   21      C       5.3625118387   -10.3822024962     1.1105743968
   22      C       4.2888938602    -9.9259830529     1.8431826820
   23      C       3.8736409674    -8.5784452807     1.8226373394
   24      C       4.5736411576    -7.6887262956     1.0411005536
   25      C       2.0699105539     4.1858163880    -2.8348944007
   26      C       2.7445793657     2.9857485186    -2.5292458923
   27      C       2.2368510717     2.1875790982    -1.5316084462
   28      C       1.0675441363     2.6091808579    -0.8608519535
   29      C       0.3678249269     3.7727885793    -1.1624558601
   30      C       0.9181970544     4.5779387549    -2.1882674778
   31      C       0.6447115071     1.6616312637     0.0981131783
   32      C      -0.5220690485     1.8928718722     0.7898346994
   33      C      -1.2425414675     3.0700468992     0.5085336334
   34      C      -0.8258964608     3.9877332324    -0.4319132663
   35      C       7.3720175527    -1.2777932154    -3.5986877804
   36      C       6.6005911391    -1.4460795117    -2.4483664772
   37      C       5.4117377429    -2.1775117053    -2.4800761104
   38      C       5.0141569449    -2.7487500589    -3.7050017335
   39      C       5.7849100788    -2.5742319588    -4.8413766833
   40      C       6.9643144694    -1.8374746117    -4.8002162857
   41      C       7.1231449978    -0.8785970567    -1.1541711513
   42      C       3.7186417492    -3.5126510119    -3.8376131081
   43      O       7.6346223307    -1.7245739622    -5.9670224512
   44      C       8.8290546283    -0.9918232581    -5.9838616224
   45      C       0.5906260153    -3.7909648955     4.2503486670
   46      C       1.6009918648    -3.4251081925     3.3769446713
   47      C       1.3723339929    -3.3903451372     1.9897922323
   48      C       0.1024082386    -3.7413708196     1.5219400006
   49      C      -0.9105797560    -4.1052495848     2.4088347981
   50      C      -0.6720663679    -4.1313545063     3.7744270072
   51      C       2.9293412576    -3.0014757270     3.9460444779
   52      C      -0.2059143957    -3.8101337421     0.0458454579
   53      O      -1.5912896243    -4.4692649537     4.7043024773
   54      C      -2.8824312309    -4.8061789455     4.2752428770
   55      H       6.2298863556    -4.4707687534    -1.5909304024
   56      H       2.7542545768    -5.5841569470     1.8252969160
   57      H       0.8721092168    -0.8857655339     1.4283979489
   58      H       4.2169245503     0.1566710726    -2.1414219037
   59      H       7.7657544175    -6.7419306516    -1.9681241518
   60      H       8.5918730407    -9.0643082123    -1.9721427604
   61      H       7.5742747153   -10.8053227106    -0.6007484507
   62      H       5.6366798732   -11.4292086533     1.1524446676
   63      H       3.7361352687   -10.6281261508     2.4537612858
   64      H       3.0142030476    -8.2727429000     2.4054475116
   65      H       2.4659255821     4.8141128377    -3.6219550452
   66      H       3.6289327729     2.7066073243    -3.0873888535
   67      H       0.4269301592     5.4992748196    -2.4753975139
   68      H      -0.8985208778     1.1905405368     1.5225663497
   69      H      -2.1641389205     3.2538230886     1.0452489152
   70      H      -1.4227549488     4.8714688010    -0.6203815585
   71      H       8.2890849914    -0.7054416666    -3.5291831530
   72      H       5.4730234282    -3.0092974733    -5.7843217105
   73      H       7.6803813277     0.0409706008    -1.3524551654
   74      C       8.0254073179    -1.8663988389    -0.4171485803
   75      H       6.2938735028    -0.5946085248    -0.5015383191
   76      H       3.8057617111    -4.2280464461    -4.6591619495
   77      C       2.5220574632    -2.5993821130    -4.0971075929
   78      H       3.5275432862    -4.1106723442    -2.9433085623
   79      H       9.1989012559    -1.0221310086    -7.0068334727
   80      H       9.5919810651    -1.4225720024    -5.3267905541
   81      H       8.6791445973     0.0551507357    -5.7001980051
   82      H       0.7699242456    -3.8118628220     5.3193038256
   83      H      -1.8802682899    -4.3676592624     2.0027739634
   84      H       3.7413657122    -3.3053725653     3.2808111999
   85      H       3.1047397543    -3.5187829677     4.8925143041
   86      C       2.9994365500    -1.4936343427     4.1732475814
   87      H       0.4011262232    -3.0927238373    -0.5106594328
   88      H      -1.2451533279    -3.5152885712    -0.1241585969
   89      C       0.0205993741    -5.2079602005    -0.5270109836
   90      H      -3.4591659863    -5.0330643025     5.1696648200
   91      H      -3.3736539025    -3.9828399535     3.7457366019
   92      H      -2.8898392099    -5.6876883678     3.6254301914
   93      H       2.6643533007    -2.0159689105    -5.0073159352
   94      H       2.3698550999    -1.8985926429    -3.2761894519
   95      H       1.6060541973    -3.1809675121    -4.2099020562
   96      H       1.0602773625    -5.5156862015    -0.4131151253
   97      H      -0.2210569505    -5.2402271197    -1.5902842481
   98      H      -0.6002135938    -5.9472147148    -0.0193448381
   99      H       2.8870391704    -0.9479312403     3.2362844441
  100      H       3.9561123923    -1.2062745155     4.6109428264
  101      H       2.2074286817    -1.1634003876     4.8461247303
  102      H       8.8710237852    -2.1641229728    -1.0384283186
  103      H       7.4810023398    -2.7707409579    -0.1442706890
  104      H       8.4202537695    -1.4299358886     0.5010382147
 ----------------------------------------------------------------

    8   -2280.7065413680      5.86E-09 Convergence criterion met
 Total energy in the final basis set = -2280.70654137

         TDDFT/TDA Excitation Energies
 ---------------------------------------------------

 Excited state   1: excitation energy (eV) =    1.9997
 Total energy for state  1:                 -2280.63305418 au
    Multiplicity: Triplet
    Trans. Mom.:  0.0000 X   0.0000 Y   0.0000 Z
    Strength   :     0.0000000000
    D(191) --> V(  2) amplitude = -0.2486
    D(196) --> V(  1) amplitude = -0.2502
    D(197) --> V(  1) amplitude =  0.7077
    D(198) --> V(  1) amplitude =  0.5394

 Excited state   2: excitation energy (eV) =    2.3708
 Total energy for state  2:                 -2280.61941565 au
    Multiplicity: Triplet
    Trans. Mom.:  0.0000 X   0.0000 Y   0.0000 Z
    Strength   :     0.0000000000
    D(194) --> V(  2) amplitude = -0.4650
    D(195) --> V(  1) amplitude =  0.7475
    D(198) --> V(  1) amplitude = -0.2268

 Excited state   3: excitation energy (eV) =    2.4289
 Total energy for state  3:                 -2280.61728106 au
    Multiplicity: Triplet
    Trans. Mom.:  0.0000 X   0.0000 Y   0.0000 Z
    Strength   :     0.0000000000
    D(194) --> V(  1) amplitude = -0.6742
    D(194) --> V(  4) amplitude =  0.2145
    D(195) --> V(  2) amplitude =  0.5187
    D(196) --> V(  1) amplitude =  0.2281

 Excited state   4: excitation energy (eV) =    2.4894
 Total energy for state  4:                 -2280.61505773 au
    Multiplicity: Triplet
    Trans. Mom.:  0.0000 X   0.0000 Y   0.0000 Z
    Strength   :     0.0000000000
    D(191) --> V(  1) amplitude =  0.6422
    D(197) --> V(  2) amplitude = -0.4266
    D(198) --> V(  2) amplitude = -0.2800

 ---------------------------------------------------

 Final energy is   -2280.63305417829
 **  OPTIMIZATION CONVERGED  **

                    Orbital Energies (a.u.)
 --------------------------------------------------------------

 Alpha MOs
 -- Occupied --
-19.522 -19.522 -10.498 -10.498 -10.488 -10.488 -10.464 -10.464
-10.463 -10.463 -10.463 -10.462 -10.462 -10.461 -10.461 -10.461
-10.461 -10.460 -10.460 -10.460 -10.459 -10.458 -10.458 -10.458
-10.458 -10.458 -10.458 -10.458 -10.450 -10.449 -10.448 -10.448
-10.447 -10.447 -10.446 -10.445 -10.445 -10.444 -10.432 -10.432
-10.432 -10.431 -10.431 -10.431 -10.431 -10.430 -10.429 -10.428
-10.426 -10.425 -10.419 -10.417 -10.415 -10.414 -10.414 -10.414
 -6.940  -6.939  -1.180  -1.180  -1.012  -1.011  -0.957  -0.953
 -0.951  -0.950  -0.932  -0.931  -0.903  -0.894  -0.885  -0.885
 -0.864  -0.861  -0.854  -0.853  -0.846  -0.845  -0.819  -0.819
 -0.813  -0.811  -0.810  -0.797  -0.797  -0.795  -0.772  -0.771
 -0.731  -0.730  -0.727  -0.716  -0.707  -0.707  -0.700  -0.699
 -0.687  -0.680  -0.676  -0.664  -0.653  -0.644  -0.640  -0.639
 -0.627  -0.627  -0.596  -0.592  -0.588  -0.588  -0.581  -0.581
 -0.581  -0.574  -0.573  -0.560  -0.559  -0.540  -0.540  -0.534
 -0.533  -0.533  -0.525  -0.521  -0.513  -0.506  -0.502  -0.501
 -0.499  -0.499  -0.497  -0.494  -0.490  -0.489  -0.485  -0.482
 -0.481  -0.480  -0.479  -0.478  -0.478  -0.478  -0.476  -0.463
 -0.459  -0.457  -0.456  -0.454  -0.451  -0.449  -0.441  -0.435
 -0.432  -0.431  -0.428  -0.426  -0.425  -0.425  -0.420  -0.413
 -0.410  -0.409  -0.406  -0.404  -0.398  -0.397  -0.397  -0.394
 -0.393  -0.393  -0.390  -0.388  -0.387  -0.383  -0.378  -0.378
 -0.372  -0.368  -0.360  -0.359  -0.355  -0.355  -0.351  -0.343
 -0.337  -0.333  -0.318  -0.312  -0.294  -0.293  -0.274  -0.271
 -0.271  -0.259  -0.252  -0.248  -0.245  -0.245

          Ground-State Mulliken Net Atomic Charges

     Atom                 Charge (a.u.)
  ----------------------------------------
      1 C                    -0.150471
      2 C                    -0.156983
      3 B                     0.637716
      4 C                    -0.149304
      5 C                    -0.153190
      6 B                     0.641082
      7 C                    -0.387389
      8 C                     0.093022
      9 C                     0.087733
     10 C                    -0.385519
     11 C                    -0.384372
     12 C                     0.085351
     13 C                     0.090968
     14 C                    -0.382637
     15 C                    -0.374955
     16 C                    -0.204855
     17 C                    -0.332497
     18 C                     0.247432
     19 C                    -0.069416
     20 C                     0.198171
     21 C                    -0.331986
     22 C                    -0.204711
     23 C                    -0.374588
     24 C                     0.199560
     25 C                    -0.204358
     26 C                    -0.373583
     27 C                     0.197510
     28 C                    -0.069543
     29 C                     0.248202
     30 C                    -0.332678
     31 C                     0.195937
     32 C                    -0.369634
     33 C                    -0.205175
     34 C                    -0.331934
     35 C                    -0.422804
     36 C                     0.087965
     37 C                    -0.223714
     38 C                     0.075825
     39 C                    -0.379351
     40 C                     0.402730
     41 C                    -0.546880
     42 C                    -0.550894
     43 O                    -0.453572
     44 C                    -0.405302
     45 C                    -0.375100
     46 C                     0.089658
     47 C                    -0.228453
     48 C                     0.072116
     49 C                    -0.425329
     50 C                     0.402294
     51 C                    -0.547965
     52 C                    -0.551442
     53 O                    -0.453782
     54 C                    -0.405713
     55 H                     0.239055
     56 H                     0.238216
     57 H                     0.237366
     58 H                     0.233834
     59 H                     0.221738
     60 H                     0.226191
     61 H                     0.220003
     62 H                     0.219905
     63 H                     0.226267
     64 H                     0.222281
     65 H                     0.226101
     66 H                     0.221184
     67 H                     0.220216
     68 H                     0.221995
     69 H                     0.226226
     70 H                     0.220036
     71 H                     0.221028
     72 H                     0.219718
     73 H                     0.224255
     74 C                    -0.643534
     75 H                     0.252231
     76 H                     0.230087
     77 C                    -0.645262
     78 H                     0.257363
     79 H                     0.238797
     80 H                     0.202596
     81 H                     0.202778
     82 H                     0.219335
     83 H                     0.221488
     84 H                     0.252042
     85 H                     0.229042
     86 C                    -0.645145
     87 H                     0.259181
     88 H                     0.225665
     89 C                    -0.641571
     90 H                     0.238842
     91 H                     0.202997
     92 H                     0.203001
     93 H                     0.217758
     94 H                     0.245410
     95 H                     0.214957
     96 H                     0.243252
     97 H                     0.216761
     98 H                     0.212533
     99 H                     0.241309
    100 H                     0.217884
    101 H                     0.217607
    102 H                     0.213448
    103 H                     0.241212
    104 H                     0.219128
  ----------------------------------------
  Sum of atomic charges =    -0.000000

                    Cartesian Multipole Moments
 -----------------------------------------------------------------
    Charge (ESU x 10^10)
                -0.0000
    Dipole Moment (Debye)
         X      -0.5696      Y       0.1309      Z      -1.0195
       Tot       1.1751
    Quadrupole Moments (Debye-Ang)
        XX    -294.6169     XY      -1.9585     YY    -293.8130
        XZ     -23.4888     YZ     -11.7439     ZZ    -333.7424

 Total job time:  62422.60s(wall), 383549.68s(cpu)
        *  Thank you very much for using Q-Chem.  Have a nice day.  *
