 Q-Chem 5.1, Q-Chem, Inc., Pleasanton, CA (2018)
 Q-Chem 5.1.1 for Intel X86 EM64T Linux

User input:
--------------------------------------------------------------
$rem
threads 8
jobtype	opt
method PBEh-3c
basis def2-mSVP
mem_static	1024
mem_total	14000
sym_ignore	true
cis_n_roots             4
cis_singlets            false
cis_triplets		true
rpa                     false
cis_state_deriv         1
state_follow		true
$end

$molecule
read t3preopt.mol
$end

--------------------------------------------------------------

   15   -2280.7084582983      6.95e-09  Convergence criterion met
 Total energy in the final basis set =    -2280.7084582983
    9   -2280.7083619465      7.59e-09  Convergence criterion met
 Total energy in the final basis set =    -2280.7083619465
    9   -2280.7082501237      9.30e-09  Convergence criterion met
 Total energy in the final basis set =    -2280.7082501237
    9   -2280.7082725113      7.82e-09  Convergence criterion met
 Total energy in the final basis set =    -2280.7082725113
   10   -2280.7082640510      4.53e-09  Convergence criterion met
 Total energy in the final basis set =    -2280.7082640510
   10   -2280.7082387651      4.77e-09  Convergence criterion met
 Total energy in the final basis set =    -2280.7082387651
    9   -2280.7082153245      6.95e-09  Convergence criterion met
 Total energy in the final basis set =    -2280.7082153245

             Standard Nuclear Orientation (Angstroms)
    I     Atom           X                Y                Z
 ----------------------------------------------------------------
    1      C       0.0616905247    -0.4140551712     0.0902192893
    2      C       0.0620903097    -0.3971587996     1.4992779168
    3      H       1.0100366240    -0.3946290901     2.0257028383
    4      C      -1.1207256013    -0.3836552694     2.1961170172
    5      C      -2.3837328251    -0.3838226621     1.4681137712
    6      C      -2.4027529151    -0.3952349365     0.0912563270
    7      H      -3.3467606514    -0.3937755157    -0.4426463783
    8      C      -1.2098905787    -0.4055761947    -0.6305232170
    9      C      -1.4395334268    -0.3668905659     3.6122965207
   10      C      -0.7156950913    -0.3588785654     4.7806571562
   11      H       0.3665339927    -0.3652475677     4.7811388951
   12      C      -2.8496683624    -0.3581465042     3.7007353147
   13      C      -3.5672173278    -0.3415877486     4.8915166052
   14      C      -3.4557256479    -0.3679886185     2.4227158232
   15      C      -4.8315668319    -0.3606116596     2.3315061907
   16      H      -5.3392613725    -0.3668814381     1.3752898860
   17      C      -1.4184685866    -0.3420525389     6.0037941298
   18      H      -0.8490813080    -0.3356668219     6.9238610526
   19      C      -2.7942828373    -0.3334415505     6.0759196199
   20      H      -3.2832018236    -0.3204330855     7.0419608295
   21      C      -5.5755456578    -0.3442267970     3.5247927822
   22      H      -6.6560489166    -0.3384432123     3.4629197204
   23      C      -4.9791727633    -0.3348762937     4.7692620443
   24      H      -5.5974882544    -0.3221470480     5.6581811798
   25      B      -1.2517041108    -0.4024361153    -2.1662445325
   26      C       0.0832497136    -0.4180567802    -2.9276405775
   27      C       0.0766459480    -0.4226951485    -4.3260558062
   28      H      -0.8693379938    -0.4021341079    -4.8554448523
   29      C       1.2581528735    -0.4585305121    -5.0242698360
   30      C       2.5265261895    -0.4954960829    -4.3332314009
   31      C       2.5509233780    -0.4872763739    -2.9612334937
   32      H       3.4938668173    -0.5200119653    -2.4276350266
   33      C       1.3489825978    -0.4443041886    -2.2251543445
   34      C       1.5140933575    -0.4775273957    -6.4465933152
   35      C       0.7245462885    -0.4600795261    -7.5725882143
   36      H      -0.3556225011    -0.4193612639    -7.5108430501
   37      C       2.9153802286    -0.5301302127    -6.5957781667
   38      C       3.5585637348    -0.5687231990    -7.8296815372
   39      C       3.5727409571    -0.5435527946    -5.3473408766
   40      C       4.9443779943    -0.5992553144    -5.3408432337
   41      H       5.5098909069    -0.6152220291    -4.4182473272
   42      C       1.3538304616    -0.4966942912    -8.8335267798
   43      H       0.7360228132    -0.4828401329    -9.7221069765
   44      C       2.7231967892    -0.5500985573    -8.9733484394
   45      H       3.1616698508    -0.5778833501    -9.9633164882
   46      C       5.6248322949    -0.6386129755    -6.5781998468
   47      H       6.7059562697    -0.6828243073    -6.5694734909
   48      C       4.9708684686    -0.6245232417    -7.7893334008
   49      H       5.5389438401    -0.6574714681    -8.7108258370
   50      B       1.3893612337    -0.4397050261    -0.6872001043
   51      C      -2.6240578896    -0.3991483309    -2.9469528282
   52      C      -3.3316523069     0.7946609955    -3.1752156593
   53      C      -4.5308800844     0.7841291173    -3.8678272741
   54      H      -5.0703165889     1.7086950216    -4.0407387223
   55      C      -5.0617328220    -0.4048417439    -4.3568918625
   56      O      -6.2352511291    -0.3083929651    -5.0183621946
   57      C      -4.3736456519    -1.5894400386    -4.1435031334
   58      H      -4.7565774036    -2.5349660184    -4.5091462913
   59      C      -3.1667162417    -1.5877289184    -3.4451462136
   60      C      -6.8134367928    -1.4800953996    -5.5268526313
   61      H      -7.7411884874    -1.1846390569    -6.0127517805
   62      H      -7.0494646142    -2.2039963308    -4.7397321464
   63      H      -6.1756577850    -1.9723246442    -6.2686450018
   64      C      -2.7765976608     2.1250792329    -2.7374712164
   65      H      -2.1660791215     2.0085742176    -1.8388328484
   66      H      -3.5987717504     2.7893764323    -2.4588583863
   67      C      -2.5029650756    -2.9189032997    -3.1961493574
   68      H      -1.4261332151    -2.7910830083    -3.0653541480
   69      H      -2.6234718094    -3.5576235221    -4.0755529221
   70      C      -1.9449875036     2.7855421090    -3.8348807386
   71      H      -1.0835873808     2.1725473394    -4.1008561297
   72      H      -1.5725529207     3.7590449521    -3.5139277904
   73      H      -2.5371867206     2.9329846920    -4.7386578718
   74      C      -3.0781909902    -3.6289562923    -1.9729347726
   75      H      -2.9271800709    -3.0370697984    -1.0699249233
   76      H      -2.6008910516    -4.5975577109    -1.8195465207
   77      H      -4.1503182285    -3.7968643971    -2.0825818721
   78      C       2.7671117031    -0.4696467257     0.0705028148
   79      C       3.5290631961     0.6924446458     0.2204826074
   80      C       4.7471327644     0.6650605103     0.8985970736
   81      H       5.3036117143     1.5889267897     0.9985823077
   82      C       5.2239211696    -0.5247870822     1.4302434347
   83      O       6.3886235373    -0.6515808858     2.1015028568
   84      C       4.4747766905    -1.6876302597     1.2788701137
   85      H       4.8566219973    -2.6137319614     1.6937660868
   86      C       3.2613499229    -1.6689376495     0.6125467479
   87      C       7.1670927998     0.4953015808     2.3075930692
   88      H       8.0399050729     0.1818371024     2.8767893293
   89      H       7.5086865810     0.9421278830     1.3677994130
   90      H       6.6352741621     1.2618438169     2.8811785012
   91      C       3.0258495749     2.0174149329    -0.2943589043
   92      H       2.4814662738     1.8804176500    -1.2319808398
   93      H       3.8746883013     2.6630921752    -0.5347573912
   94      C       2.5126381760    -2.9667500208     0.4369975465
   95      H       1.4347457568    -2.7960501086     0.4975824243
   96      H       2.7554279300    -3.6396647409     1.2632685791
   97      C       2.8365632229    -3.6601157571    -0.8849229281
   98      H       2.5455481470    -3.0483920020    -1.7389552036
   99      H       3.9048345430    -3.8612573223    -0.9709016530
  100      H       2.3081359672    -4.6109314308    -0.9660758247
  101      C       2.1211075529     2.7287650645     0.7094851877
  102      H       1.2263520329     2.1429591733     0.9212858694
  103      H       2.6378155521     2.8958440094     1.6552456906
  104      H       1.7975548826     3.6975739932     0.3268219683
 ----------------------------------------------------------------

    8   -2280.7082158625      7.86e-09  Convergence criterion met
 Total energy in the final basis set =    -2280.7082158625

         TDDFT/TDA Excitation Energies
 ---------------------------------------------------

 Excited state   1: excitation energy (eV) =    1.9901
 Total energy for state  1:                 -2280.63508137 au
    Multiplicity: Triplet
    Trans. Mom.:  0.0000 X   0.0000 Y   0.0000 Z
    Strength   :     0.0000000000
    D(191) --> V(  2) amplitude =  0.2448
    D(197) --> V(  1) amplitude =  0.8090
    D(198) --> V(  1) amplitude =  0.4332

 Excited state   2: excitation energy (eV) =    2.3660
 Total energy for state  2:                 -2280.62126857 au
    Multiplicity: Triplet
    Trans. Mom.:  0.0000 X   0.0000 Y   0.0000 Z
    Strength   :     0.0000000000
    D(194) --> V(  1) amplitude = -0.2982
    D(194) --> V(  2) amplitude =  0.4331
    D(195) --> V(  1) amplitude =  0.7266

 Excited state   3: excitation energy (eV) =    2.4188
 Total energy for state  3:                 -2280.61932600 au
    Multiplicity: Triplet
    Trans. Mom.:  0.0000 X   0.0000 Y   0.0000 Z
    Strength   :     0.0000000000
    D(191) --> V(  1) amplitude = -0.2381
    D(194) --> V(  1) amplitude = -0.5822
    D(195) --> V(  1) amplitude = -0.3216
    D(195) --> V(  2) amplitude = -0.4071
    D(197) --> V(  2) amplitude = -0.3040

 Excited state   4: excitation energy (eV) =    2.5095
 Total energy for state  4:                 -2280.61599332 au
    Multiplicity: Triplet
    Trans. Mom.:  0.0000 X   0.0000 Y   0.0000 Z
    Strength   :     0.0000000000
    D(191) --> V(  1) amplitude =  0.6236
    D(194) --> V(  1) amplitude = -0.2648
    D(195) --> V(  2) amplitude = -0.3529
    D(197) --> V(  2) amplitude =  0.3916

 ---------------------------------------------------

 Final energy is   -2280.63508137122
 **  OPTIMIZATION CONVERGED  **

                    Orbital Energies (a.u.)
 --------------------------------------------------------------

 Alpha MOs
 -- Occupied --
-19.523 -19.522 -10.498 -10.498 -10.488 -10.488 -10.464 -10.464
-10.463 -10.463 -10.463 -10.463 -10.462 -10.462 -10.462 -10.461
-10.461 -10.461 -10.460 -10.459 -10.459 -10.458 -10.458 -10.458
-10.458 -10.458 -10.457 -10.457 -10.450 -10.449 -10.448 -10.447
-10.447 -10.446 -10.446 -10.445 -10.445 -10.444 -10.433 -10.432
-10.431 -10.431 -10.430 -10.430 -10.430 -10.430 -10.430 -10.428
-10.426 -10.425 -10.418 -10.416 -10.416 -10.415 -10.414 -10.412
 -6.940  -6.938  -1.180  -1.179  -1.012  -1.012  -0.957  -0.953
 -0.951  -0.950  -0.932  -0.932  -0.903  -0.894  -0.885  -0.884
 -0.864  -0.861  -0.854  -0.853  -0.846  -0.845  -0.819  -0.818
 -0.813  -0.811  -0.810  -0.797  -0.797  -0.795  -0.772  -0.771
 -0.731  -0.730  -0.727  -0.716  -0.708  -0.706  -0.700  -0.699
 -0.687  -0.680  -0.676  -0.664  -0.653  -0.644  -0.640  -0.639
 -0.627  -0.627  -0.596  -0.592  -0.588  -0.587  -0.582  -0.581
 -0.580  -0.574  -0.573  -0.560  -0.559  -0.540  -0.540  -0.534
 -0.533  -0.533  -0.525  -0.521  -0.512  -0.506  -0.502  -0.501
 -0.499  -0.498  -0.496  -0.494  -0.489  -0.489  -0.485  -0.482
 -0.481  -0.480  -0.479  -0.478  -0.478  -0.478  -0.476  -0.463
 -0.459  -0.457  -0.456  -0.454  -0.451  -0.448  -0.441  -0.435
 -0.433  -0.431  -0.428  -0.426  -0.425  -0.424  -0.420  -0.413
 -0.410  -0.409  -0.406  -0.403  -0.398  -0.397  -0.397  -0.394
 -0.393  -0.393  -0.390  -0.388  -0.387  -0.383  -0.379  -0.377
 -0.372  -0.367  -0.360  -0.359  -0.356  -0.354  -0.351  -0.343
 -0.337  -0.333  -0.318  -0.312  -0.294  -0.293  -0.274  -0.271
 -0.271  -0.259  -0.252  -0.247  -0.245  -0.245

          Ground-State Mulliken Net Atomic Charges

     Atom                 Charge (a.u.)
  ----------------------------------------
      1 C                    -0.154648
      2 C                    -0.391056
      3 H                     0.237944
      4 C                     0.102902
      5 C                     0.076044
      6 C                    -0.383240
      7 H                     0.235945
      8 C                    -0.148600
      9 C                     0.203556
     10 C                    -0.378793
     11 H                     0.222413
     12 C                    -0.073974
     13 C                     0.251107
     14 C                     0.197882
     15 C                    -0.366778
     16 H                     0.222672
     17 C                    -0.204014
     18 H                     0.226321
     19 C                    -0.334937
     20 H                     0.220461
     21 C                    -0.205955
     22 H                     0.226665
     23 C                    -0.331378
     24 H                     0.220050
     25 B                     0.646484
     26 C                    -0.149305
     27 C                    -0.385406
     28 H                     0.237759
     29 C                     0.081416
     30 C                     0.108950
     31 C                    -0.392592
     32 H                     0.238628
     33 C                    -0.154310
     34 C                     0.198186
     35 C                    -0.372288
     36 H                     0.221367
     37 C                    -0.070139
     38 C                     0.250496
     39 C                     0.202360
     40 C                    -0.383105
     41 H                     0.221354
     42 C                    -0.205715
     43 H                     0.226122
     44 C                    -0.331309
     45 H                     0.219619
     46 C                    -0.203327
     47 H                     0.225736
     48 C                    -0.335714
     49 H                     0.220108
     50 B                     0.644576
     51 C                    -0.232471
     52 C                     0.079801
     53 C                    -0.373079
     54 H                     0.219188
     55 C                     0.401833
     56 O                    -0.454014
     57 C                    -0.423632
     58 H                     0.221650
     59 C                     0.077801
     60 C                    -0.405786
     61 H                     0.238854
     62 H                     0.203178
     63 H                     0.202999
     64 C                    -0.550651
     65 H                     0.253094
     66 H                     0.230002
     67 C                    -0.550962
     68 H                     0.257293
     69 H                     0.226415
     70 C                    -0.643924
     71 H                     0.241051
     72 H                     0.217313
     73 H                     0.216848
     74 C                    -0.640014
     75 H                     0.240389
     76 H                     0.217773
     77 H                     0.211974
     78 C                    -0.222489
     79 C                     0.082873
     80 C                    -0.428958
     81 H                     0.221133
     82 C                     0.401988
     83 O                    -0.453666
     84 C                    -0.379140
     85 H                     0.219181
     86 C                     0.081214
     87 C                    -0.405708
     88 H                     0.238566
     89 H                     0.202657
     90 H                     0.203261
     91 C                    -0.550466
     92 H                     0.255888
     93 H                     0.224508
     94 C                    -0.550372
     95 H                     0.253611
     96 H                     0.228907
     97 C                    -0.647069
     98 H                     0.244611
     99 H                     0.217286
    100 H                     0.216912
    101 C                    -0.645263
    102 H                     0.245851
    103 H                     0.213703
    104 H                     0.217513
  ----------------------------------------
  Sum of atomic charges =     0.000000

                    Cartesian Multipole Moments
 -----------------------------------------------------------------
    Charge (ESU x 10^10)
                 0.0000
    Dipole Moment (Debye)
         X      -0.0310      Y      -0.0629      Z      -0.2501
       Tot       0.2597
    Quadrupole Moments (Debye-Ang)
        XX    -290.6407     XY      16.6128     YY    -337.9780
        XZ      -1.9639     YZ      10.4985     ZZ    -287.9078

 Total job time:  21262.96s(wall), 146373.38s(cpu)
        *  Thank you very much for using Q-Chem.  Have a nice day.  *
