 Q-Chem 5.0, Q-Chem, Inc., Pleasanton, CA (2017)
 Q-Chem 5.0.1 for Intel X86 EM64T Linux

User input:
--------------------------------------------------------------
$rem
threads 8
jobtype	opt
method PBEh-3c
basis def2-mSVP
mem_static	512
mem_total	6096
sym_ignore	true
$end

$molecule
read incoords3.mol
$end

--------------------------------------------------------------

   15   -2202.2478185206      5.82E-09 Convergence criterion met
 Total energy in the final basis set = -2202.24781852
   12   -2202.2534385717      9.56E-09 Convergence criterion met
 Total energy in the final basis set = -2202.25343857
   12   -2202.2563510785      8.23E-09 Convergence criterion met
 Total energy in the final basis set = -2202.25635108
   12   -2202.2572815623      8.28E-09 Convergence criterion met
 Total energy in the final basis set = -2202.25728156
   12   -2202.2569067531      7.85E-09 Convergence criterion met
 Total energy in the final basis set = -2202.25690675
   12   -2202.2556779602      8.11E-09 Convergence criterion met
 Total energy in the final basis set = -2202.25567796
   12   -2202.2545721541      5.96E-09 Convergence criterion met
 Total energy in the final basis set = -2202.25457215
   11   -2202.2542786498      7.69E-09 Convergence criterion met
   10   -2202.2543349643      5.39E-09 Convergence criterion met
 Total energy in the final basis set = -2202.25433496
    9   -2202.2543101895      7.45E-09 Convergence criterion met
 Total energy in the final basis set = -2202.25431019
    8   -2202.2543071979      9.30E-09 Convergence criterion met
 Total energy in the final basis set = -2202.25430720
    8   -2202.2543122073      6.23E-09 Convergence criterion met
 Total energy in the final basis set = -2202.25431221
    7   -2202.2543177841      7.08E-09 Convergence criterion met
 Total energy in the final basis set = -2202.25431778
    7   -2202.2543200325      6.60E-09 Convergence criterion met
 Total energy in the final basis set = -2202.25432003

             Standard Nuclear Orientation (Angstroms)
    I     Atom           X                Y                Z
 ----------------------------------------------------------------
    1      C      -0.3309699393    -3.9435988325     3.9054094957
    2      C       0.8831142031    -3.5280730117     4.4507873305
    3      C       1.9186614374    -3.1198085866     3.6318098235
    4      C       1.7632397953    -3.1176085035     2.2346496062
    5      C       0.5504422255    -3.5409718892     1.6956461822
    6      C      -0.4929669272    -3.9473146574     2.5297395553
    7      C       3.2238744200    -2.6800142215     4.2321563076
    8      B       2.9579371568    -2.6666561927     1.3210127733
    9      C       3.0465866868    -1.2106667011     0.7826437276
   10      C       4.1686689809    -0.7906067260     0.0282807511
   11      C       4.1898845783     0.4918322910    -0.5295071266
   12      C       3.0879224271     1.3202038921    -0.3995103749
   13      C       1.9715864616     0.8945108329     0.3524009456
   14      C       1.9671512515    -0.3452303442     0.9628675888
   15      C       0.9170144210     1.8965108966     0.2215159387
   16      C       1.4319843393     2.9006797731    -0.6173155181
   17      C       2.7497102702     2.6059517742    -1.0163672640
   18      C       3.3621065881     3.4513232092    -1.9023189564
   19      C       2.6440525736     4.5780993514    -2.3701871286
   20      C       1.3518440809     4.8458561283    -1.9842307558
   21      C       0.6900571085     3.9815247349    -1.0797239651
   22      C      -0.3870186683     1.9832121867     0.6323703411
   23      C      -1.1590912080     3.0857210561     0.1978905720
   24      C      -0.6511924152     4.0577657466    -0.6315892877
   25      B       5.3222805405    -1.7964336575    -0.2647048592
   26      C       6.6425587180    -1.3294319990    -0.9708080661
   27      C       6.7479056195    -1.2195838180    -2.3547401728
   28      C       7.9473314048    -0.8125141158    -2.9428454568
   29      C       9.0465265160    -0.5126765817    -2.1542594815
   30      C       8.9463910687    -0.6227947354    -0.7676940254
   31      C       7.7641491360    -1.0274293292    -0.1786629243
   32      C       5.5939289563    -1.5754010129    -3.2606105715
   33      C       5.7213806982    -2.9728890136    -3.8634116034
   34      C       7.6656395286    -1.1462278206     1.3161666116
   35      O      10.2419303760    -0.1066000012    -2.6312453116
   36      C      10.3951198992     0.0318222350    -4.0176974082
   37      C       0.3326589878    -3.6192959415     0.2036272914
   38      C       0.4144274626    -5.0478171092    -0.3318690409
   39      O      -1.2819432647    -4.3187922057     4.7869995770
   40      C      -2.5221773006    -4.7433650709     4.2901815758
   41      C       5.1531864039    -3.2929686614     0.1316236575
   42      C       4.0365983995    -3.7001318941     0.8971492519
   43      C       3.8572197726    -5.0500466976     1.2035230160
   44      C       4.7432822563    -5.9893064573     0.7133725192
   45      C       5.8570211118    -5.5895960381    -0.0563849162
   46      C       6.0693783004    -4.2482000674    -0.3203757560
   47      C       6.5620836596    -6.7994626468    -0.4923434966
   48      C       5.8353583996    -7.8856059657     0.0311540134
   49      C       4.7242296626    -7.4505167731     0.7746261765
   50      C       6.1334362254    -9.2233428928    -0.2104500224
   51      C       7.2631224218    -9.4721665125    -1.0251336047
   52      C       7.9847652796    -8.4205361696    -1.5379354063
   53      C       7.6454844456    -7.0692656772    -1.2862972644
   54      C       3.8814662963    -8.3906328246     1.3082516630
   55      C       4.1680067645    -9.7591223430     1.0915034252
   56      C       5.2535229040   -10.1758159842     0.3581833021
   57      H       5.0509642979     0.8071093358    -1.1081096340
   58      H       1.1069987926    -0.6732308357     1.5364044481
   59      H       3.0008583399    -5.3589474710     1.7934892846
   60      H       6.9275561018    -3.9344597810    -0.9040534829
   61      H       4.3660891902     3.2695391140    -2.2645198036
   62      H       3.1297213112     5.2431671893    -3.0721467118
   63      H       0.8359183772     5.7092839921    -2.3859374586
   64      H      -1.2851078890     4.8739251667    -0.9559983444
   65      H      -2.1903921042     3.1543118387     0.5188951771
   66      H      -0.8409806306     1.2251647315     1.2588399465
   67      H       8.8406073790    -8.6287072531    -2.1665658914
   68      H       8.2380158815    -6.2803063554    -1.7319921804
   69      H       7.5531049909   -10.4903243969    -1.2546894580
   70      H       3.0025243379    -8.1143602295     1.8774105315
   71      H       3.5008441537   -10.5004249961     1.5118967450
   72      H       5.4289126945   -11.2340426562     0.2069406865
   73      H       7.9921074988    -0.7337586750    -4.0225656953
   74      H       9.8097900241    -0.3812887614    -0.1594415679
   75      H       5.5248278659    -0.8407786464    -4.0679657920
   76      H       4.6468661365    -1.5069629050    -2.7186714099
   77      H      11.4173650162     0.3640590988    -4.1866751697
   78      H       9.7136210934     0.7781423445    -4.4395906920
   79      H      10.2451526960    -0.9134169655    -4.5502147051
   80      H       0.9995391457    -3.5257776116     5.5279473333
   81      H      -1.4253803505    -4.2599311240     2.0747218967
   82      H       1.0593648530    -2.9974488421    -0.3255679041
   83      H      -0.6467336199    -3.2002314627    -0.0447211433
   84      H      -3.1339315318    -4.9969309600     5.1535363887
   85      H      -3.0338613174    -3.9598048117     3.7211711447
   86      H      -2.4353636562    -5.6309391099     3.6543744139
   87      H       1.3998915052    -5.4798391636    -0.1586544537
   88      H       0.2271580367    -5.0732835652    -1.4059533825
   89      H      -0.3204688772    -5.6943199058     0.1493682095
   90      H       5.7120750151    -3.7400320494    -3.0890665435
   91      H       6.6495777100    -3.0794438026    -4.4260922876
   92      H       4.8936955118    -3.1809546245    -4.5423868660
   93      H       8.5806571108    -0.8223893651     1.8107297202
   94      H       7.4740041796    -2.1779520381     1.6193665808
   95      H       6.8469836630    -0.5396521751     1.7105708644
   96      H       4.0367987401    -3.3518196433     3.9472576491
   97      H       3.1821461171    -2.6581867852     5.3204920807
   98      H       3.5016407113    -1.6790592673     3.8943562223
 ----------------------------------------------------------------

    7   -2202.2543202101      6.38E-09 Convergence criterion met
 Total energy in the final basis set = -2202.25432021
 Final energy is   -2202.25432021009
 **  OPTIMIZATION CONVERGED  **

                    Orbital Energies (a.u.)
 --------------------------------------------------------------

 Alpha MOs
 -- Occupied --
-19.523 -19.522 -10.499 -10.498 -10.489 -10.488 -10.463 -10.463
-10.462 -10.462 -10.462 -10.462 -10.460 -10.460 -10.460 -10.460
-10.460 -10.460 -10.459 -10.459 -10.459 -10.458 -10.458 -10.458
-10.458 -10.458 -10.457 -10.457 -10.450 -10.450 -10.449 -10.449
-10.448 -10.448 -10.448 -10.447 -10.444 -10.444 -10.434 -10.434
-10.431 -10.430 -10.430 -10.430 -10.429 -10.429 -10.427 -10.426
-10.423 -10.423 -10.420 -10.420 -10.412 -10.412  -6.945  -6.944
 -1.180  -1.180  -1.013  -1.013  -0.960  -0.956  -0.952  -0.951
 -0.931  -0.931  -0.906  -0.898  -0.881  -0.880  -0.858  -0.853
 -0.851  -0.848  -0.845  -0.844  -0.819  -0.816  -0.815  -0.811
 -0.810  -0.802  -0.774  -0.773  -0.761  -0.761  -0.732  -0.726
 -0.724  -0.718  -0.707  -0.707  -0.687  -0.679  -0.677  -0.662
 -0.657  -0.646  -0.645  -0.643  -0.634  -0.634  -0.593  -0.590
 -0.590  -0.586  -0.583  -0.583  -0.581  -0.573  -0.572  -0.558
 -0.558  -0.542  -0.541  -0.534  -0.533  -0.533  -0.526  -0.522
 -0.510  -0.505  -0.500  -0.498  -0.497  -0.495  -0.494  -0.491
 -0.489  -0.487  -0.483  -0.481  -0.481  -0.479  -0.477  -0.474
 -0.473  -0.470  -0.467  -0.466  -0.463  -0.461  -0.460  -0.452
 -0.446  -0.443  -0.439  -0.438  -0.432  -0.427  -0.424  -0.423
 -0.422  -0.420  -0.417  -0.413  -0.411  -0.408  -0.405  -0.403
 -0.396  -0.392  -0.392  -0.392  -0.390  -0.388  -0.384  -0.384
 -0.376  -0.369  -0.367  -0.361  -0.360  -0.353  -0.352  -0.348
 -0.336  -0.335  -0.315  -0.310  -0.293  -0.292  -0.277  -0.272
 -0.272  -0.259  -0.253  -0.253  -0.248  -0.245

          Ground-State Mulliken Net Atomic Charges

     Atom                 Charge (a.u.)
  ----------------------------------------
      1 C                     0.403758
      2 C                    -0.383055
      3 C                     0.067417
      4 C                    -0.228113
      5 C                     0.078532
      6 C                    -0.426203
      7 C                    -0.763714
      8 B                     0.678409
      9 C                    -0.156562
     10 C                    -0.155034
     11 C                    -0.387507
     12 C                     0.105669
     13 C                     0.090526
     14 C                    -0.379921
     15 C                     0.188009
     16 C                    -0.058145
     17 C                     0.190211
     18 C                    -0.381588
     19 C                    -0.203053
     20 C                    -0.334725
     21 C                     0.247444
     22 C                    -0.375287
     23 C                    -0.205128
     24 C                    -0.331893
     25 B                     0.681434
     26 C                    -0.221405
     27 C                     0.079158
     28 C                    -0.425609
     29 C                     0.403738
     30 C                    -0.384654
     31 C                     0.063777
     32 C                    -0.546059
     33 C                    -0.638700
     34 C                    -0.765556
     35 O                    -0.453116
     36 C                    -0.405254
     37 C                    -0.546959
     38 C                    -0.637066
     39 O                    -0.453367
     40 C                    -0.405419
     41 C                    -0.147692
     42 C                    -0.147326
     43 C                    -0.393841
     44 C                     0.092771
     45 C                     0.106506
     46 C                    -0.400332
     47 C                     0.196275
     48 C                    -0.063189
     49 C                     0.193796
     50 C                     0.248901
     51 C                    -0.334952
     52 C                    -0.202792
     53 C                    -0.385606
     54 C                    -0.380496
     55 C                    -0.204607
     56 C                    -0.332369
     57 H                     0.231393
     58 H                     0.232290
     59 H                     0.238761
     60 H                     0.238175
     61 H                     0.219544
     62 H                     0.225295
     63 H                     0.219596
     64 H                     0.219385
     65 H                     0.225587
     66 H                     0.220078
     67 H                     0.225794
     68 H                     0.220519
     69 H                     0.219780
     70 H                     0.220858
     71 H                     0.226022
     72 H                     0.219633
     73 H                     0.221041
     74 H                     0.221171
     75 H                     0.225760
     76 H                     0.252414
     77 H                     0.239174
     78 H                     0.202770
     79 H                     0.202161
     80 H                     0.221072
     81 H                     0.221607
     82 H                     0.254412
     83 H                     0.226744
     84 H                     0.239289
     85 H                     0.202654
     86 H                     0.202325
     87 H                     0.236251
     88 H                     0.219359
     89 H                     0.210153
     90 H                     0.237066
     91 H                     0.211203
     92 H                     0.219060
     93 H                     0.239029
     94 H                     0.247602
     95 H                     0.245738
     96 H                     0.245250
     97 H                     0.238592
     98 H                     0.245359
  ----------------------------------------
  Sum of atomic charges =    -0.000000

                    Cartesian Multipole Moments
 -----------------------------------------------------------------
    Charge (ESU x 10^10)
                -0.0000
    Dipole Moment (Debye)
         X      -1.7790      Y      -0.9323      Z      -3.1528
       Tot       3.7382
    Quadrupole Moments (Debye-Ang)
        XX    -301.1065     XY      -3.2580     YY    -282.2406
        XZ     -31.3857     YZ      -5.2477     ZZ    -312.0245

 Total job time:  11902.80s(wall), 48533.34s(cpu)
        *  Thank you very much for using Q-Chem.  Have a nice day.  *
