 Q-Chem 5.1, Q-Chem, Inc., Pleasanton, CA (2018)
 Q-Chem 5.1.1 for Intel X86 EM64T Linux

User input:
--------------------------------------------------------------
$rem
threads 8
jobtype	opt
method PBEh-3c
basis def2-mSVP
mem_static	512
mem_total	6096
sym_ignore	true
$end

$molecule
read incoords.mol
$end

--------------------------------------------------------------

   15   -2202.2129821844      5.47e-09  Convergence criterion met
 Total energy in the final basis set =    -2202.2129821844
   12   -2202.2448093800      7.39e-09  Convergence criterion met
 Total energy in the final basis set =    -2202.2448093800
   12   -2202.2530429620      8.02e-09  Convergence criterion met
 Total energy in the final basis set =    -2202.2530429620
   12   -2202.2536113637      6.54e-09  Convergence criterion met
 Total energy in the final basis set =    -2202.2536113637
   12   -2202.2535954551      6.37e-09  Convergence criterion met
 Total energy in the final basis set =    -2202.2535954551
   11   -2202.2533868292      8.79e-09  Convergence criterion met
 Total energy in the final basis set =    -2202.2533868292
   11   -2202.2533602395      8.18e-09  Convergence criterion met
 Total energy in the final basis set =    -2202.2533602395
   11   -2202.2534577780      8.11e-09  Convergence criterion met
   10   -2202.2557490394      5.93e-09  Convergence criterion met
 Total energy in the final basis set =    -2202.2557490394
    8   -2202.2557531217      8.81e-09  Convergence criterion met
 Total energy in the final basis set =    -2202.2557531217
    8   -2202.2557502077      7.24e-09  Convergence criterion met
 Total energy in the final basis set =    -2202.2557502077
    7   -2202.2557528513      9.66e-09  Convergence criterion met
 Total energy in the final basis set =    -2202.2557528513
    7   -2202.2557548036      5.67e-09  Convergence criterion met
 Total energy in the final basis set =    -2202.2557548036
    7   -2202.2557583149      6.02e-09  Convergence criterion met
 Total energy in the final basis set =    -2202.2557583149

             Standard Nuclear Orientation (Angstroms)
    I     Atom           X                Y                Z
 ----------------------------------------------------------------
    1      C       2.6043409552    -1.4531444045     0.0604591305
    2      C       3.5528330874    -1.1204429263    -0.9369821839
    3      B       4.5894207558    -2.1869675592    -1.3964224745
    4      C       4.6735589580    -3.5519910812    -0.6548118190
    5      C       3.7110101543    -3.8892950702     0.3238126044
    6      B       2.6014545476    -2.8707395443     0.7047786159
    7      C       5.6365904606    -4.4918136792    -1.0326581331
    8      C       5.6376010684    -5.7487947124    -0.4591937378
    9      C       4.6553057994    -6.0956197624     0.4944072842
   10      C       3.7072698410    -5.1694651364     0.8843885414
   11      C       1.5973348627    -0.5436977840     0.3898872113
   12      C       1.5253834972     0.6728565838    -0.2618033887
   13      C       2.4796531367     1.0149223023    -1.2444932817
   14      C       3.4794051786     0.1190731820    -1.5794425723
   15      C       7.5049826314    -7.2304861911    -1.5500761169
   16      C       8.0066337213    -8.5535990342    -1.5618015909
   17      C       7.4719064869    -9.5526016839    -0.7832403545
   18      C       6.3806876932    -9.2755591446     0.0742399800
   19      C       5.9250528795    -7.9614214545     0.0809395711
   20      C       6.4571120814    -6.9340224779    -0.7192681906
   21      C       5.6737768055   -10.1867188957     0.8950996322
   22      C       4.5960576783    -9.7564443738     1.6322666505
   23      C       4.1508321538    -8.4132877016     1.6125588551
   24      C       4.8251485033    -7.5099961312     0.8333989715
   25      C       1.8521320323     4.2804318794    -3.1507764892
   26      C       2.5761593996     3.1108721265    -2.8170747286
   27      C       2.0955182213     2.3068052571    -1.8180389836
   28      C       0.9030494852     2.6837376696    -1.1716455831
   29      C       0.1539723283     3.8084833063    -1.4965814958
   30      C       0.6778081613     4.6274364966    -2.5253249058
   31      C       0.5143232771     1.7268553132    -0.2166887988
   32      C      -0.6695741475     1.9039724613     0.4487684188
   33      C      -1.4472457911     3.0468496194     0.1487487194
   34      C      -1.0611350764     3.9747738859    -0.7895549336
   35      C       7.3854840650    -1.0710870534    -3.8482700177
   36      C       6.6446669204    -1.2415885701    -2.6772084581
   37      C       5.4548191328    -1.9645008242    -2.6863656383
   38      C       5.0098022176    -2.5186128854    -3.9017721454
   39      C       5.7450794716    -2.3385630321    -5.0580039699
   40      C       6.9368065881    -1.6164147038    -5.0409640462
   41      C       7.1891957042    -0.6757930877    -1.3917065282
   42      C       3.7249275141    -3.3000879574    -3.9544900193
   43      O       7.5711184237    -1.4992770186    -6.2265141247
   44      C       8.7683490544    -0.7722832503    -6.2763634522
   45      C       0.6370861494    -3.5599928966     3.9547747996
   46      C       1.6483681173    -3.1996413862     3.0833625021
   47      C       1.4561567547    -3.2905372729     1.6945426162
   48      C       0.2317066379    -3.7542783432     1.2171202550
   49      C      -0.7849648043    -4.1151295120     2.1023348574
   50      C      -0.5872136214    -4.0183478291     3.4705818375
   51      C       2.9617977736    -2.7017519595     3.6179399877
   52      C      -0.0154144188    -3.9311011273    -0.2605498537
   53      O      -1.5121778839    -4.3367144035     4.4008415977
   54      C      -2.7720313408    -4.7739403420     3.9686637794
   55      H       6.3559370561    -4.2437579995    -1.8055119467
   56      H       2.9364111956    -5.4392806302     1.5983836971
   57      H       0.8486192748    -0.8178216395     1.1249043002
   58      H       4.1848165590     0.3535724398    -2.3689064111
   59      H       7.9459758990    -6.4870994523    -2.2021303584
   60      H       8.8336438538    -8.7867223320    -2.2196706162
   61      H       7.8777718990   -10.5554669391    -0.8374857789
   62      H       5.9723029794   -11.2273293748     0.9327814748
   63      H       4.0601659200   -10.4694700694     2.2452258006
   64      H       3.2851037572    -8.1305463309     2.1984845391
   65      H       2.2318965836     4.9135415835    -3.9419553027
   66      H       3.4783598640     2.8662353425    -3.3636488290
   67      H       0.1478850012     5.5213685808    -2.8304429874
   68      H      -1.0273543118     1.1890486017     1.1794255792
   69      H      -2.3849514989     3.1862313957     0.6707515033
   70      H      -1.6962765489     4.8273970449    -0.9963334338
   71      H       8.3058457982    -0.5018086652    -3.8015680423
   72      H       5.3985364280    -2.7512470763    -5.9982736675
   73      H       7.7060560980     0.2664602265    -1.5925030655
   74      C       8.1477697964    -1.6382398603    -0.6934486916
   75      H       6.3688116781    -0.4263555664    -0.7124825147
   76      H       9.1050481591    -0.7970936335    -7.3107844344
   77      H       9.5493131907    -1.2118954084    -5.6470365174
   78      H       8.6326582275     0.2732413634    -5.9806160671
   79      H       0.7796929557    -3.4811581629     5.0259461175
   80      H      -1.7256948957    -4.4635092414     1.6930800060
   81      H       0.6263865031    -3.2605928723    -0.8388153329
   82      H      -1.0402284946    -3.6329985754    -0.4993913470
   83      C       0.2110866382    -5.3695547477    -0.7213215933
   84      H      -3.3614636114    -4.9602012567     4.8640961014
   85      H      -3.2888917987    -4.0215641441     3.3635794637
   86      H      -2.7162330698    -5.7029637534     3.3915293176
   87      H       1.2394090322    -5.6847001703    -0.5424534794
   88      H       0.0124023575    -5.4740763882    -1.7885501924
   89      H      -0.4441061525    -6.0610366231    -0.1901386075
   90      H       8.9882548464    -1.8942496406    -1.3398098880
   91      H       7.6471926032    -2.5670518243    -0.4195068615
   92      H       8.5495569254    -1.1988918480     0.2202233585
   93      H       3.4614512081    -3.5679989960    -4.9771780752
   94      H       2.8891702413    -2.7305928065    -3.5414693243
   95      H       3.7941890495    -4.2260757307    -3.3801837135
   96      H       3.7758176029    -3.3892565966     3.3775110113
   97      H       2.9405711782    -2.5837917564     4.7006836122
   98      H       3.2250667386    -1.7332143467     3.1869827943
 ----------------------------------------------------------------

    7   -2202.2557591615      6.09e-09  Convergence criterion met
 Total energy in the final basis set =    -2202.2557591615
 Final energy is   -2202.25575916146
 **  OPTIMIZATION CONVERGED  **

                    Orbital Energies (a.u.)
 --------------------------------------------------------------

 Alpha MOs
 -- Occupied --
-19.523 -19.523 -10.499 -10.498 -10.488 -10.488 -10.462 -10.462
-10.462 -10.462 -10.462 -10.461 -10.460 -10.460 -10.460 -10.460
-10.459 -10.459 -10.459 -10.458 -10.458 -10.458 -10.458 -10.458
-10.457 -10.457 -10.457 -10.457 -10.450 -10.450 -10.450 -10.449
-10.448 -10.448 -10.447 -10.447 -10.444 -10.443 -10.434 -10.433
-10.431 -10.430 -10.430 -10.430 -10.429 -10.429 -10.427 -10.426
-10.424 -10.422 -10.420 -10.419 -10.412 -10.412  -6.944  -6.944
 -1.180  -1.180  -1.013  -1.013  -0.960  -0.956  -0.952  -0.950
 -0.931  -0.931  -0.906  -0.898  -0.881  -0.880  -0.858  -0.852
 -0.851  -0.847  -0.845  -0.844  -0.819  -0.815  -0.814  -0.811
 -0.809  -0.802  -0.773  -0.773  -0.761  -0.761  -0.732  -0.726
 -0.724  -0.718  -0.707  -0.706  -0.687  -0.679  -0.677  -0.662
 -0.657  -0.646  -0.645  -0.643  -0.635  -0.634  -0.592  -0.590
 -0.590  -0.586  -0.583  -0.582  -0.581  -0.573  -0.572  -0.559
 -0.558  -0.541  -0.541  -0.534  -0.533  -0.533  -0.526  -0.521
 -0.510  -0.505  -0.500  -0.497  -0.496  -0.495  -0.494  -0.491
 -0.489  -0.487  -0.483  -0.481  -0.481  -0.479  -0.477  -0.473
 -0.472  -0.469  -0.466  -0.465  -0.463  -0.461  -0.459  -0.452
 -0.446  -0.442  -0.438  -0.438  -0.432  -0.426  -0.426  -0.422
 -0.421  -0.420  -0.416  -0.413  -0.411  -0.408  -0.404  -0.403
 -0.396  -0.392  -0.392  -0.392  -0.390  -0.388  -0.383  -0.383
 -0.376  -0.370  -0.365  -0.362  -0.360  -0.353  -0.352  -0.348
 -0.337  -0.335  -0.315  -0.309  -0.293  -0.292  -0.277  -0.272
 -0.272  -0.259  -0.253  -0.253  -0.248  -0.245

          Ground-State Mulliken Net Atomic Charges

     Atom                 Charge (a.u.)
  ----------------------------------------
      1 C                    -0.159615
      2 C                    -0.153321
      3 B                     0.675278
      4 C                    -0.150344
      5 C                    -0.147208
      6 B                     0.673844
      7 C                    -0.399115
      8 C                     0.100520
      9 C                     0.093803
     10 C                    -0.397003
     11 C                    -0.379258
     12 C                     0.092040
     13 C                     0.100145
     14 C                    -0.383992
     15 C                    -0.381916
     16 C                    -0.204069
     17 C                    -0.334116
     18 C                     0.248987
     19 C                    -0.061719
     20 C                     0.193853
     21 C                    -0.333276
     22 C                    -0.204240
     23 C                    -0.381922
     24 C                     0.194817
     25 C                    -0.203587
     26 C                    -0.380944
     27 C                     0.191976
     28 C                    -0.060505
     29 C                     0.249348
     30 C                    -0.334540
     31 C                     0.191328
     32 C                    -0.377571
     33 C                    -0.204941
     34 C                    -0.333152
     35 C                    -0.424600
     36 C                     0.094491
     37 C                    -0.217857
     38 C                     0.053176
     39 C                    -0.383209
     40 C                     0.402765
     41 C                    -0.546530
     42 C                    -0.760505
     43 O                    -0.453453
     44 C                    -0.405104
     45 C                    -0.379294
     46 C                     0.073279
     47 C                    -0.229793
     48 C                     0.074456
     49 C                    -0.427540
     50 C                     0.402624
     51 C                    -0.759027
     52 C                    -0.550734
     53 O                    -0.453742
     54 C                    -0.405583
     55 H                     0.239385
     56 H                     0.238551
     57 H                     0.233884
     58 H                     0.230490
     59 H                     0.220654
     60 H                     0.226037
     61 H                     0.219742
     62 H                     0.219684
     63 H                     0.226129
     64 H                     0.221026
     65 H                     0.225499
     66 H                     0.219809
     67 H                     0.219465
     68 H                     0.220832
     69 H                     0.225622
     70 H                     0.219307
     71 H                     0.220789
     72 H                     0.221152
     73 H                     0.225510
     74 C                    -0.642769
     75 H                     0.249560
     76 H                     0.238896
     77 H                     0.202537
     78 H                     0.202965
     79 H                     0.220665
     80 H                     0.221402
     81 H                     0.255699
     82 H                     0.227633
     83 C                    -0.639606
     84 H                     0.238989
     85 H                     0.203138
     86 H                     0.202810
     87 H                     0.240571
     88 H                     0.217685
     89 H                     0.212068
     90 H                     0.213471
     91 H                     0.239519
     92 H                     0.219470
     93 H                     0.237968
     94 H                     0.245110
     95 H                     0.249198
     96 H                     0.244804
     97 H                     0.236928
     98 H                     0.244318
  ----------------------------------------
  Sum of atomic charges =    -0.000000

                    Cartesian Multipole Moments
 -----------------------------------------------------------------
    Charge (ESU x 10^10)
                -0.0000
    Dipole Moment (Debye)
         X      -0.4810      Y      -0.2213      Z      -1.0931
       Tot       1.2147
    Quadrupole Moments (Debye-Ang)
        XX    -281.1425     XY      -2.1685     YY    -281.8532
        XZ     -22.8364     YZ     -11.7432     ZZ    -319.6671

 Total job time:  22613.40s(wall), 174098.58s(cpu)
        *  Thank you very much for using Q-Chem.  Have a nice day.  *
