 Q-Chem 5.1, Q-Chem, Inc., Pleasanton, CA (2018)
 Q-Chem 5.1.1 for Intel X86 EM64T Linux

User input:
--------------------------------------------------------------
$rem
threads 8
jobtype	sp
method PBEh-3c
basis def2-mSVP
mem_static	1024
mem_total	10000
sym_ignore	true
cis_n_roots             6
cis_singlets            true
cis_triplets		true
rpa                     false
calc_soc 		true
cis_moments             true
cis_relaxed_density	true
$end

$molecule
read gsopt.mol
$end

--------------------------------------------------------------

             Standard Nuclear Orientation (Angstroms)
    I     Atom           X                Y                Z
 ----------------------------------------------------------------
    1      C       0.0000000000     0.0000000000     0.0000000000
    2      C       0.0000000000     0.0000000000     1.3976640000
    3      H       0.9418490575     0.0000000000     1.9354507671
    4      C      -1.1953394723    -0.0519468068     2.0885531711
    5      C      -2.4189169235    -0.1255801018     1.3871385609
    6      C      -2.4302955450    -0.1127097556     0.0057173739
    7      H      -3.3660945338    -0.1935195475    -0.5370189952
    8      C      -1.2267717809    -0.0405221931    -0.7009757675
    9      C      -1.4858054706    -0.1475809303     3.5205047500
   10      C      -0.7361618222    -0.1786400764     4.6664696193
   11      H       0.3427638238    -0.0903006264     4.6467331401
   12      C      -2.8810030200    -0.2916172039     3.6284187003
   13      C      -3.5584698184    -0.4840985040     4.8278332567
   14      C      -3.4974103484    -0.2918099983     2.3635819629
   15      C      -4.8509305347    -0.4945526911     2.2957138774
   16      H      -5.3788613543    -0.5251525702     1.3506794431
   17      C      -1.3990491305    -0.3491691809     5.9049850676
   18      H      -0.8054090946    -0.3748842277     6.8094260528
   19      C      -2.7624321524    -0.4997207362     5.9978182597
   20      H      -3.2251624379    -0.6445309284     6.9664872376
   21      C      -5.5686295191    -0.6855799983     3.5003300909
   22      H      -6.6369998759    -0.8493139035     3.4448322275
   23      C      -4.9569345411    -0.6809876815     4.7315243125
   24      H      -5.5450918290    -0.8423215433     5.6267624302
   25      B      -1.2321472548    -0.1013752879    -2.2533842309
   26      B       1.3465134860    -0.0779290592    -0.7753602032
   27      C       1.3469313654    -0.0215652094    -2.3309623715
   28      C       2.5501129588    -0.0689558769    -3.0413529518
   29      H       3.4890914184    -0.0940474436    -2.4995621076
   30      C       2.5366277279    -0.1374299413    -4.4231526811
   31      C       1.3071308634    -0.1716778688    -5.1163208702
   32      C       0.1121164879    -0.1105501901    -4.4248828110
   33      H      -0.8322759889    -0.1645007174    -4.9551479293
   34      C       0.1158079438    -0.0386000526    -3.0304346830
   35      C       1.5849212996    -0.3918801857    -6.5339010632
   36      C       0.8178054170    -0.6033234995    -7.6486399581
   37      H      -0.2642448626    -0.5749753630    -7.6119559644
   38      C       2.9844870286    -0.4700031296    -6.6513235970
   39      C       3.6516244832    -0.7588051415    -7.8359220650
   40      C       3.6127322994    -0.3116880678    -5.4014723389
   41      C       4.9767822452    -0.4180360473    -5.3408895557
   42      H       5.5166690788    -0.3236876168    -4.4069858988
   43      C       1.4694911794    -0.8861135820    -8.8718692776
   44      H       0.8646915068    -1.0574371745    -9.7528188814
   45      C       2.8382487402    -0.9646849891    -8.9761238922
   46      H       3.2927125006    -1.1980546115    -9.9311781221
   47      C       5.0610986396    -0.8535491150    -7.7475555831
   48      H       5.6467827902    -1.0748941600    -8.6313034210
   49      C       5.6880455988    -0.6812406054    -6.5359921148
   50      H       6.7655983193    -0.7673230285    -6.4861529246
   51      C       2.6703754187    -0.3555256787     0.0200579852
   52      C       3.5728667143     0.6515491133     0.3513191076
   53      C       4.7377539313     0.3603181609     1.0637009167
   54      H       5.4159833619     1.1704632857     1.3024353353
   55      C       5.0131769731    -0.9438958762     1.4436747519
   56      O       6.1137308862    -1.3307000905     2.1224711831
   57      C       4.1157360615    -1.9573457201     1.1127361828
   58      H       4.3466781339    -2.9748793359     1.4056502655
   59      C       2.9565987663    -1.6763978182     0.4146008040
   60      C       7.0609085584    -0.3585733901     2.4720265623
   61      H       7.8586787161    -0.8766894546     3.0003522253
   62      H       7.4904162877     0.1377130614     1.5955428040
   63      H       6.6462916497     0.4075664607     3.1356063130
   64      C       2.0100275594    -2.7939678521     0.0690185499
   65      H       2.4203537642    -3.7650749485     0.3441002275
   66      H       1.0536607177    -2.6840105423     0.5841392324
   67      H       1.7940078058    -2.8231504957    -1.0014416125
   68      C       3.2843601599     2.0873273570    -0.0014632332
   69      H       4.2194797911     2.6079498081    -0.2246412535
   70      H       2.6895071828     2.1378684340    -0.9180824929
   71      C       2.5511548622     2.8243663581     1.1174265387
   72      H       1.5820359663     2.3695510782     1.3230117430
   73      H       2.3756510867     3.8673989530     0.8518383014
   74      H       3.1273040132     2.8068297408     2.0434311545
   75      C      -2.5874182831    -0.2776112324    -3.0278201897
   76      C      -3.0229952304    -1.5386834805    -3.4306047539
   77      C      -4.2228232775    -1.6862978112    -4.1277865479
   78      H      -4.5240682406    -2.6818358533    -4.4310799342
   79      C      -4.9984790880    -0.5773799030    -4.4265022054
   80      O      -6.1668536528    -0.6213064061    -5.1012403354
   81      C      -4.5709549613     0.6863714559    -4.0220297818
   82      H      -5.1807354275     1.5480146152    -4.2663617220
   83      C      -3.3826417053     0.8400420905    -3.3319569753
   84      C      -6.6285201100    -1.8634703300    -5.5584797471
   85      H      -7.5639197470    -1.6751608869    -6.0814419939
   86      H      -6.8247384387    -2.5632878886    -4.7393124895
   87      H      -5.9297897918    -2.3359741343    -6.2569485499
   88      C      -2.9300851574     2.2085281446    -2.9062763307
   89      H      -3.5829211195     2.9901940081    -3.2929316784
   90      H      -2.9134872686     2.3017711429    -1.8181000135
   91      H      -1.9185288694     2.4206333733    -3.2596385765
   92      C      -2.2445361097    -2.7831393943    -3.0825032400
   93      H      -1.1875799376    -2.5445740355    -2.9348202861
   94      H      -2.2719707494    -3.4805783225    -3.9245125769
   95      C      -2.7848234112    -3.4785827471    -1.8346212179
   96      H      -2.7271668863    -2.8267587155    -0.9625205309
   97      H      -2.2150641778    -4.3816402194    -1.6127215987
   98      H      -3.8289493974    -3.7657431327    -1.9647001128
 ----------------------------------------------------------------

   15   -2202.2555367352      6.09e-09  Convergence criterion met
 Total energy in the final basis set =    -2202.2555367352

         TDDFT/TDA Excitation Energies
 ---------------------------------------------------

 Excited state   1: excitation energy (eV) =    2.3612
 Total energy for state  1:                 -2202.16876519 au
    Multiplicity: Triplet
    Trans. Mom.:  0.0000 X   0.0000 Y   0.0000 Z
    Strength   :     0.0000000000
    D(183) --> V(  2) amplitude = -0.2792
    D(187) --> V(  1) amplitude =  0.8735

 Excited state   2: excitation energy (eV) =    2.5092
 Total energy for state  2:                 -2202.16332458 au
    Multiplicity: Triplet
    Trans. Mom.:  0.0000 X   0.0000 Y   0.0000 Z
    Strength   :     0.0000000000
    D(186) --> V(  2) amplitude = -0.5019
    D(188) --> V(  1) amplitude =  0.7194
    D(188) --> V(  4) amplitude =  0.2190
    D(190) --> V(  1) amplitude = -0.2214

 Excited state   3: excitation energy (eV) =    2.5552
 Total energy for state  3:                 -2202.16163413 au
    Multiplicity: Triplet
    Trans. Mom.:  0.0000 X   0.0000 Y   0.0000 Z
    Strength   :     0.0000000000
    D(186) --> V(  1) amplitude =  0.6954
    D(186) --> V(  4) amplitude =  0.2483
    D(188) --> V(  2) amplitude = -0.5490

 Excited state   4: excitation energy (eV) =    2.7607
 Total energy for state  4:                 -2202.15408176 au
    Multiplicity: Triplet
    Trans. Mom.:  0.0000 X   0.0000 Y   0.0000 Z
    Strength   :     0.0000000000
    D(183) --> V(  1) amplitude =  0.6472
    D(187) --> V(  2) amplitude = -0.5320
    D(190) --> V(  1) amplitude = -0.3314

 Excited state   5: excitation energy (eV) =    2.8992
 Total energy for state  5:                 -2202.14899358 au
    Multiplicity: Triplet
    Trans. Mom.:  0.0000 X   0.0000 Y   0.0000 Z
    Strength   :     0.0000000000
    D(183) --> V(  1) amplitude =  0.2572
    D(190) --> V(  1) amplitude =  0.8555

 Excited state   6: excitation energy (eV) =    2.9555
 Total energy for state  6:                 -2202.14692278 au
    Multiplicity: Singlet
    Trans. Mom.: -0.2081 X   0.0087 Y  -0.5231 Z
    Strength   :     0.0229562772
    D(190) --> V(  1) amplitude =  0.9543

 Excited state   7: excitation energy (eV) =    3.0355
 Total energy for state  7:                 -2202.14398368 au
    Multiplicity: Triplet
    Trans. Mom.:  0.0000 X   0.0000 Y   0.0000 Z
    Strength   :     0.0000000000
    D(189) --> V(  1) amplitude =  0.9334

 Excited state   8: excitation energy (eV) =    3.0365
 Total energy for state  8:                 -2202.14394591 au
    Multiplicity: Singlet
    Trans. Mom.:  0.0077 X  -0.0095 Y   0.1066 Z
    Strength   :     0.0008565633
    D(187) --> V(  1) amplitude =  0.7805
    D(189) --> V(  1) amplitude = -0.5423

 Excited state   9: excitation energy (eV) =    3.0805
 Total energy for state  9:                 -2202.14233203 au
    Multiplicity: Singlet
    Trans. Mom.: -0.0182 X   0.0099 Y  -0.0168 Z
    Strength   :     0.0000536650
    D(187) --> V(  1) amplitude =  0.5237
    D(189) --> V(  1) amplitude =  0.7987

 Excited state  10: excitation energy (eV) =    3.3375
 Total energy for state 10:                 -2202.13288734 au
    Multiplicity: Singlet
    Trans. Mom.: -1.7113 X   0.0671 Y   2.9360 Z
    Strength   :     0.9446519194
    D(188) --> V(  1) amplitude =  0.9140

 Excited state  11: excitation energy (eV) =    3.6244
 Total energy for state 11:                 -2202.12234358 au
    Multiplicity: Singlet
    Trans. Mom.:  0.0562 X   0.1663 Y  -0.0148 Z
    Strength   :     0.0027573315
    D(186) --> V(  1) amplitude =  0.9217

 Excited state  12: excitation energy (eV) =    3.7092
 Total energy for state 12:                 -2202.11922573 au
    Multiplicity: Singlet
    Trans. Mom.:  0.6506 X   0.0273 Y   0.3786 Z
    Strength   :     0.0515552506
    D(183) --> V(  1) amplitude =  0.7061
    D(187) --> V(  2) amplitude = -0.5852

 ---------------------------------------------------

                    Orbital Energies (a.u.)
 --------------------------------------------------------------

 Alpha MOs
 -- Occupied --
-19.523 -19.523 -10.499 -10.498 -10.488 -10.488 -10.462 -10.462
-10.462 -10.462 -10.462 -10.461 -10.460 -10.460 -10.460 -10.460
-10.459 -10.459 -10.459 -10.458 -10.458 -10.458 -10.458 -10.458
-10.457 -10.457 -10.457 -10.457 -10.450 -10.450 -10.450 -10.449
-10.448 -10.448 -10.447 -10.447 -10.444 -10.443 -10.434 -10.433
-10.431 -10.430 -10.430 -10.430 -10.429 -10.429 -10.427 -10.426
-10.424 -10.422 -10.420 -10.419 -10.412 -10.412  -6.944  -6.944
 -1.180  -1.180  -1.013  -1.013  -0.960  -0.956  -0.952  -0.950
 -0.931  -0.931  -0.906  -0.898  -0.881  -0.880  -0.858  -0.852
 -0.851  -0.847  -0.845  -0.844  -0.819  -0.815  -0.814  -0.811
 -0.809  -0.802  -0.773  -0.773  -0.761  -0.761  -0.732  -0.726
 -0.724  -0.718  -0.707  -0.706  -0.687  -0.679  -0.677  -0.662
 -0.657  -0.646  -0.645  -0.643  -0.635  -0.634  -0.592  -0.590
 -0.590  -0.586  -0.583  -0.582  -0.581  -0.573  -0.572  -0.559
 -0.558  -0.541  -0.541  -0.534  -0.533  -0.533  -0.526  -0.521
 -0.510  -0.505  -0.500  -0.497  -0.496  -0.495  -0.494  -0.491
 -0.489  -0.487  -0.483  -0.481  -0.481  -0.479  -0.477  -0.473
 -0.472  -0.469  -0.466  -0.465  -0.463  -0.461  -0.459  -0.452
 -0.446  -0.442  -0.438  -0.438  -0.432  -0.426  -0.426  -0.422
 -0.421  -0.420  -0.416  -0.413  -0.411  -0.408  -0.404  -0.403
 -0.396  -0.392  -0.392  -0.392  -0.390  -0.388  -0.383  -0.383
 -0.376  -0.370  -0.365  -0.362  -0.360  -0.353  -0.352  -0.348
 -0.337  -0.335  -0.315  -0.309  -0.293  -0.292  -0.277  -0.272
 -0.272  -0.259  -0.253  -0.253  -0.248  -0.245

          Ground-State Mulliken Net Atomic Charges

     Atom                 Charge (a.u.)
  ----------------------------------------
      1 C                    -0.150460
      2 C                    -0.398967
      3 H                     0.239390
      4 C                     0.100172
      5 C                     0.094105
      6 C                    -0.397347
      7 H                     0.238620
      8 C                    -0.147130
      9 C                     0.194020
     10 C                    -0.381856
     11 H                     0.220659
     12 C                    -0.061859
     13 C                     0.248961
     14 C                     0.194573
     15 C                    -0.381828
     16 H                     0.220969
     17 C                    -0.204120
     18 H                     0.226036
     19 C                    -0.333955
     20 H                     0.219721
     21 C                    -0.204232
     22 H                     0.226124
     23 C                    -0.333301
     24 H                     0.219693
     25 B                     0.674922
     26 B                     0.675713
     27 C                    -0.153280
     28 C                    -0.384188
     29 H                     0.230543
     30 C                     0.100303
     31 C                     0.091850
     32 C                    -0.379378
     33 H                     0.233882
     34 C                    -0.159709
     35 C                     0.191175
     36 C                    -0.377845
     37 H                     0.220756
     38 C                    -0.060253
     39 C                     0.249478
     40 C                     0.192367
     41 C                    -0.381006
     42 H                     0.219838
     43 C                    -0.205000
     44 H                     0.225605
     45 C                    -0.333201
     46 H                     0.219298
     47 C                    -0.334710
     48 H                     0.219510
     49 C                    -0.203582
     50 H                     0.225493
     51 C                    -0.218224
     52 C                     0.094139
     53 C                    -0.424437
     54 H                     0.220754
     55 C                     0.403006
     56 O                    -0.453453
     57 C                    -0.383296
     58 H                     0.221157
     59 C                     0.053316
     60 C                    -0.405215
     61 H                     0.238907
     62 H                     0.203001
     63 H                     0.202562
     64 C                    -0.760651
     65 H                     0.237976
     66 H                     0.249191
     67 H                     0.245080
     68 C                    -0.546265
     69 H                     0.225461
     70 H                     0.249493
     71 C                    -0.642636
     72 H                     0.239492
     73 H                     0.219404
     74 H                     0.213429
     75 C                    -0.229855
     76 C                     0.074472
     77 C                    -0.427698
     78 H                     0.221406
     79 C                     0.402586
     80 O                    -0.453748
     81 C                    -0.379104
     82 H                     0.220661
     83 C                     0.073018
     84 C                    -0.405600
     85 H                     0.238988
     86 H                     0.202816
     87 H                     0.203141
     88 C                    -0.759122
     89 H                     0.236938
     90 H                     0.244819
     91 H                     0.244303
     92 C                    -0.550803
     93 H                     0.255721
     94 H                     0.227616
     95 C                    -0.639628
     96 H                     0.240522
     97 H                     0.217705
     98 H                     0.212085
  ----------------------------------------
  Sum of atomic charges =    -0.000000

                    Cartesian Multipole Moments
 -----------------------------------------------------------------
    Charge (ESU x 10^10)
                -0.0000
    Dipole Moment (Debye)
         X       0.4078      Y      -1.1402      Z       0.1131
       Tot       1.2162
    Quadrupole Moments (Debye-Ang)
        XX    -278.0760     XY      17.0015     YY    -323.7578
        XZ       0.1627     YZ      13.7744     ZZ    -279.3520

 Total job time:  6416.70s(wall), 31470.21s(cpu)
        *  Thank you very much for using Q-Chem.  Have a nice day.  *
