 Q-Chem 5.0, Q-Chem, Inc., Pleasanton, CA (2017)
 Q-Chem 5.0.1 for Intel X86 EM64T Linux

User input:
--------------------------------------------------------------
$rem
threads 8
jobtype	opt
method PBEh-3c
basis def2-mSVP
mem_static	1024
mem_total	14000
sym_ignore	true
cis_n_roots             2
cis_singlets            true
cis_triplets		false
rpa                     false
cis_state_deriv         1
$end

$molecule
read incoords.mol
$end

--------------------------------------------------------------

   15   -2202.2453489728      6.91E-09 Convergence criterion met
 Total energy in the final basis set = -2202.24534897
   12   -2202.2454763071      9.28E-09 Convergence criterion met
 Total energy in the final basis set = -2202.24547631
   12   -2202.2452226248      6.69E-09 Convergence criterion met
 Total energy in the final basis set = -2202.24522262
   12   -2202.2452879810      8.82E-09 Convergence criterion met
 Total energy in the final basis set = -2202.24528798
   11   -2202.2455998844      7.86E-09 Convergence criterion met
 Total energy in the final basis set = -2202.24559988
   11   -2202.2456458670      7.01E-09 Convergence criterion met
 Total energy in the final basis set = -2202.24564587
   11   -2202.2457471252      7.56E-09 Convergence criterion met
 Total energy in the final basis set = -2202.24574713
   11   -2202.2459717267      6.09E-09 Convergence criterion met
   10   -2202.2463267516      5.82E-09 Convergence criterion met
 Total energy in the final basis set = -2202.24632675
   10   -2202.2463822949      4.15E-09 Convergence criterion met
 Total energy in the final basis set = -2202.24638229
   10   -2202.2464337163      4.00E-09 Convergence criterion met
 Total energy in the final basis set = -2202.24643372
    8   -2202.2464220112      9.33E-09 Convergence criterion met
 Total energy in the final basis set = -2202.24642201
    8   -2202.2464194949      5.48E-09 Convergence criterion met
 Total energy in the final basis set = -2202.24641949
    7   -2202.2464175815      8.31E-09 Convergence criterion met
 Total energy in the final basis set = -2202.24641758

             Standard Nuclear Orientation (Angstroms)
    I     Atom           X                Y                Z
 ----------------------------------------------------------------
    1      C       2.5783262952    -1.4851939493    -0.0238251992
    2      C       3.5297430412    -1.1492383755    -1.0349291099
    3      B       4.5846894830    -2.1828355630    -1.4185035004
    4      C       4.6556228434    -3.5465621641    -0.7415699244
    5      C       3.6911054483    -3.8734612265     0.2589837253
    6      B       2.6054080606    -2.8631783866     0.6637728482
    7      C       5.5905836852    -4.5279526551    -1.1418619519
    8      C       5.5728275332    -5.7809859307    -0.5864942716
    9      C       4.5973509690    -6.1118602143     0.3984839493
   10      C       3.6887461109    -5.1663188497     0.8103534780
   11      C       1.5518505195    -0.5744367106     0.2737965270
   12      C       1.4445634237     0.6159504293    -0.4064964111
   13      C       2.4026267892     0.9618114560    -1.4019025866
   14      C       3.4218884903     0.0923201786    -1.7008557136
   15      C       7.3904563452    -7.3025448466    -1.7108506668
   16      C       7.8654680948    -8.6333966640    -1.7298369817
   17      C       7.3253044093    -9.6223178951    -0.9410928882
   18      C       6.2549551689    -9.3238741484    -0.0651336539
   19      C       5.8217719861    -8.0003025029    -0.0523426126
   20      C       6.3593857926    -6.9824506280    -0.8640615784
   21      C       5.5518860435   -10.2221065051     0.7735518394
   22      C       4.4994560623    -9.7692288509     1.5343982905
   23      C       4.0771437183    -8.4202603763     1.5249025019
   24      C       4.7467569145    -7.5259037035     0.7266940488
   25      C       1.7110059295     4.1811202779    -3.3656494150
   26      C       2.4588035611     3.0355660050    -3.0092241459
   27      C       1.9901338366     2.2312410701    -2.0016941141
   28      C       0.7838537873     2.5917862230    -1.3679766821
   29      C       0.0125942054     3.6967981241    -1.7153678245
   30      C       0.5241932631     4.5111718046    -2.7534829151
   31      C       0.4129977516     1.6444776921    -0.3925600132
   32      C      -0.7779247999     1.8160901828     0.2673294995
   33      C      -1.5757249443     2.9358824957    -0.0589734446
   34      C      -1.2078611438     3.8539267541    -1.0149020970
   35      C       7.5723397211    -1.0231105969    -3.6198904649
   36      C       6.7766241419    -1.2296167273    -2.5228707664
   37      C       5.5158899269    -1.9046620505    -2.6548825505
   38      C       5.0886995330    -2.3346487610    -3.9582261060
   39      C       5.8961902097    -2.1293798680    -5.0376372927
   40      C       7.1451257924    -1.4754872311    -4.8844928675
   41      C       7.2343731932    -0.7737042839    -1.1728167658
   42      C       3.7674808470    -3.0150339037    -4.1090453073
   43      O       7.8332411250    -1.3278934034    -5.9894177728
   44      C       9.1030719484    -0.6915513908    -5.9838400156
   45      C       0.8300186186    -3.4334181432     4.0549470658
   46      C       1.7831483890    -3.1099433424     3.1059491316
   47      C       1.5103527121    -3.2541979383     1.7334127714
   48      C       0.2568408428    -3.7388043467     1.3596813000
   49      C      -0.7014809593    -4.0659808197     2.3214697945
   50      C      -0.4201865811    -3.9117030896     3.6689009285
   51      C       3.1245487053    -2.5915382514     3.5418728897
   52      C      -0.0950429703    -3.9700496084    -0.0893289031
   53      O      -1.2874446770    -4.1908175073     4.6692223017
   54      C      -2.5689325235    -4.6411621652     4.3283050619
   55      H       6.3187420301    -4.3081922309    -1.9175388930
   56      H       2.9331146310    -5.4194563831     1.5471560893
   57      H       0.8141307486    -0.8431506900     1.0225610332
   58      H       4.1302299126     0.3544920744    -2.4811418766
   59      H       7.8386031752    -6.5682714615    -2.3686675599
   60      H       8.6780377936    -8.8837584580    -2.4000502010
   61      H       7.7115872466   -10.6327279842    -0.9999232171
   62      H       5.8336744073   -11.2675058631     0.8066225125
   63      H       3.9658811086   -10.4720810143     2.1616458586
   64      H       3.2321875981    -8.1209982756     2.1323393096
   65      H       2.0818689091     4.8125855766    -4.1629860656
   66      H       3.3724652526     2.8074146142    -3.5441318518
   67      H      -0.0235935415     5.3887411287    -3.0744806488
   68      H      -1.1225749714     1.1105688106     1.0131235825
   69      H      -2.5173308598     3.0674063465     0.4588459580
   70      H      -1.8584942255     4.6901595447    -1.2396229048
   71      H       8.5166528654    -0.5075400388    -3.5070974025
   72      H       5.6074981111    -2.4528092273    -6.0294270613
   73      H       7.8576521372     0.1167573908    -1.2818111021
   74      C       8.0213647693    -1.8666237584    -0.4467852739
   75      H       6.3701197191    -0.4862070212    -0.5732141966
   76      H       9.4501524835    -0.7104489791    -7.0118218836
   77      H       9.8125673135    -1.2299852481    -5.3544189918
   78      H       9.0244206506     0.3436064733    -5.6497871732
   79      H       1.0400903667    -3.3109110890     5.1109491302
   80      H      -1.6635504049    -4.4348918749     1.9860766947
   81      H       0.4927010492    -3.3093358721    -0.7303312388
   82      H      -1.1415936580    -3.7001905182    -0.2589429182
   83      C       0.1266722858    -5.4187512589    -0.5190735199
   84      H      -3.1068884902    -4.7912630638     5.2625150727
   85      H      -3.1200040734    -3.9124756612     3.7238791698
   86      H      -2.5474220086    -5.5919281169     3.7846520306
   87      H       1.1734563507    -5.7044064232    -0.4134705595
   88      H      -0.1549300902    -5.5656993835    -1.5629132574
   89      H      -0.4666779133    -6.1056981966     0.0860587164
   90      H       8.9042371638    -2.1634800097    -1.0142499007
   91      H       7.4093375367    -2.7506044990    -0.2790878883
   92      H       8.3521081759    -1.5045209202     0.5254099860
   93      H       3.5585242251    -3.2589071562    -5.1494018764
   94      H       2.9640535513    -2.3818955662    -3.7318769929
   95      H       3.7393085592    -3.9344614507    -3.5237723602
   96      H       3.3422896446    -1.6261064876     3.0808445565
   97      H       3.9258039492    -3.2707986325     3.2440110099
   98      H       3.1785798453    -2.4658802641     4.6231506668
 ----------------------------------------------------------------

    7   -2202.2464157189      4.20E-09 Convergence criterion met
 Total energy in the final basis set = -2202.24641572

         TDDFT/TDA Excitation Energies
 ---------------------------------------------------

 Excited state   1: excitation energy (eV) =    2.4534
 Total energy for state  1:                 -2202.15625376 au
    Multiplicity: Singlet
    Trans. Mom.:  0.1651 X  -0.0725 Y  -0.1251 Z
    Strength   :     0.0028961575
    D(190) --> V(  1) amplitude =  0.9727

 Excited state   2: excitation energy (eV) =    2.8856
 Total energy for state  2:                 -2202.14037123 au
    Multiplicity: Singlet
    Trans. Mom.:  0.0558 X  -0.1778 Y   0.0518 Z
    Strength   :     0.0026443084
    D(187) --> V(  1) amplitude =  0.5772
    D(188) --> V(  1) amplitude =  0.7513

 ---------------------------------------------------

 Final energy is   -2202.15625376249
 **  OPTIMIZATION CONVERGED  **

                    Orbital Energies (a.u.)
 --------------------------------------------------------------

 Alpha MOs
 -- Occupied --
-19.523 -19.522 -10.499 -10.498 -10.492 -10.488 -10.463 -10.463
-10.463 -10.462 -10.462 -10.462 -10.461 -10.460 -10.460 -10.460
-10.460 -10.460 -10.459 -10.459 -10.459 -10.459 -10.458 -10.458
-10.458 -10.458 -10.457 -10.457 -10.450 -10.450 -10.449 -10.448
-10.448 -10.447 -10.445 -10.444 -10.444 -10.444 -10.432 -10.430
-10.430 -10.430 -10.429 -10.429 -10.429 -10.426 -10.426 -10.423
-10.422 -10.419 -10.418 -10.416 -10.413 -10.411  -6.942  -6.935
 -1.189  -1.179  -1.013  -1.012  -0.958  -0.955  -0.950  -0.941
 -0.931  -0.931  -0.904  -0.896  -0.880  -0.879  -0.857  -0.851
 -0.850  -0.847  -0.845  -0.844  -0.820  -0.815  -0.814  -0.811
 -0.809  -0.800  -0.772  -0.768  -0.760  -0.758  -0.732  -0.727
 -0.725  -0.718  -0.705  -0.704  -0.687  -0.679  -0.677  -0.663
 -0.655  -0.645  -0.643  -0.641  -0.633  -0.629  -0.594  -0.590
 -0.589  -0.587  -0.582  -0.581  -0.579  -0.573  -0.573  -0.558
 -0.556  -0.541  -0.541  -0.538  -0.533  -0.532  -0.525  -0.521
 -0.510  -0.504  -0.501  -0.497  -0.496  -0.494  -0.493  -0.490
 -0.487  -0.486  -0.482  -0.481  -0.480  -0.479  -0.477  -0.473
 -0.472  -0.468  -0.465  -0.464  -0.462  -0.461  -0.458  -0.452
 -0.444  -0.442  -0.438  -0.436  -0.431  -0.426  -0.425  -0.421
 -0.420  -0.420  -0.417  -0.413  -0.410  -0.408  -0.403  -0.402
 -0.396  -0.393  -0.392  -0.392  -0.389  -0.389  -0.382  -0.381
 -0.375  -0.369  -0.363  -0.359  -0.356  -0.353  -0.349  -0.346
 -0.338  -0.331  -0.316  -0.310  -0.293  -0.292  -0.278  -0.273
 -0.271  -0.259  -0.252  -0.251  -0.247  -0.230

          Ground-State Mulliken Net Atomic Charges

     Atom                 Charge (a.u.)
  ----------------------------------------
      1 C                    -0.154559
      2 C                    -0.147515
      3 B                     0.651668
      4 C                    -0.144269
      5 C                    -0.140411
      6 B                     0.669609
      7 C                    -0.400719
      8 C                     0.104112
      9 C                     0.102156
     10 C                    -0.403915
     11 C                    -0.386003
     12 C                     0.100077
     13 C                     0.102304
     14 C                    -0.385477
     15 C                    -0.381092
     16 C                    -0.203390
     17 C                    -0.333625
     18 C                     0.248528
     19 C                    -0.065268
     20 C                     0.199074
     21 C                    -0.331944
     22 C                    -0.204202
     23 C                    -0.380259
     24 C                     0.194570
     25 C                    -0.202963
     26 C                    -0.380903
     27 C                     0.196788
     28 C                    -0.064180
     29 C                     0.249121
     30 C                    -0.334105
     31 C                     0.191577
     32 C                    -0.376173
     33 C                    -0.204822
     34 C                    -0.332056
     35 C                    -0.444915
     36 C                     0.114766
     37 C                    -0.252847
     38 C                     0.074095
     39 C                    -0.393608
     40 C                     0.399875
     41 C                    -0.546360
     42 C                    -0.759664
     43 O                    -0.444038
     44 C                    -0.402419
     45 C                    -0.378531
     46 C                     0.066043
     47 C                    -0.229071
     48 C                     0.071024
     49 C                    -0.423541
     50 C                     0.401217
     51 C                    -0.760116
     52 C                    -0.547249
     53 O                    -0.454196
     54 C                    -0.405584
     55 H                     0.241810
     56 H                     0.239068
     57 H                     0.232936
     58 H                     0.232175
     59 H                     0.221155
     60 H                     0.226156
     61 H                     0.220050
     62 H                     0.220214
     63 H                     0.226110
     64 H                     0.221736
     65 H                     0.225791
     66 H                     0.220976
     67 H                     0.219764
     68 H                     0.221153
     69 H                     0.225532
     70 H                     0.219799
     71 H                     0.215680
     72 H                     0.217326
     73 H                     0.224169
     74 C                    -0.647659
     75 H                     0.249466
     76 H                     0.242200
     77 H                     0.209000
     78 H                     0.209066
     79 H                     0.220841
     80 H                     0.221347
     81 H                     0.254375
     82 H                     0.225975
     83 C                    -0.640424
     84 H                     0.238602
     85 H                     0.202645
     86 H                     0.202107
     87 H                     0.240450
     88 H                     0.218148
     89 H                     0.211677
     90 H                     0.212774
     91 H                     0.247288
     92 H                     0.217583
     93 H                     0.235290
     94 H                     0.246805
     95 H                     0.247472
     96 H                     0.244558
     97 H                     0.245319
     98 H                     0.236879
  ----------------------------------------
  Sum of atomic charges =     0.000000

                    Cartesian Multipole Moments
 -----------------------------------------------------------------
    Charge (ESU x 10^10)
                -0.0000
    Dipole Moment (Debye)
         X      -0.2567      Y      -0.2805      Z      -1.2190
       Tot       1.2770
    Quadrupole Moments (Debye-Ang)
        XX    -276.5332     XY      -3.6966     YY    -280.7755
        XZ     -25.2914     YZ     -11.9380     ZZ    -317.3433

 Total job time:  48705.62s(wall), 292996.72s(cpu)
        *  Thank you very much for using Q-Chem.  Have a nice day.  *
