 Q-Chem 5.1, Q-Chem, Inc., Pleasanton, CA (2018)
 Q-Chem 5.1.1 for Intel X86 EM64T Linux

User input:
--------------------------------------------------------------
$rem
threads 8
jobtype	opt
method PBEh-3c
basis def2-mSVP
mem_static	1024
mem_total	14000
sym_ignore	true
cis_n_roots             2
cis_singlets            false
cis_triplets		true
rpa                     false
cis_state_deriv         1
$end

$molecule
read t1preopt.mol
$end

--------------------------------------------------------------

   15   -2202.2454899817      6.96e-09  Convergence criterion met
 Total energy in the final basis set =    -2202.2454899817
   10   -2202.2462583527      9.95e-09  Convergence criterion met
 Total energy in the final basis set =    -2202.2462583527
   11   -2202.2475419161      6.24e-09  Convergence criterion met
 Total energy in the final basis set =    -2202.2475419161
   10   -2202.2480249962      9.37e-09  Convergence criterion met
 Total energy in the final basis set =    -2202.2480249962
   12   -2202.2478807898      5.80e-09  Convergence criterion met
 Total energy in the final basis set =    -2202.2478807898
   11   -2202.2480920480      5.73e-09  Convergence criterion met
 Total energy in the final basis set =    -2202.2480920480
   10   -2202.2489776256      8.14e-09  Convergence criterion met
 Total energy in the final basis set =    -2202.2489776256
   10   -2202.2493179050      8.11e-09  Convergence criterion met
   10   -2202.2498037631      6.32e-09  Convergence criterion met
 Total energy in the final basis set =    -2202.2498037631
    9   -2202.2499077105      9.78e-09  Convergence criterion met
 Total energy in the final basis set =    -2202.2499077105
    9   -2202.2499175079      6.40e-09  Convergence criterion met
 Total energy in the final basis set =    -2202.2499175079
   10   -2202.2498509890      4.83e-09  Convergence criterion met
 Total energy in the final basis set =    -2202.2498509890
    8   -2202.2498197438      7.78e-09  Convergence criterion met
 Total energy in the final basis set =    -2202.2498197438
    8   -2202.2498117480      7.16e-09  Convergence criterion met
 Total energy in the final basis set =    -2202.2498117480

             Standard Nuclear Orientation (Angstroms)
    I     Atom           X                Y                Z
 ----------------------------------------------------------------
    1      C       2.5585765551    -1.5001820838     0.0153075689
    2      C       3.5293420489    -1.1644657346    -1.0239658778
    3      B       4.5800731487    -2.1972906673    -1.4634142266
    4      C       4.6320186790    -3.5509434566    -0.7371668348
    5      C       3.6490559803    -3.8931531859     0.2703126081
    6      B       2.5647370839    -2.8858320559     0.6816970680
    7      C       5.5943881300    -4.5026965469    -1.1119867403
    8      C       5.5842057181    -5.7563392502    -0.5536366210
    9      C       4.5764568726    -6.1101831522     0.4220015063
   10      C       3.6466827130    -5.1823842689     0.8234297082
   11      C       1.5520107584    -0.5846195212     0.3362554951
   12      C       1.4654874531     0.6157383315    -0.3309363649
   13      C       2.4457146360     0.9631195879    -1.3521206791
   14      C       3.4447623508     0.0756878889    -1.6743885565
   15      C       7.4396403638    -7.2390797431    -1.6407287665
   16      C       7.9298351947    -8.5621676389    -1.6532789191
   17      C       7.3854495957    -9.5620106175    -0.8787959504
   18      C       6.2927730976    -9.2842480395    -0.0234605075
   19      C       5.8419672657    -7.9673984217    -0.0140549140
   20      C       6.3860599864    -6.9387758698    -0.8115215298
   21      C       5.5822794797   -10.1931405169     0.7968877188
   22      C       4.5061355163    -9.7609382275     1.5395539042
   23      C       4.0650600231    -8.4208864487     1.5277282239
   24      C       4.7418717139    -7.5148859136     0.7457154973
   25      C       1.8012099977     4.1994076654    -3.2618552406
   26      C       2.5321048131     3.0412737752    -2.9281810618
   27      C       2.0527556740     2.2334484711    -1.9229042891
   28      C       0.8542062386     2.6057212275    -1.2733790779
   29      C       0.1011544557     3.7277873713    -1.6024637168
   30      C       0.6228770781     4.5430012438    -2.6351934417
   31      C       0.4678528071     1.6547765640    -0.3012754898
   32      C      -0.7175171424     1.8407722153     0.3747137396
   33      C      -1.4911784050     2.9754361870     0.0649418661
   34      C      -1.1096568015     3.8961833372    -0.8879221790
   35      C       7.4906950483    -1.0061245300    -3.7532929923
   36      C       6.6932667449    -1.2094324063    -2.6252915755
   37      C       5.5082805845    -1.9384668327    -2.7088000273
   38      C       5.1318438412    -2.4630928775    -3.9606769622
   39      C       5.9244770169    -2.2541076494    -5.0744511361
   40      C       7.1081453952    -1.5260164636    -4.9798899803
   41      C       7.1751204221    -0.6723546087    -1.3031599773
   42      C       3.8584185150    -3.2524535773    -4.1029645567
   43      O       7.8035870212    -1.3764416062    -6.1279606836
   44      C       9.0009545117    -0.6492764321    -6.0928926398
   45      C       0.7517919136    -3.5055386993     4.0394181340
   46      C       1.7188379856    -3.1693764105     3.1096889490
   47      C       1.4588087964    -3.2841350254     1.7320119624
   48      C       0.2071762637    -3.7508094887     1.3307979993
   49      C      -0.7644776501    -4.0896684736     2.2743326248
   50      C      -0.4977144848    -3.9662128440     3.6282712114
   51      C       3.0591182269    -2.6708780847     3.5718858674
   52      C      -0.1271572402    -3.9539504381    -0.1266234339
   53      O      -1.3766720298    -4.2597972514     4.6107558203
   54      C      -2.6581406888    -4.6976638762     4.2490678314
   55      H       6.3221941014    -4.2491871381    -1.8747878899
   56      H       2.8836790894    -5.4461988953     1.5476757220
   57      H       0.8136628018    -0.8503601478     1.0844056937
   58      H       4.1539432278     0.3067153726    -2.4611696878
   59      H       7.8876952380    -6.4944749535    -2.2859369842
   60      H       8.7583877843    -8.8002318722    -2.3074596216
   61      H       7.7867539636   -10.5664812647    -0.9347121091
   62      H       5.8767932920   -11.2348735259     0.8316008985
   63      H       3.9712632876   -10.4759580810     2.1511053134
   64      H       3.2036567029    -8.1346422463     2.1176088298
   65      H       2.1746767963     4.8345402835    -4.0544349558
   66      H       3.4371944099     2.7995620746    -3.4702221881
   67      H       0.0896493323     5.4338215675    -2.9429643972
   68      H      -1.0666995964     1.1341156406     1.1166671935
   69      H      -2.4262940663     3.1236311436     0.5891702246
   70      H      -1.7468934713     4.7462290313    -1.0978616893
   71      H       8.4035760760    -0.4325927212    -3.6474363809
   72      H       5.6294615809    -2.6479517015    -6.0400573918
   73      H       7.7249137405     0.2594499695    -1.4609248202
   74      C       8.0699341680    -1.6687261404    -0.5690776035
   75      H       6.3238973714    -0.4153783807    -0.6670675502
   76      H       9.3955414932    -0.6493027635    -7.1070358960
   77      H       9.7456867295    -1.1041603404    -5.4312235133
   78      H       8.8484961711     0.3889720362    -5.7801024393
   79      H       0.9495933278    -3.4071516750     5.1001898944
   80      H      -1.7253311058    -4.4437591011     1.9203998734
   81      H       0.4706361573    -3.2867852390    -0.7520937732
   82      H      -1.1693498528    -3.6742609419    -0.3050699876
   83      C       0.0901413708    -5.3964172442    -0.5789684655
   84      H      -3.2046466619    -4.8627871701     5.1754078040
   85      H      -3.1995694135    -3.9542570577     3.6543573609
   86      H      -2.6351726063    -5.6379590705     3.6880596599
   87      H       1.1328241966    -5.6934064303    -0.4635557280
   88      H      -0.1759281624    -5.5217674358    -1.6292078736
   89      H      -0.5175896013    -6.0887841536     0.0050354384
   90      H       8.9400231647    -1.9323498553    -1.1717336436
   91      H       7.5324399314    -2.5900141477    -0.3436060766
   92      H       8.4279064675    -1.2560614515     0.3748602674
   93      H       3.6526200073    -3.4947979406    -5.1452886397
   94      H       2.9975330084    -2.7021691788    -3.7179844752
   95      H       3.9041253590    -4.1928402086    -3.5501268264
   96      H       3.8595662433    -3.3535069172     3.2786486513
   97      H       3.0993421493    -2.5616057999     4.6551855242
   98      H       3.2948175233    -1.6999718577     3.1313939038
 ----------------------------------------------------------------

    7   -2202.2498117244      7.72e-09  Convergence criterion met
 Total energy in the final basis set =    -2202.2498117244

         TDDFT/TDA Excitation Energies
 ---------------------------------------------------

 Excited state   1: excitation energy (eV) =    1.9938
 Total energy for state  1:                 -2202.17653937 au
    Multiplicity: Triplet
    Trans. Mom.:  0.0000 X   0.0000 Y   0.0000 Z
    Strength   :     0.0000000000
    D(183) --> V(  2) amplitude =  0.2482
    D(188) --> V(  1) amplitude =  0.2315
    D(189) --> V(  1) amplitude =  0.7814
    D(190) --> V(  1) amplitude =  0.4358

 Excited state   2: excitation energy (eV) =    2.3677
 Total energy for state  2:                 -2202.16280115 au
    Multiplicity: Triplet
    Trans. Mom.:  0.0000 X   0.0000 Y   0.0000 Z
    Strength   :     0.0000000000
    D(186) --> V(  1) amplitude =  0.2166
    D(186) --> V(  2) amplitude = -0.4534
    D(187) --> V(  1) amplitude =  0.7486

 ---------------------------------------------------

 Final energy is   -2202.17653937252
 **  OPTIMIZATION CONVERGED  **

                    Orbital Energies (a.u.)
 --------------------------------------------------------------

 Alpha MOs
 -- Occupied --
-19.522 -19.522 -10.498 -10.498 -10.488 -10.488 -10.464 -10.464
-10.463 -10.463 -10.463 -10.463 -10.462 -10.461 -10.461 -10.461
-10.461 -10.461 -10.460 -10.460 -10.459 -10.459 -10.459 -10.458
-10.458 -10.458 -10.458 -10.458 -10.449 -10.449 -10.449 -10.448
-10.448 -10.448 -10.447 -10.446 -10.445 -10.445 -10.432 -10.432
-10.432 -10.431 -10.431 -10.430 -10.430 -10.430 -10.426 -10.426
-10.423 -10.421 -10.419 -10.418 -10.412 -10.412  -6.939  -6.939
 -1.180  -1.180  -1.012  -1.011  -0.957  -0.953  -0.951  -0.949
 -0.932  -0.932  -0.903  -0.894  -0.880  -0.879  -0.859  -0.854
 -0.852  -0.848  -0.846  -0.846  -0.815  -0.815  -0.813  -0.811
 -0.810  -0.795  -0.773  -0.772  -0.760  -0.760  -0.731  -0.730
 -0.727  -0.716  -0.706  -0.705  -0.687  -0.681  -0.676  -0.664
 -0.655  -0.646  -0.641  -0.639  -0.634  -0.633  -0.596  -0.592
 -0.588  -0.588  -0.582  -0.582  -0.581  -0.574  -0.573  -0.558
 -0.557  -0.540  -0.540  -0.533  -0.533  -0.533  -0.525  -0.521
 -0.512  -0.507  -0.499  -0.498  -0.495  -0.495  -0.493  -0.490
 -0.489  -0.488  -0.481  -0.480  -0.480  -0.480  -0.477  -0.473
 -0.471  -0.468  -0.465  -0.463  -0.461  -0.460  -0.457  -0.454
 -0.443  -0.443  -0.439  -0.435  -0.430  -0.427  -0.424  -0.421
 -0.419  -0.418  -0.417  -0.412  -0.410  -0.406  -0.404  -0.402
 -0.397  -0.394  -0.393  -0.393  -0.389  -0.387  -0.382  -0.382
 -0.373  -0.369  -0.365  -0.361  -0.359  -0.355  -0.351  -0.345
 -0.337  -0.333  -0.319  -0.313  -0.294  -0.293  -0.273  -0.271
 -0.271  -0.260  -0.252  -0.247  -0.245  -0.245

          Ground-State Mulliken Net Atomic Charges

     Atom                 Charge (a.u.)
  ----------------------------------------
      1 C                    -0.157188
      2 C                    -0.155201
      3 B                     0.664304
      4 C                    -0.148964
      5 C                    -0.146832
      6 B                     0.663176
      7 C                    -0.397691
      8 C                     0.095136
      9 C                     0.089504
     10 C                    -0.395119
     11 C                    -0.375030
     12 C                     0.082870
     13 C                     0.089065
     14 C                    -0.378555
     15 C                    -0.376036
     16 C                    -0.204700
     17 C                    -0.332606
     18 C                     0.247533
     19 C                    -0.068683
     20 C                     0.198120
     21 C                    -0.331886
     22 C                    -0.204694
     23 C                    -0.375550
     24 C                     0.198685
     25 C                    -0.204322
     26 C                    -0.372498
     27 C                     0.198375
     28 C                    -0.071437
     29 C                     0.248340
     30 C                    -0.332578
     31 C                     0.196918
     32 C                    -0.368231
     33 C                    -0.205170
     34 C                    -0.331650
     35 C                    -0.423866
     36 C                     0.088629
     37 C                    -0.220837
     38 C                     0.053465
     39 C                    -0.381536
     40 C                     0.402046
     41 C                    -0.546016
     42 C                    -0.758984
     43 O                    -0.453803
     44 C                    -0.405256
     45 C                    -0.378488
     46 C                     0.068713
     47 C                    -0.230216
     48 C                     0.073435
     49 C                    -0.425074
     50 C                     0.401948
     51 C                    -0.759078
     52 C                    -0.548121
     53 O                    -0.453814
     54 C                    -0.405501
     55 H                     0.241399
     56 H                     0.239686
     57 H                     0.234019
     58 H                     0.232340
     59 H                     0.221952
     60 H                     0.226406
     61 H                     0.220151
     62 H                     0.220081
     63 H                     0.226428
     64 H                     0.222093
     65 H                     0.226161
     66 H                     0.221767
     67 H                     0.220192
     68 H                     0.222258
     69 H                     0.226168
     70 H                     0.220026
     71 H                     0.220660
     72 H                     0.220929
     73 H                     0.224653
     74 C                    -0.644057
     75 H                     0.250499
     76 H                     0.238626
     77 H                     0.202586
     78 H                     0.202782
     79 H                     0.220633
     80 H                     0.221099
     81 H                     0.255365
     82 H                     0.225964
     83 C                    -0.640197
     84 H                     0.238814
     85 H                     0.202945
     86 H                     0.202571
     87 H                     0.240396
     88 H                     0.217885
     89 H                     0.211514
     90 H                     0.213220
     91 H                     0.241468
     92 H                     0.218905
     93 H                     0.236713
     94 H                     0.245451
     95 H                     0.248085
     96 H                     0.245427
     97 H                     0.236427
     98 H                     0.244460
  ----------------------------------------
  Sum of atomic charges =     0.000000

                    Cartesian Multipole Moments
 -----------------------------------------------------------------
    Charge (ESU x 10^10)
                -0.0000
    Dipole Moment (Debye)
         X      -0.5869      Y      -0.1420      Z      -0.9592
       Tot       1.1334
    Quadrupole Moments (Debye-Ang)
        XX    -281.0260     XY      -2.8359     YY    -279.6553
        XZ     -22.1765     YZ     -12.3439     ZZ    -320.4248

 Total job time:  40552.99s(wall), 290050.29s(cpu)
        *  Thank you very much for using Q-Chem.  Have a nice day.  *
