 Q-Chem 5.0, Q-Chem, Inc., Pleasanton, CA (2017)
 Q-Chem 5.0.1 for Intel X86 EM64T Linux

User input:
--------------------------------------------------------------
$rem
threads 8
jobtype	opt
method PBEh-3c
basis def2-mSVP
mem_static	1024
mem_total	14000
sym_ignore	true
cis_n_roots             2
cis_singlets            false
cis_triplets		true
rpa                     false
cis_state_deriv         1
state_follow		true
$end

$molecule
read s1opt.mol
$end

--------------------------------------------------------------

   15   -2202.2463114432      6.97E-09 Convergence criterion met
 Total energy in the final basis set = -2202.24631144
   13   -2202.2509134950      5.92E-09 Convergence criterion met
 Total energy in the final basis set = -2202.25091349
   13   -2202.2508760709      5.60E-09 Convergence criterion met
 Total energy in the final basis set = -2202.25087607
   13   -2202.2508992154      5.59E-09 Convergence criterion met
 Total energy in the final basis set = -2202.25089922
   11   -2202.2515339191      8.35E-09 Convergence criterion met
 Total energy in the final basis set = -2202.25153392
   11   -2202.2516361256      5.57E-09 Convergence criterion met
 Total energy in the final basis set = -2202.25163613
   10   -2202.2516298600      7.80E-09 Convergence criterion met
 Total energy in the final basis set = -2202.25162986
    9   -2202.2516211482      9.28E-09 Convergence criterion met
 Total energy in the final basis set = -2202.25162115

             Standard Nuclear Orientation (Angstroms)
    I     Atom           X                Y                Z
 ----------------------------------------------------------------
    1      C       0.0202532588    -0.4038571011     0.0655902770
    2      C       0.0284821976    -0.3601812535     1.4732161041
    3      H       0.9789973195    -0.3638620902     1.9952994856
    4      C      -1.1509855706    -0.3068711673     2.1750961275
    5      C      -2.4126832103    -0.2860971738     1.4580613792
    6      C      -2.4406377090    -0.3290112320     0.0839586910
    7      H      -3.3874827250    -0.3159270586    -0.4452016113
    8      C      -1.2500239470    -0.3935446831    -0.6456625011
    9      C      -3.4803138332    -0.2211211868     2.4242032481
   10      C      -4.8535863375    -0.1756205091     2.3446145003
   11      H      -5.3699609758    -0.1836120124     1.3930559409
   12      C      -2.8661688539    -0.2058742400     3.6951161137
   13      C      -3.5721877205    -0.1487492353     4.8915732645
   14      C      -1.4586560456    -0.2558635908     3.5937737329
   15      C      -0.7245989089    -0.2483256990     4.7544110110
   16      H       0.3569740527    -0.2852537732     4.7448124700
   17      C      -1.4143638712    -0.1912342380     5.9844903148
   18      H      -0.8357366004    -0.1857992678     6.8987658714
   19      C      -2.7882571836    -0.1424151714     6.0689047753
   20      H      -3.2675731076    -0.0995162026     7.0389184011
   21      C      -5.5894387905    -0.1175296044     3.5436965945
   22      H      -6.6697172594    -0.0818646504     3.4882822636
   23      C      -4.9839902889    -0.1040859475     4.7821822459
   24      H      -5.5937834336    -0.0586804185     5.6759237588
   25      B       1.3451344034    -0.4618349733    -0.7136558365
   26      C       1.3004032185    -0.5548682516    -2.2470309754
   27      C       2.4966611004    -0.6661931340    -2.9801662568
   28      H       3.4395508103    -0.6961794017    -2.4459419739
   29      C       2.4661003192    -0.7325310776    -4.3519634027
   30      C       1.1907908445    -0.6781515954    -5.0444387498
   31      C       0.0122522875    -0.5787556841    -4.3453156503
   32      H      -0.9349934120    -0.5469073133    -4.8720075304
   33      C       0.0257416535    -0.5268408955    -2.9494236105
   34      C       1.4415866271    -0.7569570800    -6.4620617608
   35      C       0.6484054062    -0.7534925378    -7.5875026798
   36      H      -0.4295195155    -0.6751511569    -7.5244436572
   37      C       2.8410517566    -0.8608802499    -6.6121464553
   38      C       3.4779979542    -0.9642213161    -7.8454423607
   39      C       3.5030021901    -0.8507926036    -5.3649099959
   40      C       4.8735720351    -0.9509880376    -5.3604248393
   41      H       5.4417115829    -0.9522818148    -4.4393905235
   42      C       1.2719988699    -0.8555123297    -8.8463115999
   43      H       0.6526537763    -0.8528121314    -9.7339244611
   44      C       2.6391689612    -0.9588801060    -8.9868958956
   45      H       3.0731697996    -1.0358502949    -9.9761984470
   46      C       5.5462677842    -1.0563452942    -6.5968450036
   47      H       6.6254356061    -1.1353828180    -6.5902330972
   48      C       4.8879709758    -1.0642990251    -7.8064356621
   49      H       5.4511886050    -1.1485874244    -8.7275992685
   50      B      -1.3018140230    -0.4482271249    -2.1807592343
   51      C       2.7231691047    -0.4538040634     0.0432902052
   52      C       3.4593326075     0.7189788938     0.2101236667
   53      C       4.6717457180     0.7071869295     0.9015117317
   54      H       5.2131072412     1.6388439895     1.0115143879
   55      C       5.1639903204    -0.4787424678     1.4252589121
   56      O       6.3231211306    -0.5923874905     2.1087503067
   57      C       4.4436521571    -1.6578693459     1.2459037669
   58      H       4.8451790118    -2.5817429099     1.6454017890
   59      C       3.2395992419    -1.6526031333     0.5656183475
   60      C       7.0816816109     0.5648177952     2.3302200096
   61      H       7.9536482233     0.2611687961     2.9060136130
   62      H       7.4252739449     1.0232752586     1.3967459892
   63      H       6.5322247152     1.3191199043     2.9034350306
   64      C       2.4846489798    -2.9392535893     0.3719208010
   65      H       3.0302987965    -3.7925030674     0.7739102303
   66      H       2.2982352213    -3.1353209294    -0.6862825549
   67      H       1.5094347426    -2.9112367861     0.8622721011
   68      C       2.9434438766     2.0339464180    -0.3167330613
   69      H       2.3943666008     1.8773516599    -1.2490415288
   70      H       3.7865774597     2.6810125227    -0.5731924813
   71      C       2.0417065070     2.7555500881     0.6823589206
   72      H       1.1492668046     2.1707336512     0.9053120809
   73      H       1.7148065585     3.7191716549     0.2895708313
   74      H       2.5624877841     2.9354972118     1.6235483374
   75      C      -2.6743167503    -0.4028854396    -2.9579571066
   76      C      -3.2992373427    -1.5631871017    -3.4150073736
   77      C      -4.5034033816    -1.4993424749    -4.1187472736
   78      H      -4.9533428843    -2.4253527482    -4.4568816648
   79      C      -5.0978384465    -0.2756353369    -4.3790328408
   80      O      -6.2585717518    -0.1140368050    -5.0502804240
   81      C      -4.4776782286     0.8906082896    -3.9359621485
   82      H      -4.9425131476     1.8449040568    -4.1536229565
   83      C      -3.2857373654     0.8339603560    -3.2367076341
   84      C      -6.9236333486    -1.2565167535    -5.5169634886
   85      H      -7.8283259672    -0.9102376381    -6.0127208190
   86      H      -7.2100294479    -1.9327288495    -4.7046104996
   87      H      -6.3261960489    -1.8205049750    -6.2411290659
   88      C      -2.6325560326     2.1097755556    -2.7847276134
   89      H      -3.1944614825     2.9863754256    -3.1057505000
   90      H      -1.6208823029     2.2015172244    -3.1859012160
   91      H      -2.5469987754     2.1523461835    -1.6972201092
   92      C      -2.7276186647    -2.9280509871    -3.1257234902
   93      H      -1.6431425207    -2.8690656939    -3.0052506788
   94      H      -2.8978580203    -3.5847347863    -3.9834429504
   95      C      -3.3413191973    -3.5584228386    -1.8779108594
   96      H      -3.1421792598    -2.9516562987    -0.9944543266
   97      H      -4.4233660026    -3.6544950514    -1.9763246721
   98      H      -2.9316112934    -4.5529344705    -1.6978037042
 ----------------------------------------------------------------

    9   -2202.2516242954      6.55E-09 Convergence criterion met
 Total energy in the final basis set = -2202.25162430

         TDDFT/TDA Excitation Energies
 ---------------------------------------------------

 Excited state   1: excitation energy (eV) =    1.9906
 Total energy for state  1:                 -2202.17847226 au
    Multiplicity: Triplet
    Trans. Mom.:  0.0000 X   0.0000 Y   0.0000 Z
    Strength   :     0.0000000000
    D(183) --> V(  2) amplitude = -0.2484
    D(189) --> V(  1) amplitude =  0.9173

 Excited state   2: excitation energy (eV) =    2.3754
 Total energy for state  2:                 -2202.16432956 au
    Multiplicity: Triplet
    Trans. Mom.:  0.0000 X   0.0000 Y   0.0000 Z
    Strength   :     0.0000000000
    D(186) --> V(  2) amplitude = -0.4768
    D(187) --> V(  1) amplitude = -0.7972

 ---------------------------------------------------

 Final energy is   -2202.17847226027
 **  OPTIMIZATION CONVERGED  **

                    Orbital Energies (a.u.)
 --------------------------------------------------------------

 Alpha MOs
 -- Occupied --
-19.523 -19.522 -10.498 -10.497 -10.488 -10.487 -10.464 -10.463
-10.463 -10.463 -10.463 -10.463 -10.462 -10.462 -10.461 -10.461
-10.461 -10.461 -10.460 -10.460 -10.459 -10.459 -10.458 -10.458
-10.458 -10.458 -10.458 -10.457 -10.451 -10.449 -10.449 -10.448
-10.447 -10.447 -10.447 -10.446 -10.445 -10.444 -10.432 -10.432
-10.431 -10.431 -10.430 -10.430 -10.430 -10.430 -10.426 -10.425
-10.423 -10.422 -10.418 -10.416 -10.413 -10.411  -6.940  -6.938
 -1.180  -1.179  -1.012  -1.011  -0.957  -0.953  -0.951  -0.949
 -0.932  -0.932  -0.902  -0.894  -0.880  -0.878  -0.859  -0.854
 -0.852  -0.849  -0.846  -0.845  -0.816  -0.814  -0.813  -0.811
 -0.810  -0.795  -0.773  -0.771  -0.760  -0.760  -0.731  -0.730
 -0.727  -0.716  -0.705  -0.705  -0.687  -0.681  -0.676  -0.664
 -0.655  -0.645  -0.640  -0.639  -0.634  -0.633  -0.596  -0.592
 -0.588  -0.587  -0.582  -0.581  -0.581  -0.574  -0.573  -0.558
 -0.557  -0.540  -0.540  -0.533  -0.533  -0.532  -0.525  -0.521
 -0.512  -0.506  -0.500  -0.498  -0.495  -0.494  -0.493  -0.490
 -0.489  -0.488  -0.481  -0.481  -0.480  -0.480  -0.477  -0.472
 -0.471  -0.468  -0.465  -0.463  -0.461  -0.460  -0.457  -0.454
 -0.443  -0.442  -0.439  -0.434  -0.431  -0.426  -0.425  -0.421
 -0.419  -0.418  -0.417  -0.412  -0.410  -0.406  -0.403  -0.402
 -0.397  -0.394  -0.393  -0.393  -0.389  -0.387  -0.382  -0.380
 -0.373  -0.369  -0.364  -0.361  -0.359  -0.355  -0.351  -0.344
 -0.337  -0.333  -0.319  -0.313  -0.294  -0.293  -0.274  -0.271
 -0.271  -0.260  -0.252  -0.247  -0.245  -0.245

          Ground-State Mulliken Net Atomic Charges

     Atom                 Charge (a.u.)
  ----------------------------------------
      1 C                    -0.152582
      2 C                    -0.397809
      3 H                     0.239931
      4 C                     0.104551
      5 C                     0.081434
      6 C                    -0.392683
      7 H                     0.237531
      8 C                    -0.146073
      9 C                     0.197734
     10 C                    -0.370364
     11 H                     0.222157
     12 C                    -0.071004
     13 C                     0.252211
     14 C                     0.202084
     15 C                    -0.380564
     16 H                     0.222240
     17 C                    -0.203570
     18 H                     0.226338
     19 C                    -0.335709
     20 H                     0.220429
     21 C                    -0.205717
     22 H                     0.226699
     23 C                    -0.331995
     24 H                     0.220098
     25 B                     0.664862
     26 C                    -0.156787
     27 C                    -0.384570
     28 H                     0.235107
     29 C                     0.103643
     30 C                     0.078146
     31 C                    -0.375024
     32 H                     0.233925
     33 C                    -0.154469
     34 C                     0.198739
     35 C                    -0.369441
     36 H                     0.221769
     37 C                    -0.071137
     38 C                     0.250423
     39 C                     0.202520
     40 C                    -0.380824
     41 H                     0.221841
     42 C                    -0.205876
     43 H                     0.226187
     44 C                    -0.330991
     45 H                     0.219719
     46 C                    -0.203345
     47 H                     0.225878
     48 C                    -0.335414
     49 H                     0.220200
     50 B                     0.667053
     51 C                    -0.222191
     52 C                     0.084146
     53 C                    -0.429733
     54 H                     0.220871
     55 C                     0.401503
     56 O                    -0.453933
     57 C                    -0.380486
     58 H                     0.220259
     59 C                     0.060170
     60 C                    -0.405517
     61 H                     0.238409
     62 H                     0.202767
     63 H                     0.203073
     64 C                    -0.759817
     65 H                     0.236296
     66 H                     0.244425
     67 H                     0.246086
     68 C                    -0.549882
     69 H                     0.253510
     70 H                     0.225234
     71 C                    -0.645359
     72 H                     0.245711
     73 H                     0.217392
     74 H                     0.213305
     75 C                    -0.227832
     76 C                     0.079264
     77 C                    -0.423518
     78 H                     0.221210
     79 C                     0.401751
     80 O                    -0.453915
     81 C                    -0.379689
     82 H                     0.220755
     83 C                     0.060041
     84 C                    -0.405630
     85 H                     0.238828
     86 H                     0.203116
     87 H                     0.202914
     88 C                    -0.759160
     89 H                     0.236589
     90 H                     0.244295
     91 H                     0.245670
     92 C                    -0.547888
     93 H                     0.254028
     94 H                     0.225901
     95 C                    -0.640155
     96 H                     0.239444
     97 H                     0.212141
     98 H                     0.218100
  ----------------------------------------
  Sum of atomic charges =     0.000000

                    Cartesian Multipole Moments
 -----------------------------------------------------------------
    Charge (ESU x 10^10)
                 0.0000
    Dipole Moment (Debye)
         X      -0.1322      Y      -0.0874      Z      -0.1701
       Tot       0.2325
    Quadrupole Moments (Debye-Ang)
        XX    -277.4326     XY      15.0600     YY    -324.7927
        XZ      -1.9503     YZ      12.1286     ZZ    -275.2552

 Total job time:  23525.33s(wall), 139443.13s(cpu)
        *  Thank you very much for using Q-Chem.  Have a nice day.  *
