 Q-Chem 5.0, Q-Chem, Inc., Pleasanton, CA (2017)
 Q-Chem 5.0.1 for Intel X86 EM64T Linux

User input:
--------------------------------------------------------------
$solvent
dielectric      4.33
dielectric_infi 1.83
$end

$rem
threads 8
jobtype	sp
method PBEh-3c
basis def2-mSVP
mem_static	1024
mem_total	14000
sym_ignore	true
cis_n_roots             2
cis_singlets            true
cis_triplets		false
rpa                     false
calc_soc 		true
cis_moments             true
cis_relaxed_density	true
solvent_method		pcm
$end

$pcm
StateSpecific   1
ChargeSeparation Excited
$end

$molecule
read moms1opt_eth.mol
$end

--------------------------------------------------------------

   14   -2123.8123775251      9.21E-09 Convergence criterion met
 Total energy in the final basis set = -2123.81237753
 Total job time:  6067.63s(wall), 15244.80s(cpu)
        *  Thank you very much for using Q-Chem.  Have a nice day.  *
 Q-Chem 5.0, Q-Chem, Inc., Pleasanton, CA (2017)
 Q-Chem 5.0.1 for Intel X86 EM64T Linux

User input:
--------------------------------------------------------------
$rem
threads 8
jobtype sp
method PBEh-3c
basis def2-mSVP
mem_static      1024
mem_total       14000
sym_ignore      true
cis_n_roots             6
cis_singlets            true
cis_triplets            true
rpa                     false
calc_soc                true
cis_moments             true
cis_relaxed_density     true
solvent_method          pcm
$end

$molecule
read
$end

$pcm
statespecific           Marcus
$end

$solvent
dielectric      4.33
dielectric_infi 1.83
$end

--------------------------------------------------------------

             Standard Nuclear Orientation (Angstroms)
    I     Atom           X                Y                Z
 ----------------------------------------------------------------
    1      C       0.0000000000     0.0000000000     0.0000000000
    2      C       0.0000000000     0.0000000000     1.4137480000
    3      H       0.9399178419     0.0000000000     1.9587268369
    4      C      -1.1798571967    -0.0341351091     2.1116821408
    5      C      -2.4241698447    -0.0771781230     1.4143284419
    6      C      -2.4448755458    -0.0502976476     0.0403433367
    7      H      -3.3904160132    -0.0891180150    -0.4912030248
    8      C      -1.2462735096    -0.0094605605    -0.6976020981
    9      C      -3.4924834888    -0.2150491716     2.4018374963
   10      C      -4.8560450978    -0.3750730709     2.3516359744
   11      H      -5.3956597097    -0.3900236514     1.4127150381
   12      C      -2.8631858541    -0.2289571876     3.6640520758
   13      C      -3.5366176894    -0.3939926554     4.8728270395
   14      C      -1.4633001856    -0.1194786388     3.5450111286
   15      C      -0.7069504741    -0.1579016231     4.6902256906
   16      H       0.3737988500    -0.0921022984     4.6644611318
   17      C      -1.3655114448    -0.3033589233     5.9336949530
   18      H      -0.7666303597    -0.3348389170     6.8351757912
   19      C      -2.7330057125    -0.4205484029     6.0384197905
   20      H      -3.1933160661    -0.5453337444     7.0112809860
   21      C      -5.5650467207    -0.5398464612     3.5650130345
   22      H      -6.6390498863    -0.6702179083     3.5205815102
   23      C      -4.9427597934    -0.5492587617     4.7926050613
   24      H      -5.5260344976    -0.6876020877     5.6950490411
   25      B       1.3024146277    -0.0772832466    -0.7942395048
   26      C       1.3004799191    -0.0920149772    -2.3212382187
   27      C       2.4992871866    -0.1986550099    -3.0638430883
   28      H       3.4544659464    -0.2196700334    -2.5464182327
   29      C       2.4667497765    -0.3193531006    -4.4310401106
   30      C       1.2144157693    -0.3402417471    -5.1147032089
   31      C       0.0401009696    -0.2091318196    -4.4122359073
   32      H      -0.9120926864    -0.2405520140    -4.9321717863
   33      C       0.0481190800    -0.0869904470    -3.0104097909
   34      C       1.4704856658    -0.6182793364    -6.5228379920
   35      C       0.6844531286    -0.8399753103    -7.6265795076
   36      H      -0.3959412927    -0.7777150105    -7.5800199442
   37      C       2.8689310913    -0.7405500577    -6.6555309613
   38      C       3.5131451544    -1.0818208339    -7.8420203174
   39      C       3.5210909931    -0.5562636640    -5.4188572679
   40      C       4.8865973342    -0.6899259952    -5.3779564868
   41      H       5.4453516057    -0.5738235763    -4.4573449246
   42      C       1.3142019041    -1.1782036774    -8.8470245113
   43      H       0.6931581282    -1.3580307188    -9.7155273047
   44      C       2.6801748549    -1.2991986658    -8.9676923813
   45      H       3.1168639042    -1.5727891922    -9.9205523518
   46      C       5.5715373605    -1.0085676378    -6.5743203456
   47      H       6.6482776711    -1.1161060150    -6.5386770466
   48      C       4.9221761280    -1.2064986552    -7.7721576263
   49      H       5.4883813531    -1.4685175067    -8.6577543113
   50      B      -1.2806510974    -0.0575543547    -2.2338550657
   51      C       2.6443304092    -0.3019122066    -0.0016902101
   52      C       3.0707906455    -1.6383791757     0.3008416876
   53      C       4.2240515530    -1.8337299220     1.0001616998
   54      H       4.5750317369    -2.8293082461     1.2434754901
   55      C       5.0003115067    -0.7238463612     1.4344052477
   56      O       6.0798899412    -1.0331892499     2.0932793832
   57      C       4.5939387955     0.5997324194     1.1518892294
   58      H       5.1836047431     1.4426573618     1.4858966399
   59      C       3.4397800855     0.8085564176     0.4484583324
   60      C       6.9606936277    -0.0280878884     2.6009049214
   61      H       7.7590366274    -0.5637146970     3.1036318345
   62      H       6.4457198923     0.6144291278     3.3147133409
   63      H       7.3760162703     0.5689091033     1.7893255254
   64      C       2.9696522113     2.1879586359     0.1349878501
   65      H       3.6537935690     2.9472143743     0.5087230203
   66      H       2.8562603962     2.3178413198    -0.9429229655
   67      H       1.9832220804     2.3603982739     0.5702118370
   68      C       2.2426418517    -2.7972891540    -0.1511656847
   69      H       2.6816241432    -3.7452010661     0.1554519238
   70      H       2.1382343230    -2.8001156948    -1.2370059881
   71      H       1.2337801143    -2.7346036804     0.2597168706
   72      C      -2.6630217035    -0.1409145780    -2.9964678162
   73      C      -3.2520064704    -1.3762525362    -3.2790609118
   74      C      -4.4718316511    -1.4525598911    -3.9531694148
   75      H      -4.8936551005    -2.4292951422    -4.1559657265
   76      C      -5.1216828613    -0.2925741138    -4.3533711156
   77      O      -6.3020765615    -0.2689186783    -5.0141945876
   78      C      -4.5471105388     0.9441695279    -4.0722752444
   79      H      -5.0585593907     1.8469100653    -4.3871411588
   80      C      -3.3343887183     1.0220878781    -3.4037667148
   81      C      -6.9023293336    -1.4945128739    -5.3557450231
   82      H      -7.8196421422    -1.2545267406    -5.8894635114
   83      H      -7.1588708128    -2.0910820426    -4.4748383935
   84      H      -6.2666399553    -2.0988419239    -6.0102719737
   85      C      -2.7318180322     2.3669072041    -3.1080867441
   86      H      -3.3338881038     3.1799336575    -3.5135751676
   87      H      -1.7279556729     2.4506725358    -3.5292442020
   88      H      -2.6354817006     2.5269097213    -2.0320396430
   89      C      -2.5740891955    -2.6498795385    -2.8519103285
   90      H      -3.1278278141    -3.5318359192    -3.1748691199
   91      H      -1.5655519286    -2.7225087401    -3.2637440377
   92      H      -2.4744684760    -2.7010172912    -1.7655171765
 ----------------------------------------------------------------

   15   -2123.8055622248      5.41E-09 Convergence criterion met
 Total energy in the final basis set = -2123.80556222

         TDDFT/TDA Excitation Energies
 ---------------------------------------------------

 Excited state   1: excitation energy (eV) =    2.0153
 Total energy for state  1:                 -2123.73150110 au
    Multiplicity: Triplet
    Trans. Mom.:  0.0000 X   0.0000 Y   0.0000 Z
    Strength   :     0.0000000000
    D(182) --> V(  1) amplitude =  0.9685

 Excited state   2: excitation energy (eV) =    2.0497
 Total energy for state  2:                 -2123.73023821 au
    Multiplicity: Singlet
    Trans. Mom.:  0.1292 X  -0.0073 Y  -0.1350 Z
    Strength   :     0.0017564891
    D(182) --> V(  1) amplitude =  0.9757

 Excited state   3: excitation energy (eV) =    2.2457
 Total energy for state  3:                 -2123.72303382 au
    Multiplicity: Triplet
    Trans. Mom.:  0.0000 X   0.0000 Y   0.0000 Z
    Strength   :     0.0000000000
    D(175) --> V(  2) amplitude =  0.2476
    D(179) --> V(  1) amplitude =  0.8493
    D(180) --> V(  1) amplitude = -0.3313

 Excited state   4: excitation energy (eV) =    2.4452
 Total energy for state  4:                 -2123.71570169 au
    Multiplicity: Triplet
    Trans. Mom.:  0.0000 X   0.0000 Y   0.0000 Z
    Strength   :     0.0000000000
    D(178) --> V(  2) amplitude =  0.4818
    D(179) --> V(  1) amplitude =  0.3041
    D(180) --> V(  1) amplitude =  0.7400

 Excited state   5: excitation energy (eV) =    2.5003
 Total energy for state  5:                 -2123.71367720 au
    Multiplicity: Triplet
    Trans. Mom.:  0.0000 X   0.0000 Y   0.0000 Z
    Strength   :     0.0000000000
    D(178) --> V(  1) amplitude =  0.7373
    D(178) --> V(  4) amplitude =  0.2264
    D(180) --> V(  2) amplitude =  0.5370

 Excited state   6: excitation energy (eV) =    2.7412
 Total energy for state  6:                 -2123.70482626 au
    Multiplicity: Triplet
    Trans. Mom.:  0.0000 X   0.0000 Y   0.0000 Z
    Strength   :     0.0000000000
    D(175) --> V(  1) amplitude =  0.7065
    D(179) --> V(  2) amplitude =  0.5437

 Excited state   7: excitation energy (eV) =    2.9093
 Total energy for state  7:                 -2123.69864859 au
    Multiplicity: Triplet
    Trans. Mom.:  0.0000 X   0.0000 Y   0.0000 Z
    Strength   :     0.0000000000
    D(181) --> V(  1) amplitude =  0.9569

 Excited state   8: excitation energy (eV) =    2.9203
 Total energy for state  8:                 -2123.69824495 au
    Multiplicity: Singlet
    Trans. Mom.:  0.0566 X  -0.0025 Y  -0.1073 Z
    Strength   :     0.0010537117
    D(179) --> V(  1) amplitude =  0.8920
    D(180) --> V(  1) amplitude = -0.3342

 Excited state   9: excitation energy (eV) =    2.9529
 Total energy for state  9:                 -2123.69704639 au
    Multiplicity: Singlet
    Trans. Mom.: -0.0429 X   0.0006 Y   0.0861 Z
    Strength   :     0.0006696909
    D(181) --> V(  1) amplitude =  0.9552

 Excited state  10: excitation energy (eV) =    3.1651
 Total energy for state 10:                 -2123.68924709 au
    Multiplicity: Singlet
    Trans. Mom.: -1.9469 X   0.1878 Y   3.5179 Z
    Strength   :     1.2563081260
    D(179) --> V(  1) amplitude =  0.3264
    D(180) --> V(  1) amplitude =  0.8960

 Excited state  11: excitation energy (eV) =    3.4055
 Total energy for state 11:                 -2123.68041178 au
    Multiplicity: Singlet
    Trans. Mom.:  0.1509 X   0.0581 Y   0.0670 Z
    Strength   :     0.0025543798
    D(182) --> V(  2) amplitude =  0.9889

 Excited state  12: excitation energy (eV) =    3.4153
 Total energy for state 12:                 -2123.68005221 au
    Multiplicity: Singlet
    Trans. Mom.:  0.0642 X  -0.0011 Y  -0.1194 Z
    Strength   :     0.0015371373
    D(177) --> V(  1) amplitude = -0.9817

 ---------------------------------------------------

                    Orbital Energies (a.u.)
 --------------------------------------------------------------

 Alpha MOs
 -- Occupied --
-19.531 -19.513 -10.509 -10.493 -10.487 -10.472 -10.470 -10.470
-10.470 -10.470 -10.469 -10.469 -10.469 -10.469 -10.468 -10.468
-10.468 -10.467 -10.467 -10.467 -10.466 -10.466 -10.466 -10.465
-10.463 -10.463 -10.462 -10.462 -10.461 -10.460 -10.459 -10.459
-10.458 -10.457 -10.454 -10.454 -10.442 -10.441 -10.440 -10.440
-10.440 -10.439 -10.438 -10.437 -10.432 -10.432 -10.424 -10.418
-10.417 -10.417 -10.415 -10.407  -6.952  -6.941  -1.186  -1.179
 -1.021  -1.021  -0.967  -0.963  -0.960  -0.938  -0.937  -0.935
 -0.912  -0.904  -0.878  -0.865  -0.865  -0.860  -0.857  -0.851
 -0.850  -0.838  -0.827  -0.817  -0.816  -0.808  -0.793  -0.780
 -0.773  -0.761  -0.754  -0.745  -0.739  -0.731  -0.730  -0.725
 -0.693  -0.687  -0.684  -0.671  -0.661  -0.651  -0.649  -0.648
 -0.642  -0.628  -0.599  -0.595  -0.594  -0.591  -0.589  -0.586
 -0.579  -0.579  -0.569  -0.565  -0.547  -0.547  -0.546  -0.537
 -0.536  -0.531  -0.525  -0.522  -0.514  -0.511  -0.507  -0.500
 -0.497  -0.494  -0.493  -0.491  -0.490  -0.487  -0.483  -0.483
 -0.479  -0.478  -0.476  -0.471  -0.469  -0.467  -0.466  -0.463
 -0.460  -0.458  -0.456  -0.450  -0.447  -0.446  -0.444  -0.439
 -0.435  -0.430  -0.429  -0.428  -0.424  -0.418  -0.413  -0.411
 -0.406  -0.402  -0.401  -0.400  -0.397  -0.395  -0.395  -0.387
 -0.383  -0.381  -0.374  -0.367  -0.362  -0.356  -0.354  -0.353
 -0.339  -0.337  -0.326  -0.320  -0.301  -0.300  -0.288  -0.284
 -0.269  -0.267  -0.262  -0.260  -0.257  -0.224

          Ground-State Mulliken Net Atomic Charges

     Atom                 Charge (a.u.)
  ----------------------------------------
      1 C                    -0.150825
      2 C                    -0.392845
      3 H                     0.260767
      4 C                     0.087244
      5 C                     0.082944
      6 C                    -0.399398
      7 H                     0.243203
      8 C                    -0.155856
      9 C                     0.176657
     10 C                    -0.391857
     11 H                     0.248462
     12 C                    -0.067335
     13 C                     0.218281
     14 C                     0.178665
     15 C                    -0.390843
     16 H                     0.256593
     17 C                    -0.230780
     18 H                     0.257309
     19 C                    -0.346589
     20 H                     0.252566
     21 C                    -0.231351
     22 H                     0.254960
     23 C                    -0.345744
     24 H                     0.252596
     25 B                     0.668321
     26 C                    -0.153572
     27 C                    -0.395462
     28 H                     0.259078
     29 C                     0.086533
     30 C                     0.083399
     31 C                    -0.397640
     32 H                     0.243754
     33 C                    -0.153299
     34 C                     0.173195
     35 C                    -0.388926
     36 H                     0.248757
     37 C                    -0.065693
     38 C                     0.218990
     39 C                     0.176427
     40 C                    -0.390898
     41 H                     0.256485
     42 C                    -0.231991
     43 H                     0.255117
     44 C                    -0.345543
     45 H                     0.252576
     46 C                    -0.230316
     47 H                     0.257300
     48 C                    -0.347190
     49 H                     0.252760
     50 B                     0.671873
     51 C                    -0.267238
     52 C                     0.072169
     53 C                    -0.416876
     54 H                     0.238430
     55 C                     0.399628
     56 O                    -0.451062
     57 C                    -0.458230
     58 H                     0.252226
     59 C                     0.093488
     60 C                    -0.420177
     61 H                     0.253947
     62 H                     0.226609
     63 H                     0.226907
     64 C                    -0.768066
     65 H                     0.251885
     66 H                     0.241392
     67 H                     0.240995
     68 C                    -0.769271
     69 H                     0.254541
     70 H                     0.241128
     71 H                     0.241036
     72 C                    -0.219665
     73 C                     0.042077
     74 C                    -0.453091
     75 H                     0.253795
     76 C                     0.390555
     77 O                    -0.469444
     78 C                    -0.403818
     79 H                     0.240143
     80 C                     0.052335
     81 C                    -0.426958
     82 H                     0.252814
     83 H                     0.217965
     84 H                     0.218089
     85 C                    -0.769975
     86 H                     0.252287
     87 H                     0.246275
     88 H                     0.246032
     89 C                    -0.768431
     90 H                     0.250190
     91 H                     0.247426
     92 H                     0.247076
  ----------------------------------------
  Sum of atomic charges =    -0.000000

                    Cartesian Multipole Moments
 -----------------------------------------------------------------
    Charge (ESU x 10^10)
                -0.0000
    Dipole Moment (Debye)
         X       2.2839      Y      -1.4553      Z       1.4038
       Tot       3.0504
    Quadrupole Moments (Debye-Ang)
        XX    -244.2507     XY      19.8393     YY    -308.2170
        XZ       0.6152     YZ      18.2049     ZZ    -251.4733

 Total job time:  8773.11s(wall), 29056.35s(cpu)
        *  Thank you very much for using Q-Chem.  Have a nice day.  *
