 Q-Chem 5.0, Q-Chem, Inc., Pleasanton, CA (2017)
 Q-Chem 5.0.1 for Intel X86 EM64T Linux

User input:
--------------------------------------------------------------
$solvent
dielectric      8.93
dielectric_infi 2.03
$end

$rem
threads 8
jobtype	sp
method PBEh-3c
basis def2-mSVP
mem_static	1024
mem_total	14000
sym_ignore	true
cis_n_roots             2
cis_singlets            true
cis_triplets		false
rpa                     false
calc_soc 		true
cis_moments             true
cis_relaxed_density	true
solvent_method		pcm
$end

$pcm
StateSpecific   1
ChargeSeparation Excited
$end

$molecule
read moms1opt_dcm.mol
$end

--------------------------------------------------------------

   14   -2123.8166391045      8.74E-09 Convergence criterion met
 Total energy in the final basis set = -2123.81663910
 Total job time:  5763.62s(wall), 14645.83s(cpu)
        *  Thank you very much for using Q-Chem.  Have a nice day.  *
 Q-Chem 5.0, Q-Chem, Inc., Pleasanton, CA (2017)
 Q-Chem 5.0.1 for Intel X86 EM64T Linux

User input:
--------------------------------------------------------------
$rem
threads 8
jobtype sp
method PBEh-3c
basis def2-mSVP
mem_static      1024
mem_total       14000
sym_ignore      true
cis_n_roots             6
cis_singlets            true
cis_triplets            true
rpa                     false
calc_soc                true
cis_moments             true
cis_relaxed_density     true
solvent_method          pcm
$end

$molecule
read
$end

$pcm
statespecific           Marcus
$end

$solvent
dielectric      8.93
dielectric_infi 2.03
$end

--------------------------------------------------------------

             Standard Nuclear Orientation (Angstroms)
    I     Atom           X                Y                Z
 ----------------------------------------------------------------
    1      C       0.0000000000     0.0000000000     0.0000000000
    2      C       0.0000000000     0.0000000000     1.4137050000
    3      H       0.9396920583     0.0000000000     1.9586665343
    4      C      -1.1803662505    -0.0337838407     2.1115932903
    5      C      -2.4251384038    -0.0770664984     1.4140388652
    6      C      -2.4458071358    -0.0502254318     0.0400294260
    7      H      -3.3919408537    -0.0893562576    -0.4905499687
    8      C      -1.2467062084    -0.0089397963    -0.6982294767
    9      C      -3.4936939760    -0.2145213487     2.4018399360
   10      C      -4.8575869637    -0.3746632177     2.3518480802
   11      H      -5.3977442175    -0.3902888741     1.4131740582
   12      C      -2.8638169430    -0.2277420392     3.6639673452
   13      C      -3.5371616509    -0.3921984287     4.8732040376
   14      C      -1.4637009482    -0.1184554826     3.5448542489
   15      C      -0.7066493640    -0.1564395655     4.6899949794
   16      H       0.3740856851    -0.0908774882     4.6638700690
   17      C      -1.3654597902    -0.3012383788     5.9337547940
   18      H      -0.7662274326    -0.3323921585     6.8349846751
   19      C      -2.7332671363    -0.4182672426     6.0389862773
   20      H      -3.1935657553    -0.5426045807     7.0119092698
   21      C      -5.5663823181    -0.5388190254     3.5657301440
   22      H      -6.6403817563    -0.6693648848     3.5216488940
   23      C      -4.9435325375    -0.5475532808     4.7934510083
   24      H      -5.5263889937    -0.6855260552     5.6962326870
   25      B       1.3046966477    -0.0766368469    -0.7917936716
   26      C       1.3012123813    -0.0882020243    -2.3195829257
   27      C       2.5008269232    -0.1912463657    -3.0613780250
   28      H       3.4554669859    -0.2120910502    -2.5433472079
   29      C       2.4694614657    -0.3082562374    -4.4293416504
   30      C       1.2173360539    -0.3294742604    -5.1144356701
   31      C       0.0421765274    -0.2020093218    -4.4126400270
   32      H      -0.9089954656    -0.2338558451    -4.9345332219
   33      C       0.0487001699    -0.0829247352    -3.0099500465
   34      C       1.4751897903    -0.6027030910    -6.5234903527
   35      C       0.6904131922    -0.8223780896    -7.6289401419
   36      H      -0.3902346781    -0.7624219248    -7.5836742591
   37      C       2.8741971289    -0.7218683970    -6.6548533547
   38      C       3.5203730010    -1.0582255146    -7.8420204376
   39      C       3.5250603068    -0.5403106696    -5.4168313469
   40      C       4.8910755502    -0.6717368206    -5.3745894186
   41      H       5.4485767221    -0.5578009371    -4.4529656778
   42      C       1.3222445526    -1.1555597051    -8.8499819241
   43      H       0.7024873281    -1.3339134829    -9.7197091700
   44      C       2.6889437506    -1.2736288270    -8.9694721784
   45      H       3.1274275574    -1.5434591170    -9.9225926447
   46      C       5.5776446993    -0.9853282508    -6.5717096722
   47      H       6.6545002582    -1.0911244633    -6.5350475993
   48      C       4.9298721048    -1.1806263431    -7.7712278152
   49      H       5.4972627898    -1.4388736226    -8.6571711226
   50      B      -1.2806355342    -0.0550745025    -2.2344344082
   51      C       2.6484000147    -0.2993519809     0.0009443096
   52      C       3.0756450937    -1.6347021156     0.3028470242
   53      C       4.2292429117    -1.8297766886     1.0016356254
   54      H       4.5806909779    -2.8253148719     1.2445581876
   55      C       5.0053801690    -0.7185097090     1.4351677637
   56      O       6.0841732802    -1.0260540734     2.0923588308
   57      C       4.5971551545     0.6051953045     1.1518471244
   58      H       5.1866220679     1.4485744424     1.4850551125
   59      C       3.4425719040     0.8118290299     0.4493356680
   60      C       6.9671394756    -0.0200014090     2.5997057961
   61      H       7.7655268310    -0.5567151959     3.1008790594
   62      H       6.4514288281     0.6215974017     3.3134066301
   63      H       7.3796636297     0.5762661296     1.7865229077
   64      C       2.9725022389     2.1919036263     0.1361691756
   65      H       3.6579064973     2.9497511975     0.5101747082
   66      H       2.8604656188     2.3229925267    -0.9417140389
   67      H       1.9873019523     2.3656468827     0.5735771446
   68      C       2.2496577357    -2.7960522595    -0.1487270219
   69      H       2.6912050777    -3.7423414423     0.1590083643
   70      H       2.1467904522    -2.8012865149    -1.2347405445
   71      H       1.2407587129    -2.7367596433     0.2625992263
   72      C      -2.6630153535    -0.1361761698    -2.9984297346
   73      C      -3.2527541755    -1.3707094185    -3.2848694576
   74      C      -4.4720499825    -1.4453265333    -3.9606673796
   75      H      -4.8940207331    -2.4213926529    -4.1664161608
   76      C      -5.1212636686    -0.2839836861    -4.3589558509
   77      O      -6.3005460934    -0.2584599165    -5.0209497259
   78      C      -4.5463336889     0.9521245616    -4.0739852039
   79      H      -5.0563726697     1.8565427417    -4.3868476737
   80      C      -3.3339535367     1.0279996922    -3.4037650566
   81      C      -6.9019718046    -1.4844266016    -5.3664870631
   82      H      -7.8184613504    -1.2423733352    -5.9004355951
   83      H      -7.1590502206    -2.0822772239    -4.4869633206
   84      H      -6.2654294118    -2.0868483184    -6.0214749902
   85      C      -2.7325828910     2.3728364743    -3.1049097702
   86      H      -3.3339422244     3.1860555858    -3.5109962146
   87      H      -1.7275986253     2.4578239813    -3.5231965690
   88      H      -2.6391024004     2.5320218180    -2.0284581940
   89      C      -2.5767392572    -2.6463232053    -2.8603304990
   90      H      -3.1307745851    -3.5266733725    -3.1868494546
   91      H      -1.5674277872    -2.7188158870    -3.2703592167
   92      H      -2.4789846983    -2.7009569597    -1.7738957888
 ----------------------------------------------------------------

   15   -2123.8079965752      5.18E-09 Convergence criterion met
 Total energy in the final basis set = -2123.80799658

         TDDFT/TDA Excitation Energies
 ---------------------------------------------------

 Excited state   1: excitation energy (eV) =    1.9114
 Total energy for state  1:                 -2123.73775445 au
    Multiplicity: Triplet
    Trans. Mom.:  0.0000 X   0.0000 Y   0.0000 Z
    Strength   :     0.0000000000
    D(182) --> V(  1) amplitude =  0.9713

 Excited state   2: excitation energy (eV) =    1.9434
 Total energy for state  2:                 -2123.73657735 au
    Multiplicity: Singlet
    Trans. Mom.:  0.1238 X  -0.0070 Y  -0.1308 Z
    Strength   :     0.0015465175
    D(182) --> V(  1) amplitude =  0.9765

 Excited state   3: excitation energy (eV) =    2.2510
 Total energy for state  3:                 -2123.72527317 au
    Multiplicity: Triplet
    Trans. Mom.:  0.0000 X   0.0000 Y   0.0000 Z
    Strength   :     0.0000000000
    D(175) --> V(  2) amplitude =  0.2476
    D(179) --> V(  1) amplitude =  0.8542
    D(180) --> V(  1) amplitude = -0.2597

 Excited state   4: excitation energy (eV) =    2.4430
 Total energy for state  4:                 -2123.71821906 au
    Multiplicity: Triplet
    Trans. Mom.:  0.0000 X   0.0000 Y   0.0000 Z
    Strength   :     0.0000000000
    D(177) --> V(  2) amplitude =  0.4811
    D(179) --> V(  1) amplitude =  0.2460
    D(180) --> V(  1) amplitude =  0.7612

 Excited state   5: excitation energy (eV) =    2.4990
 Total energy for state  5:                 -2123.71616079 au
    Multiplicity: Triplet
    Trans. Mom.:  0.0000 X   0.0000 Y   0.0000 Z
    Strength   :     0.0000000000
    D(177) --> V(  1) amplitude = -0.7378
    D(177) --> V(  4) amplitude = -0.2228
    D(180) --> V(  2) amplitude = -0.5422

 Excited state   6: excitation energy (eV) =    2.7463
 Total energy for state  6:                 -2123.70707151 au
    Multiplicity: Triplet
    Trans. Mom.:  0.0000 X   0.0000 Y   0.0000 Z
    Strength   :     0.0000000000
    D(175) --> V(  1) amplitude =  0.7053
    D(179) --> V(  2) amplitude =  0.5371

 Excited state   7: excitation energy (eV) =    2.9233
 Total energy for state  7:                 -2123.70056662 au
    Multiplicity: Triplet
    Trans. Mom.:  0.0000 X   0.0000 Y   0.0000 Z
    Strength   :     0.0000000000
    D(181) --> V(  1) amplitude =  0.9552

 Excited state   8: excitation energy (eV) =    2.9247
 Total energy for state  8:                 -2123.70051586 au
    Multiplicity: Singlet
    Trans. Mom.:  0.0322 X  -0.0001 Y  -0.0629 Z
    Strength   :     0.0003579529
    D(179) --> V(  1) amplitude =  0.9058
    D(180) --> V(  1) amplitude = -0.2618

 Excited state   9: excitation energy (eV) =    2.9674
 Total energy for state  9:                 -2123.69894826 au
    Multiplicity: Singlet
    Trans. Mom.: -0.0400 X  -0.0011 Y   0.0830 Z
    Strength   :     0.0006171696
    D(181) --> V(  1) amplitude =  0.9586

 Excited state  10: excitation energy (eV) =    3.1524
 Total energy for state 10:                 -2123.69214812 au
    Multiplicity: Singlet
    Trans. Mom.: -1.9808 X   0.1844 Y   3.5757 Z
    Strength   :     1.2931305171
    D(179) --> V(  1) amplitude =  0.2508
    D(180) --> V(  1) amplitude =  0.9195

 Excited state  11: excitation energy (eV) =    3.2989
 Total energy for state 11:                 -2123.68676479 au
    Multiplicity: Singlet
    Trans. Mom.:  0.1439 X   0.0348 Y   0.0741 Z
    Strength   :     0.0022149057
    D(182) --> V(  2) amplitude =  0.9944

 Excited state  12: excitation energy (eV) =    3.3110
 Total energy for state 12:                 -2123.68631891 au
    Multiplicity: Singlet
    Trans. Mom.: -0.1133 X   0.0093 Y   0.1971 Z
    Strength   :     0.0041992924
    D(178) --> V(  1) amplitude =  0.9693

 ---------------------------------------------------

                    Orbital Energies (a.u.)
 --------------------------------------------------------------

 Alpha MOs
 -- Occupied --
-19.534 -19.510 -10.512 -10.491 -10.488 -10.472 -10.472 -10.472
-10.472 -10.472 -10.471 -10.471 -10.471 -10.470 -10.470 -10.470
-10.469 -10.469 -10.468 -10.468 -10.468 -10.467 -10.467 -10.466
-10.465 -10.464 -10.464 -10.463 -10.463 -10.463 -10.462 -10.462
-10.460 -10.459 -10.456 -10.456 -10.443 -10.443 -10.442 -10.441
-10.440 -10.440 -10.440 -10.439 -10.434 -10.434 -10.427 -10.416
-10.416 -10.416 -10.413 -10.405  -6.955  -6.943  -1.188  -1.177
 -1.023  -1.023  -0.969  -0.965  -0.963  -0.939  -0.939  -0.934
 -0.914  -0.906  -0.881  -0.867  -0.863  -0.862  -0.859  -0.853
 -0.852  -0.837  -0.828  -0.819  -0.818  -0.810  -0.795  -0.778
 -0.775  -0.764  -0.753  -0.744  -0.740  -0.732  -0.731  -0.726
 -0.695  -0.689  -0.685  -0.672  -0.663  -0.653  -0.651  -0.650
 -0.640  -0.626  -0.601  -0.596  -0.596  -0.592  -0.591  -0.588
 -0.581  -0.581  -0.567  -0.566  -0.549  -0.548  -0.545  -0.538
 -0.537  -0.532  -0.526  -0.519  -0.515  -0.513  -0.509  -0.502
 -0.499  -0.496  -0.495  -0.493  -0.493  -0.489  -0.485  -0.484
 -0.481  -0.480  -0.473  -0.473  -0.470  -0.468  -0.466  -0.465
 -0.460  -0.457  -0.456  -0.449  -0.448  -0.448  -0.445  -0.441
 -0.434  -0.431  -0.431  -0.430  -0.426  -0.417  -0.413  -0.408
 -0.408  -0.403  -0.403  -0.402  -0.399  -0.397  -0.397  -0.385
 -0.385  -0.383  -0.376  -0.369  -0.364  -0.359  -0.355  -0.352
 -0.338  -0.337  -0.328  -0.323  -0.303  -0.302  -0.290  -0.287
 -0.269  -0.268  -0.264  -0.263  -0.260  -0.222

          Ground-State Mulliken Net Atomic Charges

     Atom                 Charge (a.u.)
  ----------------------------------------
      1 C                    -0.152013
      2 C                    -0.393248
      3 H                     0.266937
      4 C                     0.083473
      5 C                     0.079153
      6 C                    -0.401133
      7 H                     0.243996
      8 C                    -0.156576
      9 C                     0.172913
     10 C                    -0.394089
     11 H                     0.252739
     12 C                    -0.068110
     13 C                     0.212247
     14 C                     0.174600
     15 C                    -0.391732
     16 H                     0.263767
     17 C                    -0.235430
     18 H                     0.263374
     19 C                    -0.348246
     20 H                     0.258605
     21 C                    -0.236105
     22 H                     0.260190
     23 C                    -0.347631
     24 H                     0.258609
     25 B                     0.667089
     26 C                    -0.154644
     27 C                    -0.395879
     28 H                     0.265240
     29 C                     0.082884
     30 C                     0.079540
     31 C                    -0.399412
     32 H                     0.244579
     33 C                    -0.154133
     34 C                     0.169519
     35 C                    -0.391172
     36 H                     0.253041
     37 C                    -0.066522
     38 C                     0.213013
     39 C                     0.172381
     40 C                    -0.391822
     41 H                     0.263562
     42 C                    -0.236732
     43 H                     0.260363
     44 C                    -0.347451
     45 H                     0.258582
     46 C                    -0.234962
     47 H                     0.263317
     48 C                    -0.348844
     49 H                     0.258795
     50 B                     0.665827
     51 C                    -0.269243
     52 C                     0.071479
     53 C                    -0.420011
     54 H                     0.242306
     55 C                     0.400550
     56 O                    -0.451643
     57 C                    -0.459898
     58 H                     0.259330
     59 C                     0.093603
     60 C                    -0.423017
     61 H                     0.255604
     62 H                     0.230116
     63 H                     0.230356
     64 C                    -0.769678
     65 H                     0.256768
     66 H                     0.239629
     67 H                     0.239187
     68 C                    -0.770835
     69 H                     0.258564
     70 H                     0.239072
     71 H                     0.238777
     72 C                    -0.218470
     73 C                     0.039051
     74 C                    -0.456064
     75 H                     0.260128
     76 C                     0.388413
     77 O                    -0.472003
     78 C                    -0.408257
     79 H                     0.243495
     80 C                     0.048737
     81 C                    -0.430799
     82 H                     0.255514
     83 H                     0.221107
     84 H                     0.221131
     85 C                    -0.771100
     86 H                     0.255382
     87 H                     0.246062
     88 H                     0.245886
     89 C                    -0.769722
     90 H                     0.254138
     91 H                     0.247064
     92 H                     0.246846
  ----------------------------------------
  Sum of atomic charges =     0.000000

                    Cartesian Multipole Moments
 -----------------------------------------------------------------
    Charge (ESU x 10^10)
                -0.0000
    Dipole Moment (Debye)
         X       2.7776      Y      -1.5478      Z       1.6893
       Tot       3.6007
    Quadrupole Moments (Debye-Ang)
        XX    -239.8578     XY      20.5421     YY    -307.8245
        XZ       0.3892     YZ      18.8707     ZZ    -248.4236

 Total job time:  7861.16s(wall), 25718.95s(cpu)
        *  Thank you very much for using Q-Chem.  Have a nice day.  *
