 Q-Chem 5.0, Q-Chem, Inc., Pleasanton, CA (2017)
 Q-Chem 5.0.1 for Intel X86 EM64T Linux

User input:
--------------------------------------------------------------
$solvent
dielectric      1.0001
dielectric_infi 1.00009
$end

$rem
threads 8
jobtype	sp
method PBEh-3c
basis def2-mSVP
mem_static	1024
mem_total	14000
sym_ignore	true
cis_n_roots             2
cis_singlets            false
cis_triplets		true
rpa                     false
calc_soc 		true
cis_moments             true
cis_relaxed_density	true
solvent_method		pcm
$end

$pcm
StateSpecific   1
ChargeSeparation Excited
$end

$molecule
read ut1opt_vac.mol
$end

--------------------------------------------------------------

   15   -2123.7911873124      7.36E-09 Convergence criterion met
 Total energy in the final basis set = -2123.79118731
 Total job time:  5774.09s(wall), 15136.21s(cpu)
        *  Thank you very much for using Q-Chem.  Have a nice day.  *
 Q-Chem 5.0, Q-Chem, Inc., Pleasanton, CA (2017)
 Q-Chem 5.0.1 for Intel X86 EM64T Linux

User input:
--------------------------------------------------------------
$rem
threads 8
jobtype sp
method PBEh-3c
basis def2-mSVP
mem_static      1024
mem_total       14000
sym_ignore      true
cis_n_roots             6
cis_singlets            true
cis_triplets            true
rpa                     false
calc_soc                true
cis_moments             true
cis_relaxed_density     true
solvent_method          pcm
$end

$molecule
read
$end

$pcm
statespecific           Marcus
$end

$solvent
dielectric      1.0001
dielectric_infi 1.00009
$end

--------------------------------------------------------------

             Standard Nuclear Orientation (Angstroms)
    I     Atom           X                Y                Z
 ----------------------------------------------------------------
    1      C       0.0000000000     0.0000000000     0.0000000000
    2      C       0.0000000000     0.0000000000     1.4038110000
    3      H       0.9486670871     0.0000000000     1.9311196889
    4      C      -1.1795431191    -0.0042284667     2.1046993417
    5      C      -2.4309265235    -0.0121191902     1.4228373502
    6      C      -2.4546291112    -0.0119039317     0.0506400646
    7      H      -3.4108179106    -0.0179719404    -0.4665601418
    8      C      -1.2470929291    -0.0082204078    -0.6912154875
    9      C      -1.4345409140    -0.0063947284     3.5377787503
   10      C      -0.6487704407    -0.0030411621     4.6631025646
   11      H       0.4325304274     0.0062166842     4.6031354319
   12      C      -2.8338939565    -0.0178890729     3.6906743503
   13      C      -3.4785032213    -0.0292476994     4.9250065649
   14      C      -3.4877607877    -0.0227164076     2.4418184641
   15      C      -4.8589397678    -0.0410600837     2.4379971944
   16      H      -5.4274899060    -0.0492150839     1.5163611719
   17      C      -1.2784637754    -0.0123512935     5.9283910777
   18      H      -0.6572374893    -0.0094117404     6.8151534630
   19      C      -2.6460654545    -0.0258709765     6.0714964011
   20      H      -3.0863393147    -0.0338569269     7.0611691022
   21      C      -4.8917152707    -0.0463318366     4.8863819041
   22      H      -5.4602594645    -0.0567031181     5.8084093776
   23      C      -5.5441333593    -0.0518609864     3.6756056211
   24      H      -6.6265044320    -0.0665848363     3.6652236791
   25      B      -1.2335708317    -0.0049193239    -2.2193990984
   26      C       0.0695981167    -0.0048674066    -3.0161515557
   27      C       0.0854412327    -0.0270389234    -4.4329115100
   28      H      -0.8503673969    -0.0464900989    -4.9860455646
   29      C       1.2747316406    -0.0325338822    -5.1184133980
   30      C       2.5037804482    -0.0079461331    -4.3972886101
   31      C       2.5084541051     0.0103953287    -3.0241240516
   32      H       3.4472708368     0.0247639650    -2.4795310989
   33      C       1.3046818462     0.0062369714    -2.3014638533
   34      C       3.5995759498    -0.0195504980    -5.3543220697
   35      C       4.9681739184    -0.0061779022    -5.2584215465
   36      H       5.4721341196     0.0249239346    -4.3002837168
   37      C       3.0099766602    -0.0582159340    -6.6322620007
   38      C       3.7344489656    -0.0898727922    -7.8194200482
   39      C       1.6027381614    -0.0673269383    -6.5468266616
   40      C       0.8894623946    -0.1111631538    -7.7162662956
   41      H      -0.1934097293    -0.1242202784    -7.7244813560
   42      C       5.7279136816    -0.0353926224    -6.4492799048
   43      H       6.8079321210    -0.0255230028    -6.3740552853
   44      C       5.1459301100    -0.0769142198    -7.6948830974
   45      H       5.7687281161    -0.1000229513    -8.5806944472
   46      C       2.9697772116    -0.1335912639    -9.0082949831
   47      H       3.4644562226    -0.1607449481    -9.9714656789
   48      C       1.5958442029    -0.1439237032    -8.9413663681
   49      H       1.0283861140    -0.1801197834    -9.8624554748
   50      B       1.3346355930     0.0077767882    -0.7633507103
   51      C      -2.5997622146     0.0214821706    -2.9771150363
   52      C      -3.3015026088    -1.1945135605    -3.2703861448
   53      C      -4.4726268784    -1.1454737172    -3.9667832692
   54      H      -5.0209719878    -2.0455804569    -4.2158538579
   55      C      -5.0039444421     0.1002539161    -4.3899136991
   56      O      -6.1336057250     0.0239899084    -5.0529216146
   57      C      -4.3414377261     1.3081512972    -4.0969778049
   58      H      -4.7504768495     2.2579210972    -4.4141489492
   59      C      -3.1642965439     1.2770060456    -3.3965551151
   60      C      -6.7749621197     1.1965925784    -5.5338174148
   61      H      -7.6790850224     0.8598853587    -6.0315906356
   62      H      -7.0436140790     1.8659700143    -4.7152811007
   63      H      -6.1464164232     1.7262333931    -6.2514521386
   64      C      -2.4343521565     2.5291608312    -3.0526651506
   65      H      -2.9679236586     3.4197712877    -3.3807159513
   66      H      -2.2730777920     2.5883473681    -1.9744441022
   67      H      -1.4406073074     2.5265148176    -3.5054226203
   68      C      -2.7141317329    -2.4877490140    -2.8111641274
   69      H      -3.3212670972    -3.3403779146    -3.1111614553
   70      H      -2.6108667147    -2.4964730921    -1.7247788269
   71      H      -1.7078816167    -2.6136667707    -3.2149150201
   72      C       2.7014170163     0.0100743758     0.0291356739
   73      C       3.3208282565    -1.1891250703     0.3900032884
   74      C       4.5121463351    -1.1922521231     1.1136573587
   75      H       4.9579691822    -2.1440424696     1.3738909108
   76      C       5.1036458147     0.0054776829     1.4892381648
   77      O       6.2561142502     0.1025666560     2.1899984359
   78      C       4.4958039629     1.2067675382     1.1372585029
   79      H       4.9634965331     2.1374963326     1.4361376322
   80      C       3.3123749641     1.2133522404     0.4182475847
   81      C       6.9153519940    -1.0782130997     2.5558930992
   82      H       7.8122673586    -0.7804893921     3.0959219678
   83      H       7.2155263903    -1.6751212169     1.6879455852
   84      H       6.3087257797    -1.7090984763     3.2144978244
   85      C       2.6684190015     2.5222556117     0.0590470636
   86      H       3.2646104367     3.3721709130     0.3909214654
   87      H       2.5299974671     2.6115226735    -1.0201572469
   88      H       1.6794196095     2.6106319696     0.5135934831
   89      C       2.6928535653    -2.5007889785     0.0081379747
   90      H       3.3028257198    -3.3491860673     0.3196314671
   91      H       2.5495721118    -2.5722193108    -1.0716243363
   92      H       1.7082339828    -2.6135750272     0.4665087751
 ----------------------------------------------------------------

   15   -2123.7911872827      7.36E-09 Convergence criterion met
 Total energy in the final basis set = -2123.79118728

         TDDFT/TDA Excitation Energies
 ---------------------------------------------------

 Excited state   1: excitation energy (eV) =    2.2088
 Total energy for state  1:                 -2123.71001354 au
    Multiplicity: Triplet
    Trans. Mom.:  0.0000 X   0.0000 Y   0.0000 Z
    Strength   :     0.0000000000
    D(175) --> V(  2) amplitude = -0.2452
    D(179) --> V(  1) amplitude =  0.5349
    D(180) --> V(  1) amplitude =  0.7467

 Excited state   2: excitation energy (eV) =    2.3856
 Total energy for state  2:                 -2123.70351846 au
    Multiplicity: Triplet
    Trans. Mom.:  0.0000 X   0.0000 Y   0.0000 Z
    Strength   :     0.0000000000
    D(182) --> V(  1) amplitude =  0.9560

 Excited state   3: excitation energy (eV) =    2.4320
 Total energy for state  3:                 -2123.70181300 au
    Multiplicity: Singlet
    Trans. Mom.:  0.1499 X  -0.0169 Y   0.1234 Z
    Strength   :     0.0022623168
    D(182) --> V(  1) amplitude =  0.9722

 Excited state   4: excitation energy (eV) =    2.4485
 Total energy for state  4:                 -2123.70120487 au
    Multiplicity: Triplet
    Trans. Mom.:  0.0000 X   0.0000 Y   0.0000 Z
    Strength   :     0.0000000000
    D(178) --> V(  2) amplitude = -0.4797
    D(179) --> V(  1) amplitude =  0.6613
    D(180) --> V(  1) amplitude = -0.4486

 Excited state   5: excitation energy (eV) =    2.5027
 Total energy for state  5:                 -2123.69921298 au
    Multiplicity: Triplet
    Trans. Mom.:  0.0000 X   0.0000 Y   0.0000 Z
    Strength   :     0.0000000000
    D(178) --> V(  1) amplitude =  0.7293
    D(178) --> V(  4) amplitude = -0.2342
    D(179) --> V(  2) amplitude = -0.3639
    D(180) --> V(  2) amplitude =  0.4153

 Excited state   6: excitation energy (eV) =    2.7187
 Total energy for state  6:                 -2123.69127611 au
    Multiplicity: Triplet
    Trans. Mom.:  0.0000 X   0.0000 Y   0.0000 Z
    Strength   :     0.0000000000
    D(175) --> V(  1) amplitude = -0.7088
    D(179) --> V(  2) amplitude =  0.4302
    D(180) --> V(  2) amplitude =  0.3669

 Excited state   7: excitation energy (eV) =    2.8465
 Total energy for state  7:                 -2123.68657904 au
    Multiplicity: Triplet
    Trans. Mom.:  0.0000 X   0.0000 Y   0.0000 Z
    Strength   :     0.0000000000
    D(181) --> V(  1) amplitude =  0.9596

 Excited state   8: excitation energy (eV) =    2.8863
 Total energy for state  8:                 -2123.68511754 au
    Multiplicity: Singlet
    Trans. Mom.: -0.0517 X  -0.0066 Y   0.0823 Z
    Strength   :     0.0006708880
    D(181) --> V(  1) amplitude =  0.9419

 Excited state   9: excitation energy (eV) =    2.8949
 Total energy for state  9:                 -2123.68480229 au
    Multiplicity: Singlet
    Trans. Mom.:  0.1351 X  -0.0008 Y  -0.2402 Z
    Strength   :     0.0053869542
    D(179) --> V(  1) amplitude =  0.5829
    D(180) --> V(  1) amplitude =  0.7361
    D(181) --> V(  1) amplitude =  0.2319

 Excited state  10: excitation energy (eV) =    3.2347
 Total energy for state 10:                 -2123.67231463 au
    Multiplicity: Singlet
    Trans. Mom.: -1.7449 X   0.0172 Y   3.0804 Z
    Strength   :     0.9932773211
    D(179) --> V(  1) amplitude =  0.7422
    D(180) --> V(  1) amplitude = -0.5905

 Excited state  11: excitation energy (eV) =    3.5362
 Total energy for state 11:                 -2123.66123529 au
    Multiplicity: Singlet
    Trans. Mom.:  0.1702 X  -0.0300 Y   0.0544 Z
    Strength   :     0.0028427548
    D(178) --> V(  1) amplitude =  0.9309

 Excited state  12: excitation energy (eV) =    3.6676
 Total energy for state 12:                 -2123.65640520 au
    Multiplicity: Singlet
    Trans. Mom.:  0.6930 X  -0.0096 Y   0.3923 Z
    Strength   :     0.0569934582
    D(175) --> V(  1) amplitude = -0.7327
    D(179) --> V(  2) amplitude =  0.3970
    D(180) --> V(  2) amplitude =  0.4251

 ---------------------------------------------------

                    Orbital Energies (a.u.)
 --------------------------------------------------------------

 Alpha MOs
 -- Occupied --
-19.523 -19.522 -10.499 -10.498 -10.492 -10.488 -10.463 -10.463
-10.462 -10.462 -10.462 -10.462 -10.461 -10.461 -10.460 -10.460
-10.460 -10.460 -10.460 -10.460 -10.459 -10.458 -10.458 -10.458
-10.457 -10.457 -10.457 -10.457 -10.451 -10.451 -10.450 -10.448
-10.448 -10.448 -10.447 -10.445 -10.445 -10.445 -10.430 -10.430
-10.430 -10.429 -10.429 -10.427 -10.426 -10.425 -10.423 -10.422
-10.422 -10.421 -10.412 -10.409  -6.942  -6.934  -1.188  -1.179
 -1.013  -1.012  -0.958  -0.955  -0.950  -0.941  -0.931  -0.931
 -0.904  -0.895  -0.870  -0.868  -0.857  -0.851  -0.849  -0.845
 -0.845  -0.844  -0.819  -0.811  -0.809  -0.800  -0.790  -0.788
 -0.763  -0.759  -0.753  -0.749  -0.732  -0.725  -0.724  -0.718
 -0.687  -0.681  -0.677  -0.663  -0.658  -0.647  -0.642  -0.642
 -0.640  -0.634  -0.594  -0.590  -0.589  -0.587  -0.582  -0.580
 -0.580  -0.573  -0.573  -0.556  -0.554  -0.541  -0.541  -0.537
 -0.533  -0.532  -0.525  -0.521  -0.510  -0.504  -0.501  -0.494
 -0.491  -0.489  -0.488  -0.487  -0.482  -0.481  -0.480  -0.479
 -0.477  -0.473  -0.470  -0.467  -0.466  -0.464  -0.462  -0.461
 -0.461  -0.457  -0.454  -0.453  -0.441  -0.441  -0.440  -0.439
 -0.431  -0.425  -0.424  -0.421  -0.420  -0.419  -0.416  -0.408
 -0.398  -0.396  -0.395  -0.393  -0.392  -0.392  -0.389  -0.389
 -0.375  -0.372  -0.367  -0.360  -0.359  -0.356  -0.350  -0.347
 -0.338  -0.332  -0.316  -0.311  -0.293  -0.292  -0.278  -0.274
 -0.272  -0.259  -0.253  -0.251  -0.246  -0.230

          Ground-State Mulliken Net Atomic Charges

     Atom                 Charge (a.u.)
  ----------------------------------------
      1 C                    -0.149899
      2 C                    -0.390580
      3 H                     0.235032
      4 C                     0.093066
      5 C                     0.117283
      6 C                    -0.397583
      7 H                     0.234860
      8 C                    -0.150653
      9 C                     0.195099
     10 C                    -0.376866
     11 H                     0.221417
     12 C                    -0.064996
     13 C                     0.251264
     14 C                     0.200861
     15 C                    -0.387393
     16 H                     0.221059
     17 C                    -0.205608
     18 H                     0.226014
     19 C                    -0.331040
     20 H                     0.219734
     21 C                    -0.336967
     22 H                     0.220019
     23 C                    -0.201923
     24 H                     0.225726
     25 B                     0.678541
     26 C                    -0.151135
     27 C                    -0.395734
     28 H                     0.234443
     29 C                     0.116284
     30 C                     0.095498
     31 C                    -0.392660
     32 H                     0.233313
     33 C                    -0.149258
     34 C                     0.194184
     35 C                    -0.376394
     36 H                     0.221284
     37 C                    -0.064445
     38 C                     0.253026
     39 C                     0.199508
     40 C                    -0.386383
     41 H                     0.220926
     42 C                    -0.205639
     43 H                     0.226093
     44 C                    -0.332025
     45 H                     0.219889
     46 C                    -0.337365
     47 H                     0.220009
     48 C                    -0.202061
     49 H                     0.225755
     50 B                     0.693207
     51 C                    -0.253073
     52 C                     0.085450
     53 C                    -0.392947
     54 H                     0.216515
     55 C                     0.400128
     56 O                    -0.444931
     57 C                    -0.448632
     58 H                     0.216554
     59 C                     0.083520
     60 C                    -0.403394
     61 H                     0.242157
     62 H                     0.209275
     63 H                     0.209208
     64 C                    -0.760443
     65 H                     0.229938
     66 H                     0.247145
     67 H                     0.248107
     68 C                    -0.758021
     69 H                     0.234691
     70 H                     0.245691
     71 H                     0.243665
     72 C                    -0.224693
     73 C                     0.061169
     74 C                    -0.431774
     75 H                     0.220909
     76 C                     0.401796
     77 O                    -0.454998
     78 C                    -0.379266
     79 H                     0.220513
     80 C                     0.060626
     81 C                    -0.405584
     82 H                     0.238590
     83 H                     0.203142
     84 H                     0.202649
     85 C                    -0.758645
     86 H                     0.236496
     87 H                     0.243558
     88 H                     0.244061
     89 C                    -0.758505
     90 H                     0.231364
     91 H                     0.246007
     92 H                     0.245192
  ----------------------------------------
  Sum of atomic charges =    -0.000000

                    Cartesian Multipole Moments
 -----------------------------------------------------------------
    Charge (ESU x 10^10)
                -0.0000
    Dipole Moment (Debye)
         X      -0.1840      Y      -0.0252      Z      -0.2573
       Tot       0.3174
    Quadrupole Moments (Debye-Ang)
        XX    -264.3797     XY     -17.4341     YY    -310.5798
        XZ       0.3635     YZ     -10.3586     ZZ    -260.9797

 Total job time:  10063.60s(wall), 33912.95s(cpu)
        *  Thank you very much for using Q-Chem.  Have a nice day.  *
