 Q-Chem 5.0, Q-Chem, Inc., Pleasanton, CA (2017)
 Q-Chem 5.0.1 for Intel X86 EM64T Linux

User input:
--------------------------------------------------------------
$solvent
dielectric      2.38
dielectric_infi 2.25
$end

$rem
threads 8
jobtype	sp
method PBEh-3c
basis def2-mSVP
mem_static	1024
mem_total	14000
sym_ignore	true
cis_n_roots             2
cis_singlets            false
cis_triplets		true
rpa                     false
calc_soc 		true
cis_moments             true
cis_relaxed_density	true
solvent_method		pcm
$end

$pcm
StateSpecific   1
ChargeSeparation Excited
$end

$molecule
read ut1opt_tol.mol
$end

--------------------------------------------------------------

   15   -2123.8058988792      4.96E-09 Convergence criterion met
 Total energy in the final basis set = -2123.80589888
 Q-Chem 5.0, Q-Chem, Inc., Pleasanton, CA (2017)
 Q-Chem 5.0.1 for Intel X86 EM64T Linux

User input:
--------------------------------------------------------------
$rem
threads 8
jobtype sp
method PBEh-3c
basis def2-mSVP
mem_static      1024
mem_total       14000
sym_ignore      true
cis_n_roots             6
cis_singlets            true
cis_triplets            true
rpa                     false
calc_soc                true
cis_moments             true
cis_relaxed_density     true
solvent_method          pcm
$end

$molecule
read
$end

$pcm
statespecific           Marcus
$end

$solvent
dielectric      2.38
dielectric_infi 2.25
$end

--------------------------------------------------------------

             Standard Nuclear Orientation (Angstroms)
    I     Atom           X                Y                Z
 ----------------------------------------------------------------
    1      C       0.0000000000     0.0000000000     0.0000000000
    2      C       0.0000000000     0.0000000000     1.4143040000
    3      H       0.9396343123     0.0000000000     1.9601399412
    4      C      -1.1792516975    -0.0325270139     2.1120634388
    5      C      -2.4232052679    -0.0750997211     1.4150899540
    6      C      -2.4439196595    -0.0505086898     0.0409940789
    7      H      -3.3887326498    -0.0891121587    -0.4917174424
    8      C      -1.2460745626    -0.0125263515    -0.6968487012
    9      C      -3.4912212520    -0.2101865234     2.4024224950
   10      C      -4.8546998444    -0.3682511829     2.3523238911
   11      H      -5.3937867697    -0.3834207336     1.4132014095
   12      C      -2.8624831217    -0.2233930139     3.6647290082
   13      C      -3.5361818227    -0.3859765540     4.8732979165
   14      C      -1.4628131255    -0.1154656451     3.5456179514
   15      C      -0.7072060750    -0.1531745696     4.6908466362
   16      H       0.3736193629    -0.0884270425     4.6651479408
   17      C      -1.3656191847    -0.2962522694     5.9342414536
   18      H      -0.7671587434    -0.3270473741     6.8360288475
   19      C      -2.7328848357    -0.4118384424     6.0386203388
   20      H      -3.1933437242    -0.5347121767     7.0116322748
   21      C      -5.5640156241    -0.5305795608     3.5653968000
   22      H      -6.6381829620    -0.6593677058     3.5209500522
   23      C      -4.9422295015    -0.5394005533     4.7928142587
   24      H      -5.5261213530    -0.6756784263     5.6951373922
   25      B       1.2993877471    -0.0807278204    -0.7979480212
   26      C       1.2980726707    -0.0976903161    -2.3241231937
   27      C       2.4960592651    -0.2070933556    -3.0679200088
   28      H       3.4521484564    -0.2249692083    -2.5516483322
   29      C       2.4613994946    -0.3328435291    -4.4341433318
   30      C       1.2085076052    -0.3548530770    -5.1154826664
   31      C       0.0353561382    -0.2201492551    -4.4119070137
   32      H      -0.9183130470    -0.2521460549    -4.9289681182
   33      C       0.0456416144    -0.0947334544    -3.0110696033
   34      C       1.4619755704    -0.6382895480    -6.5226947416
   35      C       0.6740319730    -0.8633521868    -7.6238481946
   36      H      -0.4061074138    -0.7997212542    -7.5751352679
   37      C       2.8597977976    -0.7625279309    -6.6575899043
   38      C       3.5013382388    -1.1089054401    -7.8436243375
   39      C       3.5140436163    -0.5739516384    -5.4230085166
   40      C       4.8790624742    -0.7084814074    -5.3844501820
   41      H       5.4397099139    -0.5888022628    -4.4654502144
   42      C       1.3009610597    -1.2068068006    -8.8439434399
   43      H       0.6781820207    -1.3891421607    -9.7106439019
   44      C       2.6661254305    -1.3296236060    -8.9666345722
   45      H       3.1005511225    -1.6070938138    -9.9193720307
   46      C       5.5616963654    -1.0324349069    -6.5803400609
   47      H       6.6384355360    -1.1405743281    -6.5464958096
   48      C       4.9099847141    -1.2345116681    -7.7757003991
   49      H       5.4744759236    -1.5003908864    -8.6612211354
   50      B      -1.2822730102    -0.0656963663    -2.2329045372
   51      C       2.6324311638    -0.3309927331    -0.0039830117
   52      C       3.0575615604    -1.6768393067     0.2599340477
   53      C       4.1980130087    -1.8927546194     0.9745134073
   54      H       4.5457006852    -2.8953110834     1.1923643726
   55      C       4.9617287692    -0.7987922628     1.4634721582
   56      O       6.0286774060    -1.1307120962     2.1377919108
   57      C       4.5600364764     0.5319555800     1.2178765077
   58      H       5.1407666644     1.3643820336     1.5915238187
   59      C       3.4194133047     0.7639618922     0.4982121891
   60      C       6.8880386201    -0.1423079541     2.7033410528
   61      H       7.6759850685    -0.6906713027     3.2092255319
   62      H       6.3525443530     0.4732897717     3.4263054142
   63      H       7.3246302521     0.4865437959     1.9271844226
   64      C       2.9522479657     2.1511492677     0.2197130483
   65      H       3.6346267389     2.9009701444     0.6154441584
   66      H       2.8409213331     2.3078667404    -0.8549449620
   67      H       1.9633391670     2.3123419522     0.6541667048
   68      C       2.2395386392    -2.8212259621    -0.2434100458
   69      H       2.6695868241    -3.7780803250     0.0480775467
   70      H       2.1606181413    -2.7937552474    -1.3309191842
   71      H       1.2211126712    -2.7666899608     0.1444312515
   72      C      -2.6648848404    -0.1559572374    -2.9925664637
   73      C      -3.2509275943    -1.3941551679    -3.2666536262
   74      C      -4.4724453707    -1.4765969074    -3.9361704635
   75      H      -4.8923134127    -2.4554772669    -4.1323991662
   76      C      -5.1263570902    -0.3205260366    -4.3399084945
   77      O      -6.3094646324    -0.3031824573    -4.9966105162
   78      C      -4.5541197131     0.9188413309    -4.0678148868
   79      H      -5.0697499447     1.8176787187    -4.3862667211
   80      C      -3.3399053392     1.0033212413    -3.4039279723
   81      C      -6.9078584489    -1.5301989263    -5.3268144905
   82      H      -7.8281091743    -1.2957836069    -5.8582522234
   83      H      -7.1602672607    -2.1222422615    -4.4412270129
   84      H      -6.2746080291    -2.1387100416    -5.9804307040
   85      C      -2.7384522050     2.3502166519    -3.1163884247
   86      H      -3.3432348018     3.1605221046    -3.5232817164
   87      H      -1.7363277104     2.4335623324    -3.5416750617
   88      H      -2.6386519632     2.5147829066    -2.0413701477
   89      C      -2.5680310168    -2.6632376532    -2.8343168284
   90      H      -3.1183613365    -3.5487145984    -3.1536912556
   91      H      -1.5594158752    -2.7336113177    -3.2462639237
   92      H      -2.4687649177    -2.7094861863    -1.7476992427
 ----------------------------------------------------------------

   15   -2123.8058911307      5.04E-09 Convergence criterion met
 Total energy in the final basis set = -2123.80589113

         TDDFT/TDA Excitation Energies
 ---------------------------------------------------

 Excited state   1: excitation energy (eV) =    2.2202
 Total energy for state  1:                 -2123.72430162 au
    Multiplicity: Triplet
    Trans. Mom.:  0.0000 X   0.0000 Y   0.0000 Z
    Strength   :     0.0000000000
    D(175) --> V(  2) amplitude =  0.2422
    D(179) --> V(  1) amplitude =  0.7759
    D(180) --> V(  1) amplitude = -0.4637

 Excited state   2: excitation energy (eV) =    2.3833
 Total energy for state  2:                 -2123.71830680 au
    Multiplicity: Triplet
    Trans. Mom.:  0.0000 X   0.0000 Y   0.0000 Z
    Strength   :     0.0000000000
    D(179) --> V(  1) amplitude = -0.2932
    D(182) --> V(  1) amplitude =  0.8719

 Excited state   3: excitation energy (eV) =    2.4339
 Total energy for state  3:                 -2123.71644873 au
    Multiplicity: Singlet
    Trans. Mom.:  0.2661 X  -0.0103 Y  -0.1683 Z
    Strength   :     0.0059166974
    D(182) --> V(  1) amplitude =  0.9730

 Excited state   4: excitation energy (eV) =    2.4532
 Total energy for state  4:                 -2123.71573934 au
    Multiplicity: Triplet
    Trans. Mom.:  0.0000 X   0.0000 Y   0.0000 Z
    Strength   :     0.0000000000
    D(178) --> V(  2) amplitude = -0.4378
    D(179) --> V(  1) amplitude =  0.3385
    D(180) --> V(  1) amplitude =  0.6584
    D(182) --> V(  1) amplitude =  0.3590

 Excited state   5: excitation energy (eV) =    2.4989
 Total energy for state  5:                 -2123.71405677 au
    Multiplicity: Triplet
    Trans. Mom.:  0.0000 X   0.0000 Y   0.0000 Z
    Strength   :     0.0000000000
    D(178) --> V(  1) amplitude =  0.7304
    D(178) --> V(  4) amplitude = -0.2337
    D(180) --> V(  2) amplitude = -0.5055

 Excited state   6: excitation energy (eV) =    2.7284
 Total energy for state  6:                 -2123.70562555 au
    Multiplicity: Triplet
    Trans. Mom.:  0.0000 X   0.0000 Y   0.0000 Z
    Strength   :     0.0000000000
    D(175) --> V(  1) amplitude =  0.7103
    D(179) --> V(  2) amplitude =  0.5226

 Excited state   7: excitation energy (eV) =    2.8556
 Total energy for state  7:                 -2123.70095002 au
    Multiplicity: Triplet
    Trans. Mom.:  0.0000 X   0.0000 Y   0.0000 Z
    Strength   :     0.0000000000
    D(181) --> V(  1) amplitude =  0.9594

 Excited state   8: excitation energy (eV) =    2.8886
 Total energy for state  8:                 -2123.69973794 au
    Multiplicity: Singlet
    Trans. Mom.:  0.0893 X  -0.0081 Y  -0.1573 Z
    Strength   :     0.0023200147
    D(179) --> V(  1) amplitude =  0.6391
    D(180) --> V(  1) amplitude = -0.3714
    D(181) --> V(  1) amplitude =  0.6267

 Excited state   9: excitation energy (eV) =    2.8997
 Total energy for state  9:                 -2123.69933061 au
    Multiplicity: Singlet
    Trans. Mom.: -0.0914 X   0.0056 Y   0.1976 Z
    Strength   :     0.0033695786
    D(179) --> V(  1) amplitude = -0.5562
    D(180) --> V(  1) amplitude =  0.2875
    D(181) --> V(  1) amplitude =  0.7406

 Excited state  10: excitation energy (eV) =    3.1408
 Total energy for state 10:                 -2123.69047019 au
    Multiplicity: Singlet
    Trans. Mom.: -1.9933 X   0.2033 Y   3.6205 Z
    Strength   :     1.3175042687
    D(179) --> V(  1) amplitude =  0.4629
    D(180) --> V(  1) amplitude =  0.8359

 Excited state  11: excitation energy (eV) =    3.4502
 Total energy for state 11:                 -2123.67909746 au
    Multiplicity: Singlet
    Trans. Mom.:  0.0875 X   0.3012 Y   0.0546 Z
    Strength   :     0.0085691228
    D(178) --> V(  1) amplitude =  0.9372

 Excited state  12: excitation energy (eV) =    3.6581
 Total energy for state 12:                 -2123.67145922 au
    Multiplicity: Singlet
    Trans. Mom.:  0.8904 X  -0.0052 Y   0.4860 Z
    Strength   :     0.0922317812
    D(175) --> V(  1) amplitude =  0.7622
    D(179) --> V(  2) amplitude =  0.5020
    D(180) --> V(  2) amplitude = -0.2358

 ---------------------------------------------------

                    Orbital Energies (a.u.)
 --------------------------------------------------------------

 Alpha MOs
 -- Occupied --
-19.527 -19.525 -10.504 -10.502 -10.489 -10.484 -10.465 -10.465
-10.465 -10.464 -10.464 -10.464 -10.464 -10.464 -10.464 -10.464
-10.462 -10.462 -10.462 -10.461 -10.461 -10.461 -10.461 -10.461
-10.458 -10.458 -10.458 -10.458 -10.455 -10.454 -10.454 -10.453
-10.453 -10.452 -10.451 -10.450 -10.448 -10.448 -10.435 -10.434
-10.434 -10.434 -10.433 -10.430 -10.430 -10.426 -10.426 -10.425
-10.425 -10.422 -10.416 -10.415  -6.946  -6.940  -1.193  -1.180
 -1.016  -1.015  -0.962  -0.958  -0.953  -0.945  -0.933  -0.933
 -0.908  -0.899  -0.874  -0.871  -0.860  -0.855  -0.852  -0.848
 -0.846  -0.846  -0.823  -0.813  -0.811  -0.803  -0.792  -0.788
 -0.766  -0.762  -0.755  -0.752  -0.735  -0.727  -0.726  -0.720
 -0.689  -0.684  -0.679  -0.666  -0.660  -0.649  -0.645  -0.645
 -0.642  -0.638  -0.595  -0.592  -0.590  -0.587  -0.583  -0.582
 -0.581  -0.575  -0.575  -0.558  -0.557  -0.543  -0.543  -0.538
 -0.535  -0.532  -0.526  -0.522  -0.513  -0.507  -0.503  -0.496
 -0.493  -0.490  -0.489  -0.488  -0.485  -0.485  -0.483  -0.481
 -0.478  -0.475  -0.472  -0.470  -0.468  -0.465  -0.464  -0.464
 -0.462  -0.460  -0.457  -0.454  -0.444  -0.443  -0.440  -0.440
 -0.434  -0.427  -0.425  -0.424  -0.423  -0.421  -0.418  -0.411
 -0.400  -0.397  -0.397  -0.395  -0.395  -0.393  -0.391  -0.391
 -0.379  -0.375  -0.370  -0.364  -0.363  -0.359  -0.354  -0.351
 -0.342  -0.337  -0.321  -0.315  -0.296  -0.295  -0.282  -0.279
 -0.276  -0.262  -0.257  -0.255  -0.250  -0.234

          Ground-State Mulliken Net Atomic Charges

     Atom                 Charge (a.u.)
  ----------------------------------------
      1 C                    -0.147150
      2 C                    -0.391020
      3 H                     0.243287
      4 C                     0.093524
      5 C                     0.089693
      6 C                    -0.395308
      7 H                     0.243455
      8 C                    -0.154884
      9 C                     0.182950
     10 C                    -0.387103
     11 H                     0.242669
     12 C                    -0.065872
     13 C                     0.227504
     14 C                     0.185419
     15 C                    -0.388049
     16 H                     0.242310
     17 C                    -0.223232
     18 H                     0.247058
     19 C                    -0.342819
     20 H                     0.243479
     21 C                    -0.223689
     22 H                     0.247058
     23 C                    -0.341653
     24 H                     0.243648
     25 B                     0.667617
     26 C                    -0.152670
     27 C                    -0.393969
     28 H                     0.241851
     29 C                     0.091945
     30 C                     0.090738
     31 C                    -0.393810
     32 H                     0.243950
     33 C                    -0.150167
     34 C                     0.179350
     35 C                    -0.384166
     36 H                     0.242922
     37 C                    -0.064010
     38 C                     0.228055
     39 C                     0.183166
     40 C                    -0.388186
     41 H                     0.242721
     42 C                    -0.224385
     43 H                     0.247176
     44 C                    -0.341327
     45 H                     0.243628
     46 C                    -0.222770
     47 H                     0.247202
     48 C                    -0.343396
     49 H                     0.243676
     50 B                     0.686685
     51 C                    -0.257861
     52 C                     0.068082
     53 C                    -0.415834
     54 H                     0.230892
     55 C                     0.391899
     56 O                    -0.451516
     57 C                    -0.458414
     58 H                     0.239830
     59 C                     0.088783
     60 C                    -0.416786
     61 H                     0.252681
     62 H                     0.220896
     63 H                     0.221246
     64 C                    -0.765158
     65 H                     0.242508
     66 H                     0.247004
     67 H                     0.247210
     68 C                    -0.766431
     69 H                     0.246404
     70 H                     0.248264
     71 H                     0.247970
     72 C                    -0.222981
     73 C                     0.047623
     74 C                    -0.448007
     75 H                     0.244262
     76 C                     0.393974
     77 O                    -0.465684
     78 C                    -0.396605
     79 H                     0.234707
     80 C                     0.058555
     81 C                    -0.420811
     82 H                     0.248121
     83 H                     0.213332
     84 H                     0.213614
     85 C                    -0.768378
     86 H                     0.247280
     87 H                     0.246911
     88 H                     0.246449
     89 C                    -0.766787
     90 H                     0.244270
     91 H                     0.248017
     92 H                     0.247368
  ----------------------------------------
  Sum of atomic charges =    -0.000000

                    Cartesian Multipole Moments
 -----------------------------------------------------------------
    Charge (ESU x 10^10)
                -0.0000
    Dipole Moment (Debye)
         X       0.7878      Y      -1.2855      Z       0.6271
       Tot       1.6329
    Quadrupole Moments (Debye-Ang)
        XX    -253.0889     XY      18.8577     YY    -309.0529
        XZ       0.1842     YZ      17.6978     ZZ    -253.2308

 Total job time:  8269.15s(wall), 28454.22s(cpu)
        *  Thank you very much for using Q-Chem.  Have a nice day.  *
