 Q-Chem 5.0, Q-Chem, Inc., Pleasanton, CA (2017)
 Q-Chem 5.0.1 for Intel X86 EM64T Linux

User input:
--------------------------------------------------------------
$solvent
dielectric      2.03
dielectric_infi 2.02
$end

$rem
threads 8
jobtype	sp
method PBEh-3c
basis def2-mSVP
mem_static	1024
mem_total	14000
sym_ignore	true
cis_n_roots             2
cis_singlets            false
cis_triplets		true
rpa                     false
calc_soc 		true
cis_moments             true
cis_relaxed_density	true
solvent_method		pcm
$end

$pcm
StateSpecific   1
ChargeSeparation Excited
$end

$molecule
read ut1opt_chx.mol
$end

--------------------------------------------------------------

   15   -2123.8034998656      5.23E-09 Convergence criterion met
 Total energy in the final basis set = -2123.80349987
 Total job time:  5659.94s(wall), 14901.45s(cpu)
        *  Thank you very much for using Q-Chem.  Have a nice day.  *
 Q-Chem 5.0, Q-Chem, Inc., Pleasanton, CA (2017)
 Q-Chem 5.0.1 for Intel X86 EM64T Linux

User input:
--------------------------------------------------------------
$rem
threads 8
jobtype sp
method PBEh-3c
basis def2-mSVP
mem_static      1024
mem_total       14000
sym_ignore      true
cis_n_roots             6
cis_singlets            true
cis_triplets            true
rpa                     false
calc_soc                true
cis_moments             true
cis_relaxed_density     true
solvent_method          pcm
$end

$molecule
read
$end

$pcm
statespecific           Marcus
$end

$solvent
dielectric      2.03
dielectric_infi 2.02
$end

--------------------------------------------------------------

             Standard Nuclear Orientation (Angstroms)
    I     Atom           X                Y                Z
 ----------------------------------------------------------------
    1      C       0.0000000000     0.0000000000     0.0000000000
    2      C       0.0000000000     0.0000000000     1.4146990000
    3      H       0.9393261448     0.0000000000     1.9611168042
    4      C      -1.1789050767    -0.0313802389     2.1125290519
    5      C      -2.4229257684    -0.0740467923     1.4159001867
    6      C      -2.4437949293    -0.0512243994     0.0416110984
    7      H      -3.3884724574    -0.0901879295    -0.4912634881
    8      C      -1.2464543374    -0.0147388051    -0.6963307954
    9      C      -3.4906406619    -0.2071404995     2.4032491856
   10      C      -4.8542158198    -0.3643146017     2.3533887474
   11      H      -5.3932045472    -0.3802255982     1.4142556124
   12      C      -2.8619404491    -0.2192289419     3.6655746141
   13      C      -3.5356870245    -0.3798751184     4.8742502574
   14      C      -1.4623506566    -0.1122388089     3.5462606401
   15      C      -0.7068815888    -0.1489885975     4.6914509438
   16      H       0.3739812995    -0.0849328452     4.6655942283
   17      C      -1.3652053300    -0.2900746149     5.9349762213
   18      H      -0.7668227418    -0.3200400153     6.8368336220
   19      C      -2.7324293610    -0.4047219997     6.0394459027
   20      H      -3.1929001693    -0.5260345834     7.0126324857
   21      C      -5.5635174646    -0.5247164210     3.5665069806
   22      H      -6.6377607533    -0.6528153832     3.5222946108
   23      C      -4.9417383511    -0.5324634770     4.7938578882
   24      H      -5.5258061795    -0.6671799819     5.6962823768
   25      B       1.2982959767    -0.0811697868    -0.7998044323
   26      C       1.2958806212    -0.0983470349    -2.3258418495
   27      C       2.4934368187    -0.2069632801    -3.0704694191
   28      H       3.4499098344    -0.2224480846    -2.5547369985
   29      C       2.4577248529    -0.3341439584    -4.4364166776
   30      C       1.2044252437    -0.3577100219    -5.1165678861
   31      C       0.0317556740    -0.2230826141    -4.4122000945
   32      H      -0.9225583827    -0.2562564179    -4.9279641077
   33      C       0.0432786227    -0.0971560698    -3.0116470646
   34      C       1.4568244235    -0.6422778083    -6.5236619089
   35      C       0.6680797838    -0.8691594134    -7.6236872845
   36      H      -0.4120316888    -0.8063798982    -7.5738419453
   37      C       2.8545395434    -0.7655170528    -6.6597835748
   38      C       3.4951351772    -1.1126201898    -7.8459745126
   39      C       3.5097338156    -0.5750665090    -5.4261085444
   40      C       4.8747419126    -0.7083451696    -5.3888237244
   41      H       5.4362032322    -0.5869953138    -4.4705482620
   42      C       1.2940135263    -1.2133636655    -8.8439826287
   43      H       0.6705744569    -1.3970878909    -9.7098974199
   44      C       2.6590102789    -1.3351739239    -8.9678318848
   45      H       3.0926728579    -1.6132127231    -9.9207341671
   46      C       5.5565256850    -1.0330314341    -6.5849028320
   47      H       6.6333893841    -1.1401436406    -6.5520566763
   48      C       4.9038211765    -1.2369693929    -7.7792356702
   49      H       5.4677032076    -1.5033173023    -8.6649914150
   50      B      -1.2840216358    -0.0701182119    -2.2323337482
   51      C       2.6270427599    -0.3449579771    -0.0044391044
   52      C       3.0556930592    -1.6950580623     0.2318907189
   53      C       4.1854727651    -1.9230442745     0.9598641036
   54      H       4.5335747357    -2.9291516635     1.1597699296
   55      C       4.9361420000    -0.8389752258     1.4878394617
   56      O       5.9939469425    -1.1835684908     2.1724468669
   57      C       4.5334847355     0.4951948502     1.2673201377
   58      H       5.1047509432     1.3210148252     1.6691964423
   59      C       3.4034388015     0.7402194443     0.5347174349
   60      C       6.8385435390    -0.2051369153     2.7737510009
   61      H       7.6215524208    -0.7607951901     3.2795220494
   62      H       6.2892948734     0.3913806850     3.5025848456
   63      H       7.2846667096     0.4442629342     2.0200401791
   64      C       2.9357207574     2.1316649043     0.2804240656
   65      H       3.6162560946     2.8752562058     0.6909506419
   66      H       2.8255052571     2.3071154446    -0.7914650274
   67      H       1.9456069279     2.2840954381     0.7156068610
   68      C       2.2520780861    -2.8315690479    -0.3110805630
   69      H       2.6822166895    -3.7926280144    -0.0337182028
   70      H       2.1909696781    -2.7801230805    -1.3987963306
   71      H       1.2270410898    -2.7907392213     0.0607703999
   72      C      -2.6670158504    -0.1646777661    -2.9900942165
   73      C      -3.2507229230    -1.4047158034    -3.2601647482
   74      C      -4.4732903094    -1.4911467494    -3.9269863158
   75      H      -4.8914512823    -2.4713794592    -4.1199834155
   76      C      -5.1304040865    -0.3374412505    -4.3319081972
   77      O      -6.3151276917    -0.3240852258    -4.9858500959
   78      C      -4.5602389889     0.9036972712    -4.0641033512
   79      H      -5.0787092361     1.8003841915    -4.3837591439
   80      C      -3.3450482346     0.9922962712    -3.4029380009
   81      C      -6.9112556455    -1.5525353772    -5.3117448004
   82      H      -7.8329916558    -1.3214324486    -5.8421524608
   83      H      -7.1611152946    -2.1431724990    -4.4243538817
   84      H      -6.2781639087    -2.1617199257    -5.9650766410
   85      C      -2.7455637018     2.3408609687    -3.1193795365
   86      H      -3.3522924529     3.1491386946    -3.5273909681
   87      H      -1.7441956364     2.4249647900    -3.5462776368
   88      H      -2.6447024918     2.5081288365    -2.0448814322
   89      C      -2.5641196822    -2.6711761727    -2.8261625298
   90      H      -3.1129996093    -3.5586572466    -3.1424966005
   91      H      -1.5561799184    -2.7401560761    -3.2399993797
   92      H      -2.4629249297    -2.7147606608    -1.7396197614
 ----------------------------------------------------------------

   15   -2123.8034991229      5.23E-09 Convergence criterion met
 Total energy in the final basis set = -2123.80349912

         TDDFT/TDA Excitation Energies
 ---------------------------------------------------

 Excited state   1: excitation energy (eV) =    2.2179
 Total energy for state  1:                 -2123.72199303 au
    Multiplicity: Triplet
    Trans. Mom.:  0.0000 X   0.0000 Y   0.0000 Z
    Strength   :     0.0000000000
    D(175) --> V(  2) amplitude =  0.2418
    D(179) --> V(  1) amplitude =  0.7372
    D(180) --> V(  1) amplitude = -0.5165

 Excited state   2: excitation energy (eV) =    2.3826
 Total energy for state  2:                 -2123.71594190 au
    Multiplicity: Triplet
    Trans. Mom.:  0.0000 X   0.0000 Y   0.0000 Z
    Strength   :     0.0000000000
    D(179) --> V(  1) amplitude = -0.3212
    D(182) --> V(  1) amplitude =  0.8625

 Excited state   3: excitation energy (eV) =    2.4374
 Total energy for state  3:                 -2123.71392653 au
    Multiplicity: Singlet
    Trans. Mom.:  0.3374 X  -0.0110 Y  -0.1409 Z
    Strength   :     0.0079913294
    D(182) --> V(  1) amplitude =  0.9728

 Excited state   4: excitation energy (eV) =    2.4552
 Total energy for state  4:                 -2123.71327385 au
    Multiplicity: Triplet
    Trans. Mom.:  0.0000 X   0.0000 Y   0.0000 Z
    Strength   :     0.0000000000
    D(178) --> V(  2) amplitude = -0.4368
    D(179) --> V(  1) amplitude =  0.3781
    D(180) --> V(  1) amplitude =  0.6314
    D(182) --> V(  1) amplitude =  0.3512

 Excited state   5: excitation energy (eV) =    2.5012
 Total energy for state  5:                 -2123.71158298 au
    Multiplicity: Triplet
    Trans. Mom.:  0.0000 X   0.0000 Y   0.0000 Z
    Strength   :     0.0000000000
    D(178) --> V(  1) amplitude =  0.7220
    D(178) --> V(  4) amplitude = -0.2309
    D(179) --> V(  2) amplitude = -0.2334
    D(180) --> V(  2) amplitude = -0.4857

 Excited state   6: excitation energy (eV) =    2.7267
 Total energy for state  6:                 -2123.70329414 au
    Multiplicity: Triplet
    Trans. Mom.:  0.0000 X   0.0000 Y   0.0000 Z
    Strength   :     0.0000000000
    D(175) --> V(  1) amplitude =  0.7101
    D(179) --> V(  2) amplitude =  0.5097
    D(180) --> V(  2) amplitude = -0.2326

 Excited state   7: excitation energy (eV) =    2.8552
 Total energy for state  7:                 -2123.69857241 au
    Multiplicity: Triplet
    Trans. Mom.:  0.0000 X   0.0000 Y   0.0000 Z
    Strength   :     0.0000000000
    D(181) --> V(  1) amplitude =  0.9591

 Excited state   8: excitation energy (eV) =    2.8886
 Total energy for state  8:                 -2123.69734516 au
    Multiplicity: Singlet
    Trans. Mom.:  0.0880 X  -0.0080 Y  -0.1498 Z
    Strength   :     0.0021410428
    D(179) --> V(  1) amplitude =  0.5903
    D(180) --> V(  1) amplitude = -0.4005
    D(181) --> V(  1) amplitude =  0.6559

 Excited state   9: excitation energy (eV) =    2.8997
 Total energy for state  9:                 -2123.69693601 au
    Multiplicity: Singlet
    Trans. Mom.: -0.0902 X   0.0062 Y   0.2079 Z
    Strength   :     0.0036522849
    D(179) --> V(  1) amplitude = -0.5597
    D(180) --> V(  1) amplitude =  0.3403
    D(181) --> V(  1) amplitude =  0.7148

 Excited state  10: excitation energy (eV) =    3.1520
 Total energy for state 10:                 -2123.68766374 au
    Multiplicity: Singlet
    Trans. Mom.: -1.9540 X   0.2008 Y   3.5562 Z
    Strength   :     1.2745639913
    D(179) --> V(  1) amplitude =  0.5178
    D(180) --> V(  1) amplitude =  0.8021

 Excited state  11: excitation energy (eV) =    3.4606
 Total energy for state 11:                 -2123.67632446 au
    Multiplicity: Singlet
    Trans. Mom.:  0.0855 X   0.2883 Y   0.0594 Z
    Strength   :     0.0079645783
    D(178) --> V(  1) amplitude =  0.9366

 Excited state  12: excitation energy (eV) =    3.6581
 Total energy for state 12:                 -2123.66906637 au
    Multiplicity: Singlet
    Trans. Mom.:  0.8707 X  -0.0055 Y   0.4700 Z
    Strength   :     0.0877481524
    D(175) --> V(  1) amplitude =  0.7576
    D(179) --> V(  2) amplitude =  0.4886
    D(180) --> V(  2) amplitude = -0.2706

 ---------------------------------------------------

                    Orbital Energies (a.u.)
 --------------------------------------------------------------

 Alpha MOs
 -- Occupied --
-19.526 -19.524 -10.503 -10.501 -10.489 -10.484 -10.465 -10.465
-10.464 -10.464 -10.464 -10.464 -10.464 -10.463 -10.463 -10.463
-10.462 -10.461 -10.461 -10.461 -10.461 -10.461 -10.461 -10.461
-10.458 -10.458 -10.458 -10.458 -10.454 -10.453 -10.453 -10.452
-10.452 -10.452 -10.451 -10.449 -10.448 -10.448 -10.434 -10.434
-10.434 -10.433 -10.433 -10.430 -10.429 -10.426 -10.425 -10.425
-10.424 -10.422 -10.416 -10.414  -6.946  -6.939  -1.192  -1.180
 -1.015  -1.015  -0.961  -0.958  -0.953  -0.944  -0.933  -0.932
 -0.907  -0.898  -0.873  -0.871  -0.859  -0.854  -0.851  -0.847
 -0.846  -0.846  -0.822  -0.813  -0.811  -0.803  -0.792  -0.788
 -0.765  -0.762  -0.755  -0.752  -0.734  -0.727  -0.726  -0.720
 -0.688  -0.683  -0.679  -0.665  -0.660  -0.649  -0.645  -0.644
 -0.642  -0.637  -0.595  -0.591  -0.590  -0.587  -0.583  -0.582
 -0.581  -0.575  -0.575  -0.558  -0.557  -0.543  -0.543  -0.538
 -0.535  -0.532  -0.526  -0.522  -0.512  -0.506  -0.503  -0.496
 -0.493  -0.490  -0.489  -0.488  -0.484  -0.484  -0.483  -0.480
 -0.478  -0.475  -0.472  -0.469  -0.468  -0.465  -0.464  -0.463
 -0.462  -0.460  -0.456  -0.454  -0.443  -0.442  -0.440  -0.440
 -0.433  -0.427  -0.425  -0.424  -0.423  -0.421  -0.417  -0.410
 -0.400  -0.397  -0.397  -0.395  -0.395  -0.393  -0.391  -0.391
 -0.378  -0.375  -0.370  -0.364  -0.362  -0.359  -0.353  -0.350
 -0.342  -0.336  -0.320  -0.314  -0.296  -0.295  -0.282  -0.279
 -0.276  -0.262  -0.256  -0.255  -0.250  -0.234

          Ground-State Mulliken Net Atomic Charges

     Atom                 Charge (a.u.)
  ----------------------------------------
      1 C                    -0.145871
      2 C                    -0.390818
      3 H                     0.242113
      4 C                     0.095378
      5 C                     0.090780
      6 C                    -0.394854
      7 H                     0.242329
      8 C                    -0.155401
      9 C                     0.184589
     10 C                    -0.386090
     11 H                     0.239881
     12 C                    -0.065797
     13 C                     0.230507
     14 C                     0.187351
     15 C                    -0.387165
     16 H                     0.239373
     17 C                    -0.220626
     18 H                     0.244148
     19 C                    -0.341762
     20 H                     0.240251
     21 C                    -0.221134
     22 H                     0.244184
     23 C                    -0.340592
     24 H                     0.240418
     25 B                     0.666204
     26 C                    -0.153640
     27 C                    -0.394231
     28 H                     0.240703
     29 C                     0.093242
     30 C                     0.092298
     31 C                    -0.393641
     32 H                     0.242803
     33 C                    -0.149042
     34 C                     0.180957
     35 C                    -0.383223
     36 H                     0.240119
     37 C                    -0.063779
     38 C                     0.230961
     39 C                     0.185036
     40 C                    -0.387346
     41 H                     0.239853
     42 C                    -0.221864
     43 H                     0.244316
     44 C                    -0.340195
     45 H                     0.240422
     46 C                    -0.220172
     47 H                     0.244371
     48 C                    -0.342322
     49 H                     0.240477
     50 B                     0.687007
     51 C                    -0.256415
     52 C                     0.068660
     53 C                    -0.412600
     54 H                     0.229239
     55 C                     0.393027
     56 O                    -0.450636
     57 C                    -0.455338
     58 H                     0.236604
     59 C                     0.089684
     60 C                    -0.414986
     61 H                     0.251306
     62 H                     0.219107
     63 H                     0.219577
     64 C                    -0.763564
     65 H                     0.240753
     66 H                     0.246665
     67 H                     0.247077
     68 C                    -0.764932
     69 H                     0.244873
     70 H                     0.248455
     71 H                     0.247573
     72 C                    -0.223207
     73 C                     0.048908
     74 C                    -0.446226
     75 H                     0.241066
     76 C                     0.395126
     77 O                    -0.464220
     78 C                    -0.394082
     79 H                     0.232916
     80 C                     0.059971
     81 C                    -0.418777
     82 H                     0.246850
     83 H                     0.211772
     84 H                     0.212085
     85 C                    -0.767231
     86 H                     0.245820
     87 H                     0.246625
     88 H                     0.246133
     89 C                    -0.765699
     90 H                     0.242497
     91 H                     0.247837
     92 H                     0.247203
  ----------------------------------------
  Sum of atomic charges =     0.000000

                    Cartesian Multipole Moments
 -----------------------------------------------------------------
    Charge (ESU x 10^10)
                -0.0000
    Dipole Moment (Debye)
         X       0.7511      Y      -1.2580      Z       0.6532
       Tot       1.6042
    Quadrupole Moments (Debye-Ang)
        XX    -254.9309     XY      18.2165     YY    -309.3896
        XZ       0.7045     YZ      17.4900     ZZ    -254.5458

 Total job time:  9390.93s(wall), 30820.89s(cpu)
        *  Thank you very much for using Q-Chem.  Have a nice day.  *
