 Q-Chem 5.0, Q-Chem, Inc., Pleasanton, CA (2017)
 Q-Chem 5.0.1 for Intel X86 EM64T Linux

User input:
--------------------------------------------------------------
$solvent
dielectric      2.03
dielectric_infi 2.02
$end

$rem
threads 8
jobtype	sp
method PBEh-3c
basis def2-mSVP
mem_static	1024
mem_total	14000
sym_ignore	true
cis_n_roots             2
cis_singlets            false
cis_triplets		true
rpa                     false
calc_soc 		true
cis_moments             true
cis_relaxed_density	true
solvent_method		pcm
$end

$pcm
StateSpecific   1
ChargeSeparation Excited
$end

$molecule
read ut1opt_chx.mol
$end

--------------------------------------------------------------

   22   -2123.7219135563      9.49E-09 Convergence criterion met
 Total energy in the final basis set = -2123.72191356
 Total job time:  9084.03s(wall), 27373.84s(cpu)
        *  Thank you very much for using Q-Chem.  Have a nice day.  *
 Q-Chem 5.0, Q-Chem, Inc., Pleasanton, CA (2017)
 Q-Chem 5.0.1 for Intel X86 EM64T Linux

User input:
--------------------------------------------------------------
$rem
threads 8
jobtype sp
method PBEh-3c
basis def2-mSVP
mem_static      1024
mem_total       14000
sym_ignore      true
cis_n_roots             6
cis_singlets            true
cis_triplets            true
rpa                     false
calc_soc                true
cis_moments             true
cis_relaxed_density     true
solvent_method          pcm
$end

$molecule
read
$end

$pcm
statespecific           Marcus
$end

$solvent
dielectric      2.03
dielectric_infi 2.02
$end

--------------------------------------------------------------

             Standard Nuclear Orientation (Angstroms)
    I     Atom           X                Y                Z
 ----------------------------------------------------------------
    1      C       0.0000000000     0.0000000000     0.0000000000
    2      C       0.0000000000     0.0000000000     1.4146990000
    3      H       0.9393261448     0.0000000000     1.9611168042
    4      C      -1.1789050767    -0.0313802389     2.1125290519
    5      C      -2.4229257684    -0.0740467923     1.4159001867
    6      C      -2.4437949293    -0.0512243994     0.0416110984
    7      H      -3.3884724574    -0.0901879295    -0.4912634881
    8      C      -1.2464543374    -0.0147388051    -0.6963307954
    9      C      -3.4906406619    -0.2071404995     2.4032491856
   10      C      -4.8542158198    -0.3643146017     2.3533887474
   11      H      -5.3932045472    -0.3802255982     1.4142556124
   12      C      -2.8619404491    -0.2192289419     3.6655746141
   13      C      -3.5356870245    -0.3798751184     4.8742502574
   14      C      -1.4623506566    -0.1122388089     3.5462606401
   15      C      -0.7068815888    -0.1489885975     4.6914509438
   16      H       0.3739812995    -0.0849328452     4.6655942283
   17      C      -1.3652053300    -0.2900746149     5.9349762213
   18      H      -0.7668227418    -0.3200400153     6.8368336220
   19      C      -2.7324293610    -0.4047219997     6.0394459027
   20      H      -3.1929001693    -0.5260345834     7.0126324857
   21      C      -5.5635174646    -0.5247164210     3.5665069806
   22      H      -6.6377607533    -0.6528153832     3.5222946108
   23      C      -4.9417383511    -0.5324634770     4.7938578882
   24      H      -5.5258061795    -0.6671799819     5.6962823768
   25      B       1.2982959767    -0.0811697868    -0.7998044323
   26      C       1.2958806212    -0.0983470349    -2.3258418495
   27      C       2.4934368187    -0.2069632801    -3.0704694191
   28      H       3.4499098344    -0.2224480846    -2.5547369985
   29      C       2.4577248529    -0.3341439584    -4.4364166776
   30      C       1.2044252437    -0.3577100219    -5.1165678861
   31      C       0.0317556740    -0.2230826141    -4.4122000945
   32      H      -0.9225583827    -0.2562564179    -4.9279641077
   33      C       0.0432786227    -0.0971560698    -3.0116470646
   34      C       1.4568244235    -0.6422778083    -6.5236619089
   35      C       0.6680797838    -0.8691594134    -7.6236872845
   36      H      -0.4120316888    -0.8063798982    -7.5738419453
   37      C       2.8545395434    -0.7655170528    -6.6597835748
   38      C       3.4951351772    -1.1126201898    -7.8459745126
   39      C       3.5097338156    -0.5750665090    -5.4261085444
   40      C       4.8747419126    -0.7083451696    -5.3888237244
   41      H       5.4362032322    -0.5869953138    -4.4705482620
   42      C       1.2940135263    -1.2133636655    -8.8439826287
   43      H       0.6705744569    -1.3970878909    -9.7098974199
   44      C       2.6590102789    -1.3351739239    -8.9678318848
   45      H       3.0926728579    -1.6132127231    -9.9207341671
   46      C       5.5565256850    -1.0330314341    -6.5849028320
   47      H       6.6333893841    -1.1401436406    -6.5520566763
   48      C       4.9038211765    -1.2369693929    -7.7792356702
   49      H       5.4677032076    -1.5033173023    -8.6649914150
   50      B      -1.2840216358    -0.0701182119    -2.2323337482
   51      C       2.6270427599    -0.3449579771    -0.0044391044
   52      C       3.0556930592    -1.6950580623     0.2318907189
   53      C       4.1854727651    -1.9230442745     0.9598641036
   54      H       4.5335747357    -2.9291516635     1.1597699296
   55      C       4.9361420000    -0.8389752258     1.4878394617
   56      O       5.9939469425    -1.1835684908     2.1724468669
   57      C       4.5334847355     0.4951948502     1.2673201377
   58      H       5.1047509432     1.3210148252     1.6691964423
   59      C       3.4034388015     0.7402194443     0.5347174349
   60      C       6.8385435390    -0.2051369153     2.7737510009
   61      H       7.6215524208    -0.7607951901     3.2795220494
   62      H       6.2892948734     0.3913806850     3.5025848456
   63      H       7.2846667096     0.4442629342     2.0200401791
   64      C       2.9357207574     2.1316649043     0.2804240656
   65      H       3.6162560946     2.8752562058     0.6909506419
   66      H       2.8255052571     2.3071154446    -0.7914650274
   67      H       1.9456069279     2.2840954381     0.7156068610
   68      C       2.2520780861    -2.8315690479    -0.3110805630
   69      H       2.6822166895    -3.7926280144    -0.0337182028
   70      H       2.1909696781    -2.7801230805    -1.3987963306
   71      H       1.2270410898    -2.7907392213     0.0607703999
   72      C      -2.6670158504    -0.1646777661    -2.9900942165
   73      C      -3.2507229230    -1.4047158034    -3.2601647482
   74      C      -4.4732903094    -1.4911467494    -3.9269863158
   75      H      -4.8914512823    -2.4713794592    -4.1199834155
   76      C      -5.1304040865    -0.3374412505    -4.3319081972
   77      O      -6.3151276917    -0.3240852258    -4.9858500959
   78      C      -4.5602389889     0.9036972712    -4.0641033512
   79      H      -5.0787092361     1.8003841915    -4.3837591439
   80      C      -3.3450482346     0.9922962712    -3.4029380009
   81      C      -6.9112556455    -1.5525353772    -5.3117448004
   82      H      -7.8329916558    -1.3214324486    -5.8421524608
   83      H      -7.1611152946    -2.1431724990    -4.4243538817
   84      H      -6.2781639087    -2.1617199257    -5.9650766410
   85      C      -2.7455637018     2.3408609687    -3.1193795365
   86      H      -3.3522924529     3.1491386946    -3.5273909681
   87      H      -1.7441956364     2.4249647900    -3.5462776368
   88      H      -2.6447024918     2.5081288365    -2.0448814322
   89      C      -2.5641196822    -2.6711761727    -2.8261625298
   90      H      -3.1129996093    -3.5586572466    -3.1424966005
   91      H      -1.5561799184    -2.7401560761    -3.2399993797
   92      H      -2.4629249297    -2.7147606608    -1.7396197614
 ----------------------------------------------------------------

   22   -2123.7218573208      9.48E-09 Convergence criterion met
 Total energy in the final basis set = -2123.72185732

         TDDFT/TDA Excitation Energies
 ---------------------------------------------------

 Excited state   1: excitation energy (eV) =    0.4045
 Total energy for state  1:                 -2123.70699163 au
    <S**2>     :  2.0519
    Trans. Mom.:  0.4701 X  -0.0396 Y   0.2085 Z
    Strength   :     0.0026365844
    D(180) --> S(  1) amplitude =  0.9463 beta
    D(181) --> S(  1) amplitude = -0.2958 beta

 Excited state   2: excitation energy (eV) =    0.7573
 Total energy for state  2:                 -2123.69402759 au
    <S**2>     :  2.0496
    Trans. Mom.: -0.4538 X   0.0348 Y  -0.0752 Z
    Strength   :     0.0039481289
    D(173) --> S(  1) amplitude =  0.1513 beta
    D(179) --> S(  1) amplitude =  0.9760 beta

 Excited state   3: excitation energy (eV) =    0.8384
 Total energy for state  3:                 -2123.69104589 au
    <S**2>     :  2.0556
    Trans. Mom.:  0.5865 X  -0.0210 Y   0.3655 Z
    Strength   :     0.0098183860
    D(180) --> S(  1) amplitude =  0.3014 beta
    D(181) --> S(  1) amplitude =  0.9455 beta

 Excited state   4: excitation energy (eV) =    0.9139
 Total energy for state  4:                 -2123.68827100 au
    <S**2>     :  2.0469
    Trans. Mom.: -0.3319 X   0.0209 Y   0.1312 Z
    Strength   :     0.0028617504
    D(172) --> S(  1) amplitude = -0.1690 beta
    D(178) --> S(  1) amplitude =  0.9723 beta

 Excited state   5: excitation energy (eV) =    1.1892
 Total energy for state  5:                 -2123.67815425 au
    <S**2>     :  2.0515
    Trans. Mom.:  0.0397 X   0.0003 Y   0.1438 Z
    Strength   :     0.0006485428
    D(176) --> S(  1) amplitude =  0.2286 beta
    D(177) --> S(  1) amplitude =  0.9553 beta

 Excited state   6: excitation energy (eV) =    1.5231
 Total energy for state  6:                 -2123.66588325 au
    <S**2>     :  2.1196
    Trans. Mom.: -1.8754 X   0.1821 Y   3.5435 Z
    Strength   :     0.6010405788
    S(  2) --> V(  1) amplitude =  0.9503 alpha
    S(  2) --> V(  2) amplitude =  0.1829 alpha

 ---------------------------------------------------

                    Orbital Energies (a.u.)
 --------------------------------------------------------------

 Alpha MOs
 -- Occupied --
-19.613 -19.513 -10.592 -10.533 -10.517 -10.506 -10.500 -10.495
-10.494 -10.487 -10.476 -10.453 -10.453 -10.452 -10.451 -10.451
-10.450 -10.449 -10.449 -10.448 -10.448 -10.448 -10.447 -10.447
-10.447 -10.446 -10.446 -10.446 -10.446 -10.445 -10.445 -10.442
-10.442 -10.440 -10.439 -10.439 -10.438 -10.436 -10.435 -10.435
-10.435 -10.432 -10.431 -10.419 -10.418 -10.417 -10.415 -10.412
-10.410 -10.407 -10.407 -10.396  -6.909  -6.900  -1.272  -1.169
 -1.015  -1.000  -1.000  -0.944  -0.942  -0.937  -0.927  -0.920
 -0.919  -0.913  -0.890  -0.882  -0.856  -0.847  -0.842  -0.838
 -0.835  -0.833  -0.833  -0.809  -0.807  -0.803  -0.797  -0.796
 -0.786  -0.776  -0.750  -0.741  -0.721  -0.717  -0.713  -0.710
 -0.705  -0.693  -0.674  -0.666  -0.664  -0.649  -0.642  -0.641
 -0.630  -0.630  -0.627  -0.617  -0.605  -0.599  -0.580  -0.578
 -0.574  -0.570  -0.569  -0.563  -0.560  -0.557  -0.544  -0.538
 -0.530  -0.523  -0.522  -0.518  -0.517  -0.514  -0.511  -0.510
 -0.503  -0.493  -0.491  -0.487  -0.481  -0.480  -0.479  -0.477
 -0.476  -0.474  -0.474  -0.471  -0.470  -0.467  -0.465  -0.463
 -0.458  -0.457  -0.453  -0.451  -0.449  -0.445  -0.443  -0.441
 -0.431  -0.426  -0.425  -0.425  -0.418  -0.416  -0.414  -0.410
 -0.409  -0.406  -0.402  -0.387  -0.384  -0.384  -0.384  -0.382
 -0.379  -0.375  -0.362  -0.362  -0.358  -0.355  -0.346  -0.337
 -0.334  -0.330  -0.323  -0.310  -0.307  -0.302  -0.286  -0.284
 -0.272  -0.261  -0.254  -0.243  -0.241  -0.234  -0.154

 Beta MOs
 -- Occupied --
-19.608 -19.513 -10.589 -10.533 -10.516 -10.507 -10.495 -10.494
-10.493 -10.487 -10.476 -10.453 -10.453 -10.453 -10.451 -10.450
-10.450 -10.449 -10.449 -10.448 -10.448 -10.447 -10.447 -10.447
-10.447 -10.446 -10.446 -10.445 -10.445 -10.445 -10.445 -10.442
-10.442 -10.439 -10.439 -10.437 -10.436 -10.436 -10.435 -10.435
-10.434 -10.433 -10.432 -10.419 -10.417 -10.416 -10.415 -10.412
-10.410 -10.406 -10.406 -10.396  -6.906  -6.898  -1.261  -1.169
 -1.005  -1.000  -1.000  -0.943  -0.940  -0.937  -0.924  -0.919
 -0.919  -0.903  -0.888  -0.881  -0.855  -0.844  -0.840  -0.837
 -0.834  -0.832  -0.832  -0.805  -0.803  -0.799  -0.795  -0.790
 -0.784  -0.775  -0.749  -0.740  -0.718  -0.715  -0.711  -0.707
 -0.704  -0.689  -0.674  -0.664  -0.662  -0.647  -0.640  -0.639
 -0.630  -0.629  -0.627  -0.612  -0.594  -0.585  -0.579  -0.578
 -0.572  -0.570  -0.568  -0.561  -0.559  -0.554  -0.543  -0.536
 -0.527  -0.522  -0.522  -0.516  -0.512  -0.511  -0.508  -0.505
 -0.500  -0.491  -0.489  -0.486  -0.479  -0.478  -0.476  -0.475
 -0.474  -0.474  -0.470  -0.469  -0.467  -0.465  -0.464  -0.462
 -0.457  -0.457  -0.451  -0.451  -0.449  -0.443  -0.442  -0.439
 -0.428  -0.426  -0.424  -0.421  -0.415  -0.414  -0.408  -0.406
 -0.405  -0.399  -0.387  -0.386  -0.383  -0.382  -0.381  -0.381
 -0.378  -0.372  -0.360  -0.358  -0.354  -0.349  -0.344  -0.334
 -0.330  -0.321  -0.319  -0.302  -0.298  -0.283  -0.282  -0.261
 -0.261  -0.246  -0.240  -0.234  -0.233

          Ground-State Mulliken Net Atomic Charges

     Atom                 Charge (a.u.)    Spin (a.u.)
  --------------------------------------------------------
      1 C                    -0.126966       0.009494
      2 C                    -0.406886       0.020261
      3 H                     0.195637      -0.003734
      4 C                     0.076228       0.007827
      5 C                     0.071739       0.117273
      6 C                    -0.399491      -0.068663
      7 H                     0.232723       0.002972
      8 C                    -0.150372       0.081673
      9 C                     0.184234      -0.062665
     10 C                    -0.398686       0.090532
     11 H                     0.233825      -0.005302
     12 C                    -0.074604       0.023007
     13 C                     0.231200      -0.036414
     14 C                     0.185119      -0.035821
     15 C                    -0.400614       0.057633
     16 H                     0.218005      -0.003406
     17 C                    -0.219880      -0.040172
     18 H                     0.232775       0.002016
     19 C                    -0.352176       0.054066
     20 H                     0.231639      -0.003127
     21 C                    -0.218858      -0.054896
     22 H                     0.236877       0.002634
     23 C                    -0.353002       0.081941
     24 H                     0.231044      -0.004840
     25 B                     0.535851       0.372895
     26 C                    -0.134708       0.001071
     27 C                    -0.410656       0.019395
     28 H                     0.197801      -0.003202
     29 C                     0.074877       0.008157
     30 C                     0.072935       0.113486
     31 C                    -0.398973      -0.068573
     32 H                     0.232531       0.002961
     33 C                    -0.144102       0.079955
     34 C                     0.180575      -0.061295
     35 C                    -0.396041       0.087586
     36 H                     0.233725      -0.005120
     37 C                    -0.072721       0.022266
     38 C                     0.231561      -0.035129
     39 C                     0.182554      -0.035023
     40 C                    -0.400926       0.055852
     41 H                     0.219713      -0.003294
     42 C                    -0.219634      -0.053164
     43 H                     0.236649       0.002556
     44 C                    -0.352867       0.079022
     45 H                     0.230721      -0.004675
     46 C                    -0.219468      -0.038942
     47 H                     0.233031       0.001955
     48 C                    -0.352775       0.052228
     49 H                     0.231636      -0.003021
     50 B                     0.584160       0.253559
     51 C                    -0.119764       0.500825
     52 C                     0.064096      -0.078000
     53 C                    -0.368248       0.100961
     54 H                     0.280749      -0.006614
     55 C                     0.463952       0.223787
     56 O                    -0.395135       0.134589
     57 C                    -0.411636       0.023335
     58 H                     0.282147      -0.002824
     59 C                     0.104490       0.029981
     60 C                    -0.443633      -0.013622
     61 H                     0.281098      -0.000008
     62 H                     0.252223       0.008975
     63 H                     0.252235       0.008983
     64 C                    -0.754821      -0.000486
     65 H                     0.250755       0.001114
     66 H                     0.281483       0.002929
     67 H                     0.283185       0.004033
     68 C                    -0.754434       0.004997
     69 H                     0.251700       0.000874
     70 H                     0.279321      -0.001130
     71 H                     0.279853      -0.001377
     72 C                    -0.199432      -0.022913
     73 C                     0.043017       0.003404
     74 C                    -0.448584      -0.000721
     75 H                     0.233863       0.000282
     76 C                     0.389496       0.000891
     77 O                    -0.466391       0.000234
     78 C                    -0.396339      -0.000764
     79 H                     0.225281       0.000344
     80 C                     0.053475       0.003197
     81 C                    -0.415742      -0.000027
     82 H                     0.242766       0.000007
     83 H                     0.209498       0.000020
     84 H                     0.209977       0.000020
     85 C                    -0.759239       0.000645
     86 H                     0.235301       0.001333
     87 H                     0.244288      -0.000725
     88 H                     0.242778      -0.000604
     89 C                    -0.758511       0.000331
     90 H                     0.232196       0.001241
     91 H                     0.244672      -0.000757
     92 H                     0.243055      -0.000554
  --------------------------------------------------------
  Sum of atomic charges =    -0.000000

                    Cartesian Multipole Moments
 -----------------------------------------------------------------
    Charge (ESU x 10^10)
                -0.0000
    Dipole Moment (Debye)
         X      14.3768      Y      -2.0630      Z       8.8815
       Tot      17.0243
    Quadrupole Moments (Debye-Ang)
        XX    -217.6129     XY      11.7634     YY    -305.5463
        XZ      37.1260     YZ      11.6767     ZZ    -305.8878

 Total job time:  10169.25s(wall), 33608.15s(cpu)
        *  Thank you very much for using Q-Chem.  Have a nice day.  *
