 Q-Chem 5.0, Q-Chem, Inc., Pleasanton, CA (2017)
 Q-Chem 5.0.1 for Intel X86 EM64T Linux

User input:
--------------------------------------------------------------
$solvent
dielectric      2.38
dielectric_infi 2.25
$end

$rem
threads 8
jobtype	sp
method PBEh-3c
basis def2-mSVP
mem_static	1024
mem_total	14000
sym_ignore	true
cis_n_roots             2
cis_singlets            false
cis_triplets		true
rpa                     false
calc_soc 		true
cis_moments             true
cis_relaxed_density	true
solvent_method		pcm
$end

$pcm
StateSpecific   1
ChargeSeparation Excited
$end

$molecule
read ut1opt_tol.mol
$end

--------------------------------------------------------------

   21   -2123.7258931086      9.98E-09 Convergence criterion met
 Total energy in the final basis set = -2123.72589311
 Total job time:  8174.70s(wall), 24856.92s(cpu)
        *  Thank you very much for using Q-Chem.  Have a nice day.  *
 Q-Chem 5.0, Q-Chem, Inc., Pleasanton, CA (2017)
 Q-Chem 5.0.1 for Intel X86 EM64T Linux

User input:
--------------------------------------------------------------
$rem
threads 8
jobtype sp
method PBEh-3c
basis def2-mSVP
mem_static      1024
mem_total       14000
sym_ignore      true
cis_n_roots             6
cis_singlets            true
cis_triplets            true
rpa                     false
calc_soc                true
cis_moments             true
cis_relaxed_density     true
solvent_method          pcm
$end

$molecule
read
$end

$pcm
statespecific           Marcus
$end

$solvent
dielectric      2.38
dielectric_infi 2.25
$end

--------------------------------------------------------------

             Standard Nuclear Orientation (Angstroms)
    I     Atom           X                Y                Z
 ----------------------------------------------------------------
    1      C       0.0000000000     0.0000000000     0.0000000000
    2      C       0.0000000000     0.0000000000     1.4143040000
    3      H       0.9396343123     0.0000000000     1.9601399412
    4      C      -1.1792516975    -0.0325270139     2.1120634388
    5      C      -2.4232052679    -0.0750997211     1.4150899540
    6      C      -2.4439196595    -0.0505086898     0.0409940789
    7      H      -3.3887326498    -0.0891121587    -0.4917174424
    8      C      -1.2460745626    -0.0125263515    -0.6968487012
    9      C      -3.4912212520    -0.2101865234     2.4024224950
   10      C      -4.8546998444    -0.3682511829     2.3523238911
   11      H      -5.3937867697    -0.3834207336     1.4132014095
   12      C      -2.8624831217    -0.2233930139     3.6647290082
   13      C      -3.5361818227    -0.3859765540     4.8732979165
   14      C      -1.4628131255    -0.1154656451     3.5456179514
   15      C      -0.7072060750    -0.1531745696     4.6908466362
   16      H       0.3736193629    -0.0884270425     4.6651479408
   17      C      -1.3656191847    -0.2962522694     5.9342414536
   18      H      -0.7671587434    -0.3270473741     6.8360288475
   19      C      -2.7328848357    -0.4118384424     6.0386203388
   20      H      -3.1933437242    -0.5347121767     7.0116322748
   21      C      -5.5640156241    -0.5305795608     3.5653968000
   22      H      -6.6381829620    -0.6593677058     3.5209500522
   23      C      -4.9422295015    -0.5394005533     4.7928142587
   24      H      -5.5261213530    -0.6756784263     5.6951373922
   25      B       1.2993877471    -0.0807278204    -0.7979480212
   26      C       1.2980726707    -0.0976903161    -2.3241231937
   27      C       2.4960592651    -0.2070933556    -3.0679200088
   28      H       3.4521484564    -0.2249692083    -2.5516483322
   29      C       2.4613994946    -0.3328435291    -4.4341433318
   30      C       1.2085076052    -0.3548530770    -5.1154826664
   31      C       0.0353561382    -0.2201492551    -4.4119070137
   32      H      -0.9183130470    -0.2521460549    -4.9289681182
   33      C       0.0456416144    -0.0947334544    -3.0110696033
   34      C       1.4619755704    -0.6382895480    -6.5226947416
   35      C       0.6740319730    -0.8633521868    -7.6238481946
   36      H      -0.4061074138    -0.7997212542    -7.5751352679
   37      C       2.8597977976    -0.7625279309    -6.6575899043
   38      C       3.5013382388    -1.1089054401    -7.8436243375
   39      C       3.5140436163    -0.5739516384    -5.4230085166
   40      C       4.8790624742    -0.7084814074    -5.3844501820
   41      H       5.4397099139    -0.5888022628    -4.4654502144
   42      C       1.3009610597    -1.2068068006    -8.8439434399
   43      H       0.6781820207    -1.3891421607    -9.7106439019
   44      C       2.6661254305    -1.3296236060    -8.9666345722
   45      H       3.1005511225    -1.6070938138    -9.9193720307
   46      C       5.5616963654    -1.0324349069    -6.5803400609
   47      H       6.6384355360    -1.1405743281    -6.5464958096
   48      C       4.9099847141    -1.2345116681    -7.7757003991
   49      H       5.4744759236    -1.5003908864    -8.6612211354
   50      B      -1.2822730102    -0.0656963663    -2.2329045372
   51      C       2.6324311638    -0.3309927331    -0.0039830117
   52      C       3.0575615604    -1.6768393067     0.2599340477
   53      C       4.1980130087    -1.8927546194     0.9745134073
   54      H       4.5457006852    -2.8953110834     1.1923643726
   55      C       4.9617287692    -0.7987922628     1.4634721582
   56      O       6.0286774060    -1.1307120962     2.1377919108
   57      C       4.5600364764     0.5319555800     1.2178765077
   58      H       5.1407666644     1.3643820336     1.5915238187
   59      C       3.4194133047     0.7639618922     0.4982121891
   60      C       6.8880386201    -0.1423079541     2.7033410528
   61      H       7.6759850685    -0.6906713027     3.2092255319
   62      H       6.3525443530     0.4732897717     3.4263054142
   63      H       7.3246302521     0.4865437959     1.9271844226
   64      C       2.9522479657     2.1511492677     0.2197130483
   65      H       3.6346267389     2.9009701444     0.6154441584
   66      H       2.8409213331     2.3078667404    -0.8549449620
   67      H       1.9633391670     2.3123419522     0.6541667048
   68      C       2.2395386392    -2.8212259621    -0.2434100458
   69      H       2.6695868241    -3.7780803250     0.0480775467
   70      H       2.1606181413    -2.7937552474    -1.3309191842
   71      H       1.2211126712    -2.7666899608     0.1444312515
   72      C      -2.6648848404    -0.1559572374    -2.9925664637
   73      C      -3.2509275943    -1.3941551679    -3.2666536262
   74      C      -4.4724453707    -1.4765969074    -3.9361704635
   75      H      -4.8923134127    -2.4554772669    -4.1323991662
   76      C      -5.1263570902    -0.3205260366    -4.3399084945
   77      O      -6.3094646324    -0.3031824573    -4.9966105162
   78      C      -4.5541197131     0.9188413309    -4.0678148868
   79      H      -5.0697499447     1.8176787187    -4.3862667211
   80      C      -3.3399053392     1.0033212413    -3.4039279723
   81      C      -6.9078584489    -1.5301989263    -5.3268144905
   82      H      -7.8281091743    -1.2957836069    -5.8582522234
   83      H      -7.1602672607    -2.1222422615    -4.4412270129
   84      H      -6.2746080291    -2.1387100416    -5.9804307040
   85      C      -2.7384522050     2.3502166519    -3.1163884247
   86      H      -3.3432348018     3.1605221046    -3.5232817164
   87      H      -1.7363277104     2.4335623324    -3.5416750617
   88      H      -2.6386519632     2.5147829066    -2.0413701477
   89      C      -2.5680310168    -2.6632376532    -2.8343168284
   90      H      -3.1183613365    -3.5487145984    -3.1536912556
   91      H      -1.5594158752    -2.7336113177    -3.2462639237
   92      H      -2.4687649177    -2.7094861863    -1.7476992427
 ----------------------------------------------------------------

   22   -2123.7252919216      8.82E-09 Convergence criterion met
 Total energy in the final basis set = -2123.72529192

         TDDFT/TDA Excitation Energies
 ---------------------------------------------------

 Excited state   1: excitation energy (eV) =    0.4640
 Total energy for state  1:                 -2123.70824018 au
    <S**2>     :  2.0523
    Trans. Mom.:  0.3677 X  -0.0307 Y   0.1756 Z
    Strength   :     0.0018979659
    D(180) --> S(  1) amplitude =  0.7236 beta
    D(181) --> S(  1) amplitude = -0.6775 beta

 Excited state   2: excitation energy (eV) =    0.8120
 Total energy for state  2:                 -2123.69545048 au
    <S**2>     :  2.0498
    Trans. Mom.: -0.3798 X   0.0287 Y  -0.0966 Z
    Strength   :     0.0030719336
    D(173) --> S(  1) amplitude =  0.1508 beta
    D(179) --> S(  1) amplitude =  0.9772 beta

 Excited state   3: excitation energy (eV) =    0.9046
 Total energy for state  3:                 -2123.69204778 au
    <S**2>     :  2.0559
    Trans. Mom.:  0.5564 X  -0.0189 Y   0.3394 Z
    Strength   :     0.0094221615
    D(180) --> S(  1) amplitude =  0.6829 beta
    D(181) --> S(  1) amplitude =  0.7205 beta

 Excited state   4: excitation energy (eV) =    0.9693
 Total energy for state  4:                 -2123.68967027 au
    <S**2>     :  2.0471
    Trans. Mom.: -0.2506 X   0.0154 Y   0.1217 Z
    Strength   :     0.0018485262
    D(172) --> S(  1) amplitude = -0.1683 beta
    D(178) --> S(  1) amplitude =  0.9748 beta

 Excited state   5: excitation energy (eV) =    1.2502
 Total energy for state  5:                 -2123.67934761 au
    <S**2>     :  2.0518
    Trans. Mom.: -0.0243 X   0.0055 Y   0.1865 Z
    Strength   :     0.0010849154
    D(177) --> S(  1) amplitude =  0.9744 beta

 Excited state   6: excitation energy (eV) =    1.5131
 Total energy for state  6:                 -2123.66968682 au
    <S**2>     :  2.1219
    Trans. Mom.:  1.9917 X  -0.1891 Y  -3.6506 Z
    Strength   :     0.6424177136
    S(  2) --> V(  1) amplitude = -0.9626 alpha

 ---------------------------------------------------

                    Orbital Energies (a.u.)
 --------------------------------------------------------------

 Alpha MOs
 -- Occupied --
-19.613 -19.514 -10.592 -10.530 -10.516 -10.506 -10.500 -10.495
-10.494 -10.489 -10.476 -10.453 -10.453 -10.452 -10.452 -10.451
-10.450 -10.450 -10.449 -10.449 -10.448 -10.448 -10.448 -10.447
-10.447 -10.447 -10.447 -10.446 -10.446 -10.446 -10.445 -10.443
-10.443 -10.440 -10.440 -10.440 -10.439 -10.437 -10.436 -10.436
-10.436 -10.433 -10.432 -10.420 -10.418 -10.418 -10.417 -10.413
-10.411 -10.408 -10.408 -10.397  -6.910  -6.901  -1.272  -1.170
 -1.015  -1.001  -1.001  -0.945  -0.942  -0.938  -0.926  -0.920
 -0.920  -0.912  -0.890  -0.883  -0.857  -0.847  -0.842  -0.839
 -0.836  -0.834  -0.834  -0.809  -0.806  -0.803  -0.797  -0.796
 -0.787  -0.776  -0.751  -0.742  -0.721  -0.718  -0.713  -0.710
 -0.705  -0.692  -0.675  -0.667  -0.665  -0.650  -0.642  -0.641
 -0.631  -0.630  -0.628  -0.616  -0.604  -0.599  -0.581  -0.579
 -0.575  -0.571  -0.570  -0.563  -0.561  -0.558  -0.545  -0.537
 -0.530  -0.524  -0.523  -0.517  -0.517  -0.513  -0.511  -0.510
 -0.503  -0.493  -0.490  -0.488  -0.481  -0.480  -0.479  -0.477
 -0.476  -0.475  -0.474  -0.472  -0.471  -0.468  -0.466  -0.463
 -0.458  -0.458  -0.453  -0.451  -0.450  -0.445  -0.444  -0.441
 -0.432  -0.427  -0.426  -0.425  -0.419  -0.417  -0.414  -0.410
 -0.410  -0.407  -0.402  -0.388  -0.385  -0.385  -0.385  -0.383
 -0.380  -0.376  -0.363  -0.362  -0.359  -0.356  -0.347  -0.337
 -0.334  -0.331  -0.324  -0.311  -0.307  -0.303  -0.287  -0.285
 -0.273  -0.263  -0.255  -0.244  -0.242  -0.235  -0.154

 Beta MOs
 -- Occupied --
-19.607 -19.514 -10.588 -10.531 -10.515 -10.506 -10.494 -10.493
-10.492 -10.489 -10.476 -10.454 -10.453 -10.452 -10.451 -10.451
-10.450 -10.450 -10.449 -10.449 -10.449 -10.448 -10.448 -10.448
-10.447 -10.447 -10.446 -10.446 -10.446 -10.445 -10.445 -10.443
-10.443 -10.440 -10.440 -10.438 -10.438 -10.437 -10.436 -10.436
-10.435 -10.434 -10.433 -10.420 -10.417 -10.417 -10.417 -10.413
-10.411 -10.407 -10.407 -10.397  -6.907  -6.899  -1.261  -1.170
 -1.005  -1.001  -1.001  -0.944  -0.941  -0.938  -0.924  -0.920
 -0.920  -0.903  -0.889  -0.882  -0.857  -0.844  -0.840  -0.838
 -0.835  -0.833  -0.833  -0.804  -0.803  -0.799  -0.796  -0.789
 -0.785  -0.776  -0.751  -0.741  -0.718  -0.715  -0.712  -0.706
 -0.705  -0.688  -0.674  -0.664  -0.662  -0.648  -0.641  -0.638
 -0.631  -0.630  -0.628  -0.612  -0.594  -0.583  -0.579  -0.578
 -0.573  -0.571  -0.569  -0.562  -0.559  -0.555  -0.544  -0.534
 -0.528  -0.523  -0.523  -0.515  -0.513  -0.512  -0.508  -0.504
 -0.501  -0.492  -0.488  -0.486  -0.480  -0.478  -0.477  -0.475
 -0.475  -0.474  -0.470  -0.470  -0.467  -0.465  -0.464  -0.461
 -0.458  -0.458  -0.452  -0.451  -0.450  -0.443  -0.442  -0.440
 -0.428  -0.426  -0.425  -0.421  -0.416  -0.415  -0.409  -0.407
 -0.406  -0.400  -0.387  -0.386  -0.384  -0.383  -0.382  -0.382
 -0.379  -0.373  -0.361  -0.358  -0.354  -0.350  -0.345  -0.335
 -0.330  -0.322  -0.320  -0.303  -0.299  -0.283  -0.283  -0.263
 -0.262  -0.247  -0.241  -0.235  -0.235

          Ground-State Mulliken Net Atomic Charges

     Atom                 Charge (a.u.)    Spin (a.u.)
  --------------------------------------------------------
      1 C                    -0.129174       0.009440
      2 C                    -0.407486       0.017331
      3 H                     0.198954      -0.003601
      4 C                     0.073879       0.010823
      5 C                     0.070277       0.113733
      6 C                    -0.400780      -0.067262
      7 H                     0.233128       0.002901
      8 C                    -0.149592       0.079619
      9 C                     0.182289      -0.061790
     10 C                    -0.400131       0.089085
     11 H                     0.236278      -0.005208
     12 C                    -0.074875       0.022673
     13 C                     0.228083      -0.036103
     14 C                     0.182979      -0.036382
     15 C                    -0.401924       0.058218
     16 H                     0.221821      -0.003432
     17 C                    -0.222599      -0.040308
     18 H                     0.235925       0.002015
     19 C                    -0.353572       0.054445
     20 H                     0.234813      -0.003145
     21 C                    -0.221535      -0.054124
     22 H                     0.239666       0.002595
     23 C                    -0.354398       0.080393
     24 H                     0.234207      -0.004738
     25 B                     0.538573       0.369599
     26 C                    -0.134695       0.003108
     27 C                    -0.410494       0.017468
     28 H                     0.200473      -0.003132
     29 C                     0.072955       0.010387
     30 C                     0.071026       0.112411
     31 C                    -0.399759      -0.067864
     32 H                     0.233112       0.002918
     33 C                    -0.144938       0.078983
     34 C                     0.178716      -0.061355
     35 C                    -0.397397       0.087876
     36 H                     0.236259      -0.005129
     37 C                    -0.073136       0.022409
     38 C                     0.228564      -0.035492
     39 C                     0.180527      -0.035889
     40 C                    -0.402191       0.057111
     41 H                     0.223167      -0.003362
     42 C                    -0.222265      -0.053422
     43 H                     0.239499       0.002564
     44 C                    -0.354310       0.079309
     45 H                     0.233923      -0.004680
     46 C                    -0.222160      -0.039634
     47 H                     0.236079       0.001982
     48 C                    -0.354214       0.053336
     49 H                     0.234815      -0.003080
     50 B                     0.580465       0.256009
     51 C                    -0.121416       0.505960
     52 C                     0.064193      -0.082236
     53 C                    -0.369374       0.106112
     54 H                     0.283210      -0.006873
     55 C                     0.464783       0.221830
     56 O                    -0.394393       0.137440
     57 C                    -0.412686       0.028819
     58 H                     0.286103      -0.003096
     59 C                     0.104049       0.022865
     60 C                    -0.445452      -0.013803
     61 H                     0.282457      -0.000004
     62 H                     0.254425       0.009095
     63 H                     0.254491       0.009112
     64 C                    -0.756397      -0.000179
     65 H                     0.253140       0.001062
     66 H                     0.281226       0.002822
     67 H                     0.282366       0.003608
     68 C                    -0.755803       0.005345
     69 H                     0.253851       0.000889
     70 H                     0.278469      -0.001330
     71 H                     0.279283      -0.001518
     72 C                    -0.198531      -0.023185
     73 C                     0.041334       0.003363
     74 C                    -0.450510      -0.000700
     75 H                     0.237091       0.000283
     76 C                     0.388211       0.000805
     77 O                    -0.467882       0.000196
     78 C                    -0.399022      -0.000771
     79 H                     0.227061       0.000345
     80 C                     0.051662       0.003205
     81 C                    -0.417847      -0.000023
     82 H                     0.244184       0.000007
     83 H                     0.211079       0.000017
     84 H                     0.211502       0.000017
     85 C                    -0.760162       0.000653
     86 H                     0.236787       0.001346
     87 H                     0.244282      -0.000737
     88 H                     0.242921      -0.000610
     89 C                    -0.759389       0.000336
     90 H                     0.233985       0.001245
     91 H                     0.244740      -0.000763
     92 H                     0.243153      -0.000562
  --------------------------------------------------------
  Sum of atomic charges =    -0.000000

                    Cartesian Multipole Moments
 -----------------------------------------------------------------
    Charge (ESU x 10^10)
                -0.0000
    Dipole Moment (Debye)
         X      14.8342      Y      -2.0197      Z       9.0019
       Tot      17.4691
    Quadrupole Moments (Debye-Ang)
        XX    -214.1292     XY      12.7312     YY    -305.2684
        XZ      37.0423     YZ      11.8805     ZZ    -305.6910

 Total job time:  9852.16s(wall), 33486.17s(cpu)
        *  Thank you very much for using Q-Chem.  Have a nice day.  *
