 Q-Chem 5.0, Q-Chem, Inc., Pleasanton, CA (2017)
 Q-Chem 5.0.1 for Intel X86 EM64T Linux

User input:
--------------------------------------------------------------
$solvent
dielectric      4.33
dielectric_infi 1.83
$end

$rem
threads 8
jobtype	sp
method PBEh-3c
basis def2-mSVP
mem_static	1024
mem_total	14000
sym_ignore	true
cis_n_roots             2
cis_singlets            false
cis_triplets		true
rpa                     false
calc_soc 		true
cis_moments             true
cis_relaxed_density	true
solvent_method		pcm
$end

$pcm
StateSpecific   1
ChargeSeparation Excited
$end

$molecule
read ut1opt_eth.mol
$end

--------------------------------------------------------------

   14   -2123.8142164124      9.06E-09 Convergence criterion met
 Total energy in the final basis set = -2123.81421641

         TDDFT/TDA Excitation Energies
 ---------------------------------------------------

 Excited state   1: excitation energy (eV) =    2.2213
 Total energy for state  1:                 -2123.73258589 au
    Multiplicity: Triplet
    Trans. Mom.:  0.0000 X   0.0000 Y   0.0000 Z
    Strength   :     0.0000000000
    D(175) --> V(  2) amplitude =  0.2416
    D(179) --> V(  1) amplitude =  0.7885
    D(180) --> V(  1) amplitude =  0.4727

 Excited state   2: excitation energy (eV) =    2.3776
 Total energy for state  2:                 -2123.72684197 au
    Multiplicity: Triplet
    Trans. Mom.:  0.0000 X   0.0000 Y   0.0000 Z
    Strength   :     0.0000000000
    D(182) --> V(  1) amplitude =  0.9649

 ---------------------------------------------------

                    Orbital Energies (a.u.)
 --------------------------------------------------------------

 Alpha MOs
 -- Occupied --
-19.528 -19.527 -10.506 -10.504 -10.487 -10.483 -10.468 -10.467
-10.466 -10.466 -10.466 -10.465 -10.465 -10.465 -10.465 -10.465
-10.465 -10.464 -10.462 -10.462 -10.462 -10.462 -10.462 -10.462
-10.459 -10.459 -10.459 -10.459 -10.458 -10.457 -10.455 -10.455
-10.455 -10.454 -10.453 -10.451 -10.450 -10.450 -10.437 -10.437
-10.437 -10.436 -10.435 -10.432 -10.431 -10.428 -10.427 -10.426
-10.425 -10.424 -10.419 -10.415  -6.949  -6.942  -1.194  -1.181
 -1.017  -1.017  -0.963  -0.960  -0.955  -0.947  -0.934  -0.934
 -0.909  -0.900  -0.875  -0.873  -0.861  -0.857  -0.853  -0.849
 -0.847  -0.847  -0.824  -0.814  -0.813  -0.805  -0.792  -0.788
 -0.767  -0.764  -0.756  -0.753  -0.736  -0.728  -0.727  -0.721
 -0.690  -0.685  -0.680  -0.667  -0.661  -0.650  -0.646  -0.646
 -0.643  -0.639  -0.596  -0.593  -0.591  -0.588  -0.584  -0.583
 -0.582  -0.576  -0.576  -0.560  -0.559  -0.544  -0.544  -0.538
 -0.536  -0.532  -0.527  -0.523  -0.514  -0.508  -0.504  -0.498
 -0.495  -0.491  -0.490  -0.488  -0.487  -0.486  -0.485  -0.481
 -0.479  -0.476  -0.473  -0.471  -0.469  -0.466  -0.466  -0.465
 -0.463  -0.462  -0.458  -0.455  -0.445  -0.443  -0.441  -0.441
 -0.435  -0.428  -0.427  -0.425  -0.425  -0.423  -0.419  -0.412
 -0.401  -0.398  -0.398  -0.397  -0.397  -0.394  -0.392  -0.392
 -0.381  -0.377  -0.372  -0.365  -0.365  -0.362  -0.355  -0.353
 -0.344  -0.338  -0.323  -0.317  -0.297  -0.296  -0.284  -0.282
 -0.278  -0.264  -0.259  -0.257  -0.252  -0.236

          Ground-State Mulliken Net Atomic Charges

     Atom                 Charge (a.u.)
  ----------------------------------------
      1 C                    -0.152773
      2 C                    -0.392184
      3 H                     0.246970
      4 C                     0.076787
      5 C                     0.100912
      6 C                    -0.399069
      7 H                     0.246185
      8 C                    -0.151883
      9 C                     0.178638
     10 C                    -0.386589
     11 H                     0.250285
     12 C                    -0.067646
     13 C                     0.221769
     14 C                     0.182777
     15 C                    -0.396350
     16 H                     0.250323
     17 C                    -0.231770
     18 H                     0.255191
     19 C                    -0.343310
     20 H                     0.252319
     21 C                    -0.348385
     22 H                     0.252654
     23 C                    -0.228703
     24 H                     0.254737
     25 B                     0.674618
     26 C                    -0.151424
     27 C                    -0.397999
     28 H                     0.245879
     29 C                     0.100003
     30 C                     0.079076
     31 C                    -0.394722
     32 H                     0.245846
     33 C                    -0.152832
     34 C                     0.177715
     35 C                    -0.386220
     36 H                     0.250439
     37 C                    -0.067117
     38 C                     0.223647
     39 C                     0.181407
     40 C                    -0.395344
     41 H                     0.250428
     42 C                    -0.231763
     43 H                     0.255206
     44 C                    -0.344333
     45 H                     0.252395
     46 C                    -0.348870
     47 H                     0.252536
     48 C                    -0.228828
     49 H                     0.254834
     50 B                     0.688107
     51 C                    -0.258623
     52 C                     0.076489
     53 C                    -0.422194
     54 H                     0.235020
     55 C                     0.388560
     56 O                    -0.453568
     57 C                    -0.472017
     58 H                     0.249109
     59 C                     0.073897
     60 C                    -0.422468
     61 H                     0.256552
     62 H                     0.225999
     63 H                     0.226101
     64 C                    -0.771276
     65 H                     0.248240
     66 H                     0.248583
     67 H                     0.248901
     68 C                    -0.769928
     69 H                     0.249743
     70 H                     0.247520
     71 H                     0.247362
     72 C                    -0.222278
     73 C                     0.047928
     74 C                    -0.450714
     75 H                     0.253185
     76 C                     0.390578
     77 O                    -0.469721
     78 C                    -0.403308
     79 H                     0.239483
     80 C                     0.047902
     81 C                    -0.426347
     82 H                     0.251530
     83 H                     0.218143
     84 H                     0.217942
     85 C                    -0.769963
     86 H                     0.251271
     87 H                     0.246963
     88 H                     0.246973
     89 C                    -0.770172
     90 H                     0.249351
     91 H                     0.247949
     92 H                     0.247733
  ----------------------------------------
  Sum of atomic charges =    -0.000000

                    Cartesian Multipole Moments
 -----------------------------------------------------------------
    Charge (ESU x 10^10)
                -0.0000
    Dipole Moment (Debye)
         X      -0.4321      Y      -0.0301      Z      -0.2784
       Tot       0.5149
    Quadrupole Moments (Debye-Ang)
        XX    -250.3330     XY     -22.2147     YY    -307.8518
        XZ      -1.6455     YZ     -12.6030     ZZ    -244.5783

 Total job time:  5482.17s(wall), 14407.48s(cpu)
        *  Thank you very much for using Q-Chem.  Have a nice day.  *
 Q-Chem 5.0, Q-Chem, Inc., Pleasanton, CA (2017)
 Q-Chem 5.0.1 for Intel X86 EM64T Linux

User input:
--------------------------------------------------------------
$rem
threads 8
jobtype sp
method PBEh-3c
basis def2-mSVP
mem_static      1024
mem_total       14000
sym_ignore      true
cis_n_roots             6
cis_singlets            true
cis_triplets            true
rpa                     false
calc_soc                true
cis_moments             true
cis_relaxed_density     true
solvent_method          pcm
$end

$molecule
read
$end

$pcm
statespecific           Marcus
$end

$solvent
dielectric      4.33
dielectric_infi 1.83
$end

--------------------------------------------------------------

             Standard Nuclear Orientation (Angstroms)
    I     Atom           X                Y                Z
 ----------------------------------------------------------------
    1      C       0.0000000000     0.0000000000     0.0000000000
    2      C       0.0000000000     0.0000000000     1.4053240000
    3      H       0.9462432973     0.0000000000     1.9371249961
    4      C      -1.1796139349    -0.0033257563     2.1064542938
    5      C      -2.4328042254    -0.0098174152     1.4243283321
    6      C      -2.4568473253    -0.0073996944     0.0509038923
    7      H      -3.4123549526    -0.0125505164    -0.4665122790
    8      C      -1.2506611256    -0.0025070745    -0.6920646824
    9      C      -1.4340052059    -0.0080452677     3.5404112992
   10      C      -0.6468608315    -0.0069577170     4.6662752491
   11      H       0.4346977203     0.0026600616     4.6067689843
   12      C      -2.8340354099    -0.0207870702     3.6929669124
   13      C      -3.4786448585    -0.0359013383     4.9283033997
   14      C      -3.4889939591    -0.0231841508     2.4436339544
   15      C      -4.8614653690    -0.0428263491     2.4399135147
   16      H      -5.4306881251    -0.0494084672     1.5186237588
   17      C      -1.2769582427    -0.0200479372     5.9322407091
   18      H      -0.6554459180    -0.0191999874     6.8189768556
   19      C      -2.6458180497    -0.0347871461     6.0755021368
   20      H      -3.0865647947    -0.0456999385     7.0650885523
   21      C      -4.8929882678    -0.0542074602     4.8909881439
   22      H      -5.4607994314    -0.0674088713     5.8135461433
   23      C      -5.5458070995    -0.0574700533     3.6790962125
   24      H      -6.6282427510    -0.0731546100     3.6685141393
   25      B      -1.2472500348    -0.0018413600    -2.2198677294
   26      C       0.0566691510    -0.0107998939    -3.0167613516
   27      C       0.0673053938    -0.0311469019    -4.4330322658
   28      H      -0.8705795944    -0.0422039165    -4.9817868624
   29      C       1.2546322797    -0.0421887327    -5.1245651992
   30      C       2.4881525837    -0.0231175716    -4.4079264608
   31      C       2.4990686324    -0.0042191970    -3.0346208667
   32      H       3.4430845197     0.0062221426    -2.4988135239
   33      C       1.2975562662    -0.0020923703    -2.3051322890
   34      C       3.5805235650    -0.0386866807    -5.3699581508
   35      C       4.9507923183    -0.0307848986    -5.2796676605
   36      H       5.4600074787    -0.0027250407    -4.3239449200
   37      C       2.9841536333    -0.0739535683    -6.6455843194
   38      C       3.7037646142    -0.1068666331    -7.8367482948
   39      C       1.5763300318    -0.0776768822    -6.5541591890
   40      C       0.8566941960    -0.1175840834    -7.7214121215
   41      H      -0.2262917403    -0.1255884836    -7.7254382629
   42      C       5.7051247406    -0.0611130810    -6.4748747607
   43      H       6.7856253692    -0.0553083400    -6.4044319289
   44      C       5.1166713247    -0.0991359685    -7.7189941475
   45      H       5.7349750997    -0.1233211692    -8.6080951453
   46      C       2.9337436622    -0.1466096639    -9.0236270595
   47      H       3.4244733223    -0.1743457200    -9.9889037121
   48      C       1.5589605829    -0.1516897434    -8.9499738907
   49      H       0.9868132823    -0.1843572311    -9.8683818357
   50      B       1.3315440583     0.0014061496    -0.7675620432
   51      C      -2.6210898459     0.0242613668    -2.9820384598
   52      C      -3.2831799234    -1.1964355829    -3.3327300640
   53      C      -4.4565931795    -1.1507734311    -4.0238415632
   54      H      -4.9789027168    -2.0547403486    -4.3125157788
   55      C      -5.0273141848     0.1013054318    -4.3872109236
   56      O      -6.1475340050     0.0248494810    -5.0465310388
   57      C      -4.3965607974     1.3160063605    -4.0357723366
   58      H      -4.8340888475     2.2667394821    -4.3088414580
   59      C      -3.2194181308     1.2824230072    -3.3412009083
   60      C      -6.8396544349     1.2004225896    -5.4750264612
   61      H      -7.7331855214     0.8484325272    -5.9795929667
   62      H      -7.1200849573     1.8179798873    -4.6221403494
   63      H      -6.2300077841     1.7763336959    -6.1709945139
   64      C      -2.5251066756     2.5403183204    -2.9429901194
   65      H      -3.0712573578     3.4258480971    -3.2623596065
   66      H      -2.3984168081     2.5785943880    -1.8593489305
   67      H      -1.5212077410     2.5750430772    -3.3706393898
   68      C      -2.6622471967    -2.4958990769    -2.9354651740
   69      H      -3.2629222093    -3.3453175091    -3.2558139106
   70      H      -2.5379678957    -2.5474942484    -1.8525214212
   71      H      -1.6648921391    -2.5938736262    -3.3677782438
   72      C       2.7038779333    -0.0052486383     0.0223271994
   73      C       3.3110795541    -1.2076818688     0.3942844204
   74      C       4.5057226781    -1.2195344177     1.1156027670
   75      H       4.9407345757    -2.1742000393     1.3840413506
   76      C       5.1140343569    -0.0256674815     1.4780317337
   77      O       6.2699922500     0.0630380223     2.1753790840
   78      C       4.5194206057     1.1794779244     1.1143976337
   79      H       4.9965382002     2.1100724166     1.4009482034
   80      C       3.3322260737     1.1932802023     0.3975869555
   81      C       6.9152414984    -1.1283766614     2.5553408837
   82      H       7.8168611636    -0.8375642511     3.0905998848
   83      H       7.2035347528    -1.7368733166     1.6926091158
   84      H       6.2983675145    -1.7403338720     3.2206957999
   85      C       2.7075481468     2.5092371049     0.0282338465
   86      H       3.3146858308     3.3528830601     0.3565527394
   87      H       2.5725176154     2.5942244207    -1.0518130402
   88      H       1.7182617004     2.6151352889     0.4786300718
   89      C       2.6703560760    -2.5181547576     0.0275103212
   90      H       3.2740569243    -3.3682443980     0.3463794285
   91      H       2.5229421009    -2.5998443484    -1.0510707542
   92      H       1.6856394566    -2.6185281207     0.4887357753
 ----------------------------------------------------------------
