 Q-Chem 5.0, Q-Chem, Inc., Pleasanton, CA (2017)
 Q-Chem 5.0.1 for Intel X86 EM64T Linux

User input:
--------------------------------------------------------------
$solvent
dielectric      8.93
dielectric_infi 2.03
$end

$rem
threads 8
jobtype	sp
method PBEh-3c
basis def2-mSVP
mem_static	1024
mem_total	14000
sym_ignore	true
cis_n_roots             2
cis_singlets            false
cis_triplets		true
rpa                     false
calc_soc 		true
cis_moments             true
cis_relaxed_density	true
solvent_method		pcm
$end

$pcm
StateSpecific   1
ChargeSeparation Excited
$end

$molecule
read ut1opt_dcm.mol
$end

--------------------------------------------------------------

   14   -2123.8166249786      8.74E-09 Convergence criterion met
 Total energy in the final basis set = -2123.81662498
 Total job time:  5339.04s(wall), 13820.24s(cpu)
        *  Thank you very much for using Q-Chem.  Have a nice day.  *
 Q-Chem 5.0, Q-Chem, Inc., Pleasanton, CA (2017)
 Q-Chem 5.0.1 for Intel X86 EM64T Linux

User input:
--------------------------------------------------------------
$rem
threads 8
jobtype sp
method PBEh-3c
basis def2-mSVP
mem_static      1024
mem_total       14000
sym_ignore      true
cis_n_roots             6
cis_singlets            true
cis_triplets            true
rpa                     false
calc_soc                true
cis_moments             true
cis_relaxed_density     true
solvent_method          pcm
$end

$molecule
read
$end

$pcm
statespecific           Marcus
$end

$solvent
dielectric      8.93
dielectric_infi 2.03
$end

--------------------------------------------------------------

             Standard Nuclear Orientation (Angstroms)
    I     Atom           X                Y                Z
 ----------------------------------------------------------------
    1      C       0.0000000000     0.0000000000     0.0000000000
    2      C       0.0000000000     0.0000000000     1.4137780000
    3      H       0.9395449205     0.0000000000     1.9589353877
    4      C      -1.1803936071    -0.0333899662     2.1115996645
    5      C      -2.4251961777    -0.0767105468     1.4140568497
    6      C      -2.4458513693    -0.0502308328     0.0400712047
    7      H      -3.3919992755    -0.0893170895    -0.4904657149
    8      C      -1.2467580298    -0.0093070698    -0.6983270190
    9      C      -3.4937681905    -0.2136009282     2.4018874475
   10      C      -4.8577168588    -0.3734604441     2.3519338043
   11      H      -5.3978812606    -0.3892907643     1.4132638632
   12      C      -2.8638752388    -0.2265164031     3.6640178962
   13      C      -3.5372731008    -0.3904385321     4.8733159716
   14      C      -1.4637294798    -0.1174472180     3.5448897711
   15      C      -0.7066951909    -0.1551567227     4.6900701973
   16      H       0.3740505564    -0.0897552689     4.6639437926
   17      C      -1.3655648386    -0.2994234462     5.9338638858
   18      H      -0.7663516762    -0.3303398840     6.8351135013
   19      C      -2.7334037985    -0.4162192344     6.0391265637
   20      H      -3.1937358139    -0.5401364941     7.0120873492
   21      C      -5.5665348849    -0.5370804232     3.5658621473
   22      H      -6.6405626254    -0.6674187311     3.5218317601
   23      C      -4.9436717611    -0.5455508272     4.7936016393
   24      H      -5.5265658098    -0.6831045727     5.6964241891
   25      B       1.3043406417    -0.0786068190    -0.7921792732
   26      C       1.3007526720    -0.0885961627    -2.3199464027
   27      C       2.5003652344    -0.1907633379    -3.0618774599
   28      H       3.4551046129    -0.2109776138    -2.5440340834
   29      C       2.4687486260    -0.3068201923    -4.4299335523
   30      C       1.2165015967    -0.3279327801    -5.1148251808
   31      C       0.0414245516    -0.2012310141    -4.4128335669
   32      H      -0.9097975942    -0.2328709683    -4.9346458318
   33      C       0.0480738812    -0.0831231523    -3.0100174416
   34      C       1.4742037922    -0.5998555742    -6.5241871093
   35      C       0.6892863547    -0.8187998749    -7.6296818672
   36      H      -0.3913760260    -0.7592551265    -7.5841483303
   37      C       2.8732292590    -0.7183909389    -6.6558729119
   38      C       3.5193027235    -1.0534444112    -7.8434748534
   39      C       3.5242694896    -0.5375922411    -5.4178146907
   40      C       4.8903542198    -0.6684684131    -5.3759843175
   41      H       5.4480244150    -0.5550246132    -4.4544021347
   42      C       1.3210099846    -1.1506628263    -8.8511384270
   43      H       0.7011712522    -1.3284380668    -9.7209260329
   44      C       2.6877423168    -1.2681387574    -8.9709606600
   45      H       3.1261534239    -1.5369227373    -9.9244112866
   46      C       5.5768009964    -0.9807644366    -6.5735322234
   47      H       6.6537089373    -1.0861107665    -6.5371736244
   48      C       4.9288763459    -1.1753206962    -7.7730933852
   49      H       5.4961936053    -1.4325605564    -8.6593767328
   50      B      -1.2811072947    -0.0560220761    -2.2343609784
   51      C       2.6458315162    -0.3099124405     0.0004843731
   52      C       3.0704622506    -1.6483036653     0.2914860389
   53      C       4.2209192862    -1.8507153376     0.9934327748
   54      H       4.5698175372    -2.8488182695     1.2294485306
   55      C       4.9961301755    -0.7444021540     1.4408688682
   56      O       6.0711172653    -1.0593780490     2.1011258065
   57      C       4.5910435924     0.5821144150     1.1673407124
   58      H       5.1800699551     1.4219311814     1.5101702659
   59      C       3.4396557975     0.7962506177     0.4616867962
   60      C       6.9512451865    -0.0590799337     2.6238857759
   61      H       7.7454315869    -0.6010174323     3.1261544261
   62      H       6.4311421568     0.5768245869     3.3395279925
   63      H       7.3705547984     0.5441157433     1.8192691800
   64      C       2.9725235909     2.1794540298     0.1582169162
   65      H       3.6598517471     2.9331990870     0.5368976835
   66      H       2.8599443947     2.3181549556    -0.9186830185
   67      H       1.9880679795     2.3526513720     0.5976580870
   68      C       2.2453003461    -2.8050784147    -0.1734220837
   69      H       2.6815797360    -3.7540056200     0.1336923277
   70      H       2.1527306701    -2.8049198155    -1.2603653393
   71      H       1.2328278889    -2.7452964465     0.2289013305
   72      C      -2.6636743130    -0.1384012558    -2.9979263014
   73      C      -3.2534334028    -1.3736050627    -3.2816203785
   74      C      -4.4735554963    -1.4497084985    -3.9557488485
   75      H      -4.8954516982    -2.4262348514    -4.1594512195
   76      C      -5.1236630673    -0.2891954795    -4.3551047203
   77      O      -6.3039026363    -0.2652060716    -5.0154850301
   78      C      -4.5485624696     0.9475161926    -4.0732602056
   79      H      -5.0592145411     1.8512698700    -4.3870380171
   80      C      -3.3352356743     1.0248236115    -3.4047367938
   81      C      -6.9057353735    -1.4918854845    -5.3575795166
   82      H      -7.8230355846    -1.2510629000    -5.8907020083
   83      H      -7.1615411573    -2.0879589674    -4.4764712295
   84      H      -6.2701835828    -2.0957131395    -6.0122514147
   85      C      -2.7339397944     2.3704574504    -3.1093948353
   86      H      -3.3364059731     3.1826576726    -3.5159010623
   87      H      -1.7297231178     2.4552036567    -3.5295438643
   88      H      -2.6387043356     2.5318260118    -2.0334070419
   89      C      -2.5769771968    -2.6484662481    -2.8555017834
   90      H      -3.1294157169    -3.5293591257    -3.1832735504
   91      H      -1.5666678688    -2.7199899546    -3.2631698001
   92      H      -2.4818068352    -2.7029745152    -1.7688202938
 ----------------------------------------------------------------

   15   -2123.8164936467      5.16E-09 Convergence criterion met
 Total energy in the final basis set = -2123.81649365

         TDDFT/TDA Excitation Energies
 ---------------------------------------------------

 Excited state   1: excitation energy (eV) =    2.2194
 Total energy for state  1:                 -2123.73493341 au
    Multiplicity: Triplet
    Trans. Mom.:  0.0000 X   0.0000 Y   0.0000 Z
    Strength   :     0.0000000000
    D(175) --> V(  2) amplitude =  0.2397
    D(179) --> V(  1) amplitude =  0.8612
    D(180) --> V(  1) amplitude = -0.2967

 Excited state   2: excitation energy (eV) =    2.3867
 Total energy for state  2:                 -2123.72878253 au
    Multiplicity: Triplet
    Trans. Mom.:  0.0000 X   0.0000 Y   0.0000 Z
    Strength   :     0.0000000000
    D(178) --> V(  2) amplitude =  0.2296
    D(179) --> V(  1) amplitude = -0.2354
    D(180) --> V(  1) amplitude = -0.3135
    D(182) --> V(  1) amplitude =  0.8443

 Excited state   3: excitation energy (eV) =    2.4379
 Total energy for state  3:                 -2123.72690198 au
    Multiplicity: Singlet
    Trans. Mom.:  0.1763 X  -0.0088 Y  -0.1906 Z
    Strength   :     0.0040322331
    D(182) --> V(  1) amplitude =  0.9737

 Excited state   4: excitation energy (eV) =    2.4448
 Total energy for state  4:                 -2123.72664893 au
    Multiplicity: Triplet
    Trans. Mom.:  0.0000 X   0.0000 Y   0.0000 Z
    Strength   :     0.0000000000
    D(178) --> V(  2) amplitude = -0.4134
    D(180) --> V(  1) amplitude =  0.6922
    D(182) --> V(  1) amplitude =  0.4451

 Excited state   5: excitation energy (eV) =    2.4908
 Total energy for state  5:                 -2123.72495997 au
    Multiplicity: Triplet
    Trans. Mom.:  0.0000 X   0.0000 Y   0.0000 Z
    Strength   :     0.0000000000
    D(178) --> V(  1) amplitude =  0.7412
    D(178) --> V(  4) amplitude = -0.2359
    D(180) --> V(  2) amplitude = -0.5329

 Excited state   6: excitation energy (eV) =    2.7316
 Total energy for state  6:                 -2123.71610794 au
    Multiplicity: Triplet
    Trans. Mom.:  0.0000 X   0.0000 Y   0.0000 Z
    Strength   :     0.0000000000
    D(175) --> V(  1) amplitude =  0.7099
    D(179) --> V(  2) amplitude =  0.5448

 Excited state   7: excitation energy (eV) =    2.8687
 Total energy for state  7:                 -2123.71107081 au
    Multiplicity: Triplet
    Trans. Mom.:  0.0000 X   0.0000 Y   0.0000 Z
    Strength   :     0.0000000000
    D(181) --> V(  1) amplitude =  0.9595

 Excited state   8: excitation energy (eV) =    2.8863
 Total energy for state  8:                 -2123.71042332 au
    Multiplicity: Singlet
    Trans. Mom.:  0.0961 X  -0.0065 Y  -0.1839 Z
    Strength   :     0.0030470034
    D(179) --> V(  1) amplitude =  0.8901
    D(180) --> V(  1) amplitude = -0.2890
    D(181) --> V(  1) amplitude =  0.2497

 Excited state   9: excitation energy (eV) =    2.9100
 Total energy for state  9:                 -2123.70955133 au
    Multiplicity: Singlet
    Trans. Mom.: -0.0415 X  -0.0009 Y   0.0897 Z
    Strength   :     0.0006959943
    D(179) --> V(  1) amplitude = -0.2480
    D(181) --> V(  1) amplitude =  0.9376

 Excited state  10: excitation energy (eV) =    3.1269
 Total energy for state 10:                 -2123.70158274 au
    Multiplicity: Singlet
    Trans. Mom.: -1.9886 X   0.1864 Y   3.5956 Z
    Strength   :     1.2960023848
    D(179) --> V(  1) amplitude =  0.2869
    D(180) --> V(  1) amplitude =  0.9125

 Excited state  11: excitation energy (eV) =    3.4378
 Total energy for state 11:                 -2123.69015610 au
    Multiplicity: Singlet
    Trans. Mom.:  0.0810 X   0.2871 Y   0.0383 Z
    Strength   :     0.0076175398
    D(178) --> V(  1) amplitude =  0.9408

 Excited state  12: excitation energy (eV) =    3.6631
 Total energy for state 12:                 -2123.68187750 au
    Multiplicity: Singlet
    Trans. Mom.:  0.8699 X  -0.0061 Y   0.4794 Z
    Strength   :     0.0885443070
    D(175) --> V(  1) amplitude =  0.7780
    D(179) --> V(  2) amplitude =  0.5156

 ---------------------------------------------------

                    Orbital Energies (a.u.)
 --------------------------------------------------------------

 Alpha MOs
 -- Occupied --
-19.529 -19.528 -10.508 -10.506 -10.487 -10.483 -10.468 -10.468
-10.467 -10.467 -10.467 -10.467 -10.466 -10.465 -10.465 -10.465
-10.464 -10.464 -10.464 -10.463 -10.462 -10.462 -10.462 -10.462
-10.459 -10.458 -10.458 -10.458 -10.458 -10.457 -10.457 -10.457
-10.456 -10.456 -10.454 -10.453 -10.451 -10.451 -10.439 -10.438
-10.438 -10.438 -10.436 -10.434 -10.433 -10.430 -10.428 -10.428
-10.426 -10.425 -10.420 -10.418  -6.950  -6.944  -1.196  -1.183
 -1.018  -1.017  -0.964  -0.960  -0.957  -0.948  -0.934  -0.934
 -0.910  -0.901  -0.877  -0.874  -0.862  -0.857  -0.854  -0.850
 -0.847  -0.847  -0.825  -0.815  -0.813  -0.805  -0.793  -0.789
 -0.769  -0.765  -0.758  -0.755  -0.736  -0.728  -0.727  -0.721
 -0.690  -0.686  -0.680  -0.668  -0.662  -0.652  -0.647  -0.647
 -0.645  -0.640  -0.596  -0.594  -0.591  -0.588  -0.585  -0.583
 -0.583  -0.576  -0.576  -0.561  -0.560  -0.545  -0.544  -0.538
 -0.537  -0.533  -0.527  -0.523  -0.515  -0.509  -0.504  -0.498
 -0.495  -0.491  -0.490  -0.489  -0.488  -0.487  -0.485  -0.482
 -0.479  -0.478  -0.474  -0.472  -0.471  -0.467  -0.467  -0.465
 -0.464  -0.463  -0.459  -0.455  -0.445  -0.444  -0.442  -0.440
 -0.436  -0.429  -0.427  -0.426  -0.426  -0.424  -0.420  -0.413
 -0.402  -0.400  -0.398  -0.397  -0.397  -0.394  -0.393  -0.392
 -0.381  -0.378  -0.373  -0.366  -0.366  -0.363  -0.357  -0.353
 -0.346  -0.340  -0.324  -0.318  -0.298  -0.297  -0.285  -0.284
 -0.280  -0.264  -0.259  -0.258  -0.254  -0.237

          Ground-State Mulliken Net Atomic Charges

     Atom                 Charge (a.u.)
  ----------------------------------------
      1 C                    -0.148943
      2 C                    -0.392120
      3 H                     0.247980
      4 C                     0.086179
      5 C                     0.084106
      6 C                    -0.396920
      7 H                     0.247770
      8 C                    -0.154558
      9 C                     0.176007
     10 C                    -0.391112
     11 H                     0.254679
     12 C                    -0.066062
     13 C                     0.213840
     14 C                     0.176951
     15 C                    -0.391713
     16 H                     0.254673
     17 C                    -0.234907
     18 H                     0.259901
     19 C                    -0.346830
     20 H                     0.258063
     21 C                    -0.234738
     22 H                     0.260013
     23 C                    -0.345802
     24 H                     0.258268
     25 B                     0.665303
     26 C                    -0.151946
     27 C                    -0.394733
     28 H                     0.246708
     29 C                     0.085401
     30 C                     0.084723
     31 C                    -0.395285
     32 H                     0.248287
     33 C                    -0.151630
     34 C                     0.172542
     35 C                    -0.388200
     36 H                     0.254924
     37 C                    -0.064369
     38 C                     0.214619
     39 C                     0.174796
     40 C                    -0.391843
     41 H                     0.255041
     42 C                    -0.235382
     43 H                     0.260101
     44 C                    -0.345576
     45 H                     0.258188
     46 C                    -0.234427
     47 H                     0.259888
     48 C                    -0.347429
     49 H                     0.258183
     50 B                     0.680378
     51 C                    -0.258809
     52 C                     0.062479
     53 C                    -0.429175
     54 H                     0.238313
     55 C                     0.386833
     56 O                    -0.455087
     57 C                    -0.468850
     58 H                     0.254979
     59 C                     0.083495
     60 C                    -0.425073
     61 H                     0.258967
     62 H                     0.228956
     63 H                     0.229060
     64 C                    -0.769874
     65 H                     0.250877
     66 H                     0.247643
     67 H                     0.247650
     68 C                    -0.771300
     69 H                     0.252971
     70 H                     0.248580
     71 H                     0.248633
     72 C                    -0.220949
     73 C                     0.041855
     74 C                    -0.455671
     75 H                     0.258981
     76 C                     0.388507
     77 O                    -0.472411
     78 C                    -0.407756
     79 H                     0.242276
     80 C                     0.051615
     81 C                    -0.430056
     82 H                     0.253977
     83 H                     0.220776
     84 H                     0.220908
     85 C                    -0.772880
     86 H                     0.253653
     87 H                     0.247892
     88 H                     0.247515
     89 C                    -0.771639
     90 H                     0.252609
     91 H                     0.248512
     92 H                     0.248031
  ----------------------------------------
  Sum of atomic charges =     0.000000

                    Cartesian Multipole Moments
 -----------------------------------------------------------------
    Charge (ESU x 10^10)
                -0.0000
    Dipole Moment (Debye)
         X       0.9525      Y      -1.4397      Z       0.6559
       Tot       1.8467
    Quadrupole Moments (Debye-Ang)
        XX    -245.5049     XY      21.2464     YY    -307.9975
        XZ      -1.7176     YZ      19.2733     ZZ    -244.9450

 Total job time:  8806.66s(wall), 28714.18s(cpu)
        *  Thank you very much for using Q-Chem.  Have a nice day.  *
