 Q-Chem 5.0, Q-Chem, Inc., Pleasanton, CA (2017)
 Q-Chem 5.0.1 for Intel X86 EM64T Linux

User input:
--------------------------------------------------------------
$solvent
dielectric      8.93
dielectric_infi 2.03
$end

$rem
threads 8
jobtype	sp
method PBEh-3c
basis def2-mSVP
mem_static	1024
mem_total	14000
sym_ignore	true
cis_n_roots             2
cis_singlets            false
cis_triplets		true
rpa                     false
calc_soc 		true
cis_moments             true
cis_relaxed_density	true
solvent_method		pcm
$end

$pcm
StateSpecific   1
ChargeSeparation Excited
$end

$molecule
read ut1opt_dcm.mol
$end

--------------------------------------------------------------

   21   -2123.7444444279      8.55E-09 Convergence criterion met
 Total energy in the final basis set = -2123.74444443
 Total job time:  6935.47s(wall), 21131.24s(cpu)
        *  Thank you very much for using Q-Chem.  Have a nice day.  *
 Q-Chem 5.0, Q-Chem, Inc., Pleasanton, CA (2017)
 Q-Chem 5.0.1 for Intel X86 EM64T Linux

User input:
--------------------------------------------------------------
$rem
threads 8
jobtype sp
method PBEh-3c
basis def2-mSVP
mem_static      1024
mem_total       14000
sym_ignore      true
cis_n_roots             6
cis_singlets            true
cis_triplets            true
rpa                     false
calc_soc                true
cis_moments             true
cis_relaxed_density     true
solvent_method          pcm
$end

$molecule
read
$end

$pcm
statespecific           Marcus
$end

$solvent
dielectric      8.93
dielectric_infi 2.03
$end

--------------------------------------------------------------

             Standard Nuclear Orientation (Angstroms)
    I     Atom           X                Y                Z
 ----------------------------------------------------------------
    1      C       0.0000000000     0.0000000000     0.0000000000
    2      C       0.0000000000     0.0000000000     1.4137780000
    3      H       0.9395449205     0.0000000000     1.9589353877
    4      C      -1.1803936071    -0.0333899662     2.1115996645
    5      C      -2.4251961777    -0.0767105468     1.4140568497
    6      C      -2.4458513693    -0.0502308328     0.0400712047
    7      H      -3.3919992755    -0.0893170895    -0.4904657149
    8      C      -1.2467580298    -0.0093070698    -0.6983270190
    9      C      -3.4937681905    -0.2136009282     2.4018874475
   10      C      -4.8577168588    -0.3734604441     2.3519338043
   11      H      -5.3978812606    -0.3892907643     1.4132638632
   12      C      -2.8638752388    -0.2265164031     3.6640178962
   13      C      -3.5372731008    -0.3904385321     4.8733159716
   14      C      -1.4637294798    -0.1174472180     3.5448897711
   15      C      -0.7066951909    -0.1551567227     4.6900701973
   16      H       0.3740505564    -0.0897552689     4.6639437926
   17      C      -1.3655648386    -0.2994234462     5.9338638858
   18      H      -0.7663516762    -0.3303398840     6.8351135013
   19      C      -2.7334037985    -0.4162192344     6.0391265637
   20      H      -3.1937358139    -0.5401364941     7.0120873492
   21      C      -5.5665348849    -0.5370804232     3.5658621473
   22      H      -6.6405626254    -0.6674187311     3.5218317601
   23      C      -4.9436717611    -0.5455508272     4.7936016393
   24      H      -5.5265658098    -0.6831045727     5.6964241891
   25      B       1.3043406417    -0.0786068190    -0.7921792732
   26      C       1.3007526720    -0.0885961627    -2.3199464027
   27      C       2.5003652344    -0.1907633379    -3.0618774599
   28      H       3.4551046129    -0.2109776138    -2.5440340834
   29      C       2.4687486260    -0.3068201923    -4.4299335523
   30      C       1.2165015967    -0.3279327801    -5.1148251808
   31      C       0.0414245516    -0.2012310141    -4.4128335669
   32      H      -0.9097975942    -0.2328709683    -4.9346458318
   33      C       0.0480738812    -0.0831231523    -3.0100174416
   34      C       1.4742037922    -0.5998555742    -6.5241871093
   35      C       0.6892863547    -0.8187998749    -7.6296818672
   36      H      -0.3913760260    -0.7592551265    -7.5841483303
   37      C       2.8732292590    -0.7183909389    -6.6558729119
   38      C       3.5193027235    -1.0534444112    -7.8434748534
   39      C       3.5242694896    -0.5375922411    -5.4178146907
   40      C       4.8903542198    -0.6684684131    -5.3759843175
   41      H       5.4480244150    -0.5550246132    -4.4544021347
   42      C       1.3210099846    -1.1506628263    -8.8511384270
   43      H       0.7011712522    -1.3284380668    -9.7209260329
   44      C       2.6877423168    -1.2681387574    -8.9709606600
   45      H       3.1261534239    -1.5369227373    -9.9244112866
   46      C       5.5768009964    -0.9807644366    -6.5735322234
   47      H       6.6537089373    -1.0861107665    -6.5371736244
   48      C       4.9288763459    -1.1753206962    -7.7730933852
   49      H       5.4961936053    -1.4325605564    -8.6593767328
   50      B      -1.2811072947    -0.0560220761    -2.2343609784
   51      C       2.6458315162    -0.3099124405     0.0004843731
   52      C       3.0704622506    -1.6483036653     0.2914860389
   53      C       4.2209192862    -1.8507153376     0.9934327748
   54      H       4.5698175372    -2.8488182695     1.2294485306
   55      C       4.9961301755    -0.7444021540     1.4408688682
   56      O       6.0711172653    -1.0593780490     2.1011258065
   57      C       4.5910435924     0.5821144150     1.1673407124
   58      H       5.1800699551     1.4219311814     1.5101702659
   59      C       3.4396557975     0.7962506177     0.4616867962
   60      C       6.9512451865    -0.0590799337     2.6238857759
   61      H       7.7454315869    -0.6010174323     3.1261544261
   62      H       6.4311421568     0.5768245869     3.3395279925
   63      H       7.3705547984     0.5441157433     1.8192691800
   64      C       2.9725235909     2.1794540298     0.1582169162
   65      H       3.6598517471     2.9331990870     0.5368976835
   66      H       2.8599443947     2.3181549556    -0.9186830185
   67      H       1.9880679795     2.3526513720     0.5976580870
   68      C       2.2453003461    -2.8050784147    -0.1734220837
   69      H       2.6815797360    -3.7540056200     0.1336923277
   70      H       2.1527306701    -2.8049198155    -1.2603653393
   71      H       1.2328278889    -2.7452964465     0.2289013305
   72      C      -2.6636743130    -0.1384012558    -2.9979263014
   73      C      -3.2534334028    -1.3736050627    -3.2816203785
   74      C      -4.4735554963    -1.4497084985    -3.9557488485
   75      H      -4.8954516982    -2.4262348514    -4.1594512195
   76      C      -5.1236630673    -0.2891954795    -4.3551047203
   77      O      -6.3039026363    -0.2652060716    -5.0154850301
   78      C      -4.5485624696     0.9475161926    -4.0732602056
   79      H      -5.0592145411     1.8512698700    -4.3870380171
   80      C      -3.3352356743     1.0248236115    -3.4047367938
   81      C      -6.9057353735    -1.4918854845    -5.3575795166
   82      H      -7.8230355846    -1.2510629000    -5.8907020083
   83      H      -7.1615411573    -2.0879589674    -4.4764712295
   84      H      -6.2701835828    -2.0957131395    -6.0122514147
   85      C      -2.7339397944     2.3704574504    -3.1093948353
   86      H      -3.3364059731     3.1826576726    -3.5159010623
   87      H      -1.7297231178     2.4552036567    -3.5295438643
   88      H      -2.6387043356     2.5318260118    -2.0334070419
   89      C      -2.5769771968    -2.6484662481    -2.8555017834
   90      H      -3.1294157169    -3.5293591257    -3.1832735504
   91      H      -1.5666678688    -2.7199899546    -3.2631698001
   92      H      -2.4818068352    -2.7029745152    -1.7688202938
 ----------------------------------------------------------------

   22   -2123.7336992858      8.71E-09 Convergence criterion met
 Total energy in the final basis set = -2123.73369929

         TDDFT/TDA Excitation Energies
 ---------------------------------------------------

 Excited state   1: excitation energy (eV) =    0.3653
 Total energy for state  1:                 -2123.72027587 au
    <S**2>     :  2.0516
    Trans. Mom.:  0.3627 X  -0.0266 Y   0.1960 Z
    Strength   :     0.0015271835
    D(181) --> S(  1) amplitude =  0.9835 beta

 Excited state   2: excitation energy (eV) =    0.6902
 Total energy for state  2:                 -2123.70833664 au
    <S**2>     :  2.0492
    Trans. Mom.: -0.3632 X   0.0236 Y  -0.1314 Z
    Strength   :     0.0025321779
    D(179) --> S(  1) amplitude =  0.9797 beta

 Excited state   3: excitation energy (eV) =    0.8264
 Total energy for state  3:                 -2123.70332934 au
    <S**2>     :  2.0550
    Trans. Mom.:  0.6064 X  -0.0183 Y   0.3953 Z
    Strength   :     0.0106146088
    D(180) --> S(  1) amplitude =  0.9803 beta

 Excited state   4: excitation energy (eV) =    0.8488
 Total energy for state  4:                 -2123.70250534 au
    <S**2>     :  2.0467
    Trans. Mom.: -0.2837 X   0.0166 Y   0.1667 Z
    Strength   :     0.0022578702
    D(172) --> S(  1) amplitude = -0.1640 beta
    D(178) --> S(  1) amplitude =  0.9712 beta

 Excited state   5: excitation energy (eV) =    1.1480
 Total energy for state  5:                 -2123.69150935 au
    <S**2>     :  2.0505
    Trans. Mom.:  0.0224 X   0.0001 Y   0.0238 Z
    Strength   :     0.0000299512
    D(177) --> S(  1) amplitude =  0.9855 beta

 Excited state   6: excitation energy (eV) =    1.6238
 Total energy for state  6:                 -2123.67402715 au
    <S**2>     :  2.0555
    Trans. Mom.: -0.0439 X   0.0151 Y  -0.0055 Z
    Strength   :     0.0000867836
    D(176) --> S(  1) amplitude =  0.9984 beta

 ---------------------------------------------------

                    Orbital Energies (a.u.)
 --------------------------------------------------------------

 Alpha MOs
 -- Occupied --
-19.619 -19.517 -10.598 -10.532 -10.521 -10.512 -10.505 -10.500
-10.500 -10.492 -10.474 -10.455 -10.454 -10.454 -10.452 -10.452
-10.451 -10.451 -10.450 -10.449 -10.449 -10.448 -10.448 -10.448
-10.448 -10.448 -10.447 -10.446 -10.446 -10.446 -10.446 -10.445
-10.445 -10.443 -10.443 -10.443 -10.442 -10.440 -10.440 -10.437
-10.437 -10.435 -10.435 -10.423 -10.421 -10.421 -10.420 -10.414
-10.413 -10.412 -10.411 -10.401  -6.914  -6.904  -1.279  -1.172
 -1.021  -1.002  -1.002  -0.947  -0.944  -0.941  -0.932  -0.920
 -0.920  -0.917  -0.892  -0.884  -0.859  -0.850  -0.844  -0.840
 -0.838  -0.834  -0.834  -0.813  -0.811  -0.805  -0.798  -0.798
 -0.788  -0.777  -0.753  -0.744  -0.723  -0.719  -0.713  -0.712
 -0.706  -0.697  -0.675  -0.669  -0.665  -0.651  -0.646  -0.644
 -0.633  -0.632  -0.630  -0.622  -0.610  -0.602  -0.581  -0.578
 -0.575  -0.572  -0.570  -0.564  -0.561  -0.559  -0.547  -0.540
 -0.531  -0.526  -0.523  -0.522  -0.521  -0.517  -0.512  -0.511
 -0.505  -0.496  -0.494  -0.488  -0.484  -0.482  -0.481  -0.480
 -0.478  -0.476  -0.476  -0.473  -0.473  -0.468  -0.465  -0.465
 -0.460  -0.460  -0.454  -0.452  -0.451  -0.449  -0.446  -0.442
 -0.433  -0.429  -0.428  -0.426  -0.421  -0.419  -0.418  -0.412
 -0.412  -0.409  -0.404  -0.389  -0.386  -0.385  -0.385  -0.383
 -0.380  -0.376  -0.365  -0.365  -0.362  -0.359  -0.349  -0.342
 -0.338  -0.334  -0.327  -0.313  -0.311  -0.306  -0.288  -0.286
 -0.275  -0.266  -0.256  -0.246  -0.244  -0.238  -0.158

 Beta MOs
 -- Occupied --
-19.614 -19.517 -10.595 -10.532 -10.520 -10.513 -10.499 -10.499
-10.499 -10.492 -10.474 -10.455 -10.454 -10.454 -10.452 -10.452
-10.451 -10.451 -10.450 -10.450 -10.449 -10.449 -10.448 -10.448
-10.447 -10.447 -10.446 -10.446 -10.446 -10.446 -10.446 -10.445
-10.445 -10.443 -10.443 -10.441 -10.440 -10.440 -10.440 -10.437
-10.437 -10.436 -10.436 -10.423 -10.421 -10.421 -10.420 -10.414
-10.413 -10.410 -10.410 -10.401  -6.911  -6.902  -1.268  -1.172
 -1.011  -1.002  -1.002  -0.945  -0.942  -0.940  -0.929  -0.920
 -0.920  -0.907  -0.890  -0.883  -0.859  -0.846  -0.843  -0.839
 -0.837  -0.833  -0.833  -0.809  -0.806  -0.801  -0.797  -0.793
 -0.786  -0.777  -0.753  -0.743  -0.719  -0.717  -0.712  -0.709
 -0.705  -0.693  -0.674  -0.665  -0.664  -0.649  -0.643  -0.642
 -0.632  -0.631  -0.630  -0.617  -0.597  -0.588  -0.579  -0.577
 -0.574  -0.572  -0.569  -0.563  -0.559  -0.557  -0.546  -0.538
 -0.528  -0.525  -0.523  -0.520  -0.514  -0.513  -0.510  -0.508
 -0.502  -0.494  -0.492  -0.487  -0.481  -0.481  -0.478  -0.477
 -0.476  -0.475  -0.472  -0.472  -0.469  -0.468  -0.465  -0.464
 -0.460  -0.459  -0.453  -0.452  -0.451  -0.446  -0.446  -0.440
 -0.428  -0.428  -0.425  -0.425  -0.417  -0.416  -0.411  -0.409
 -0.408  -0.402  -0.391  -0.389  -0.384  -0.383  -0.383  -0.382
 -0.379  -0.374  -0.363  -0.361  -0.358  -0.352  -0.348  -0.338
 -0.335  -0.325  -0.323  -0.306  -0.301  -0.284  -0.284  -0.266
 -0.264  -0.248  -0.243  -0.238  -0.237

          Ground-State Mulliken Net Atomic Charges

     Atom                 Charge (a.u.)    Spin (a.u.)
  --------------------------------------------------------
      1 C                    -0.129075       0.007232
      2 C                    -0.408691       0.020068
      3 H                     0.201099      -0.003769
      4 C                     0.067051       0.009423
      5 C                     0.065471       0.112425
      6 C                    -0.402240      -0.065000
      7 H                     0.237783       0.002751
      8 C                    -0.149023       0.079060
      9 C                     0.175906      -0.061287
     10 C                    -0.403424       0.087267
     11 H                     0.248668      -0.005057
     12 C                    -0.074560       0.022161
     13 C                     0.214676      -0.035288
     14 C                     0.174873      -0.035899
     15 C                    -0.405470       0.056905
     16 H                     0.233288      -0.003329
     17 C                    -0.234143      -0.039529
     18 H                     0.248536       0.001959
     19 C                    -0.357115       0.052951
     20 H                     0.249689      -0.003018
     21 C                    -0.232377      -0.053083
     22 H                     0.252790       0.002519
     23 C                    -0.357946       0.078514
     24 H                     0.249211      -0.004568
     25 B                     0.531978       0.374480
     26 C                    -0.132252       0.002299
     27 C                    -0.411205       0.020995
     28 H                     0.202166      -0.003375
     29 C                     0.066634       0.008418
     30 C                     0.065705       0.112741
     31 C                    -0.401010      -0.066228
     32 H                     0.237925       0.002804
     33 C                    -0.146089       0.079345
     34 C                     0.172394      -0.061525
     35 C                    -0.400717       0.087213
     36 H                     0.248711      -0.005047
     37 C                    -0.073051       0.022206
     38 C                     0.215353      -0.035112
     39 C                     0.172470      -0.035593
     40 C                    -0.405727       0.056237
     41 H                     0.234504      -0.003286
     42 C                    -0.233069      -0.053069
     43 H                     0.252675       0.002519
     44 C                    -0.357973       0.078593
     45 H                     0.248928      -0.004579
     46 C                    -0.233692      -0.039219
     47 H                     0.248569       0.001946
     48 C                    -0.357805       0.052324
     49 H                     0.249667      -0.002981
     50 B                     0.574023       0.257512
     51 C                    -0.121168       0.503325
     52 C                     0.058450      -0.078445
     53 C                    -0.383762       0.105374
     54 H                     0.289387      -0.006814
     55 C                     0.456693       0.217717
     56 O                    -0.397612       0.139983
     57 C                    -0.423443       0.032789
     58 H                     0.299651      -0.003251
     59 C                     0.096409       0.016771
     60 C                    -0.453575      -0.013779
     61 H                     0.289012       0.000003
     62 H                     0.261976       0.009082
     63 H                     0.261885       0.009116
     64 C                    -0.760764       0.000278
     65 H                     0.260249       0.001048
     66 H                     0.282820       0.002637
     67 H                     0.283549       0.003184
     68 C                    -0.760456       0.005118
     69 H                     0.259458       0.000984
     70 H                     0.280171      -0.001249
     71 H                     0.281343      -0.001377
     72 C                    -0.196283      -0.023376
     73 C                     0.035883       0.003460
     74 C                    -0.458223      -0.000721
     75 H                     0.251846       0.000285
     76 C                     0.382808       0.000911
     77 O                    -0.474680       0.000251
     78 C                    -0.410216      -0.000761
     79 H                     0.234562       0.000340
     80 C                     0.045031       0.003283
     81 C                    -0.427107      -0.000029
     82 H                     0.249966       0.000006
     83 H                     0.218568       0.000021
     84 H                     0.218826       0.000021
     85 C                    -0.764990       0.000609
     86 H                     0.243102       0.001320
     87 H                     0.245288      -0.000742
     88 H                     0.244179      -0.000599
     89 C                    -0.764589       0.000297
     90 H                     0.242315       0.001212
     91 H                     0.245315      -0.000757
     92 H                     0.244035      -0.000553
  --------------------------------------------------------
  Sum of atomic charges =    -0.000000

                    Cartesian Multipole Moments
 -----------------------------------------------------------------
    Charge (ESU x 10^10)
                -0.0000
    Dipole Moment (Debye)
         X      14.7705      Y      -2.0930      Z       8.8052
       Tot      17.3228
    Quadrupole Moments (Debye-Ang)
        XX    -206.1502     XY      15.7902     YY    -304.2932
        XZ      34.0702     YZ      14.0150     ZZ    -295.9365

 Total job time:  7892.33s(wall), 26132.80s(cpu)
        *  Thank you very much for using Q-Chem.  Have a nice day.  *
