 Q-Chem 5.0, Q-Chem, Inc., Pleasanton, CA (2017)
 Q-Chem 5.0.1 for Intel X86 EM64T Linux

User input:
--------------------------------------------------------------
$solvent
dielectric      1.0001
dielectric_infi 1.00009
$end

$rem
threads 8
jobtype	sp
method PBEh-3c
basis def2-mSVP
mem_static	1024
mem_total	14000
sym_ignore	true
cis_n_roots             2
cis_singlets            true
cis_triplets		false
rpa                     false
calc_soc 		true
cis_moments             true
cis_relaxed_density	true
solvent_method		pcm
$end

$pcm
StateSpecific   1
ChargeSeparation Excited
$end

$molecule
read moms1opt_vac.mol
$end

--------------------------------------------------------------

   15   -2202.2474670681      7.17E-09 Convergence criterion met
 Total energy in the final basis set = -2202.24746707
 Total job time:  7933.37s(wall), 20452.96s(cpu)
        *  Thank you very much for using Q-Chem.  Have a nice day.  *
 Q-Chem 5.0, Q-Chem, Inc., Pleasanton, CA (2017)
 Q-Chem 5.0.1 for Intel X86 EM64T Linux

User input:
--------------------------------------------------------------
$rem
threads 8
jobtype sp
method PBEh-3c
basis def2-mSVP
mem_static      1024
mem_total       14000
sym_ignore      true
cis_n_roots             6
cis_singlets            true
cis_triplets            true
rpa                     false
calc_soc                true
cis_moments             true
cis_relaxed_density     true
solvent_method          pcm
$end

$molecule
read
$end

$pcm
statespecific           Marcus
$end

$solvent
dielectric      1.0001
dielectric_infi 1.00009
$end

--------------------------------------------------------------

             Standard Nuclear Orientation (Angstroms)
    I     Atom           X                Y                Z
 ----------------------------------------------------------------
    1      C       0.0000000000     0.0000000000     0.0000000000
    2      C       0.0000000000     0.0000000000     1.4047140000
    3      H       0.9499812972     0.0000000000     1.9300254946
    4      C      -1.1784504193     0.0052371413     2.1096467197
    5      C      -2.4304621219     0.0122052283     1.4286485147
    6      C      -2.4554544647     0.0057624566     0.0567152625
    7      H      -3.4125079788     0.0037310052    -0.4590475897
    8      C      -1.2498797970    -0.0025427868    -0.6890946456
    9      C      -1.4336697726     0.0078520349     3.5419139722
   10      C      -0.6458267538     0.0034904800     4.6651821802
   11      H       0.4353993420    -0.0049816122     4.6030318830
   12      C      -2.8332584415     0.0178296807     3.6955842871
   13      C      -3.4775545825     0.0252518740     4.9284413447
   14      C      -3.4857163094     0.0209448237     2.4458745952
   15      C      -4.8561479362     0.0321466613     2.4373370800
   16      H      -5.4213630558     0.0359130861     1.5135650847
   17      C      -1.2751169839     0.0107764825     5.9301294101
   18      H      -0.6538294523     0.0077510951     6.8167887662
   19      C      -2.6430650936     0.0214645690     6.0736798711
   20      H      -3.0813798658     0.0270543562     7.0640829225
   21      C      -4.8910927899     0.0365877744     4.8860548658
   22      H      -5.4618936217     0.0432141777     5.8065333307
   23      C      -5.5422229278     0.0400896182     3.6742407366
   24      H      -6.6245815051     0.0496371771     3.6630050428
   25      B      -1.2429561949    -0.0122265187    -2.2157002326
   26      C       0.0575604197     0.0215255498    -3.0173851022
   27      C       0.0658156176     0.0558617681    -4.4341980545
   28      H      -0.8730002126     0.0718381627    -4.9818466880
   29      C       1.2508304473     0.0674232905    -5.1254473207
   30      C       2.4822710131     0.0380315354    -4.4088856622
   31      C       2.4951244590     0.0131225438    -3.0368379449
   32      H       3.4385141653    -0.0061992101    -2.5011425799
   33      C       1.2955539086     0.0160658198    -2.3079866061
   34      C       3.5755787270     0.0470526166    -5.3695592404
   35      C       4.9451015666     0.0288048881    -5.2808524638
   36      H       5.4538408394    -0.0020910433    -4.3252981021
   37      C       2.9813999525     0.0862891413    -6.6452243084
   38      C       3.7031391785     0.1108492957    -7.8358829834
   39      C       1.5746213344     0.1005894618    -6.5571099834
   40      C       0.8609696849     0.1435161314    -7.7271451312
   41      H      -0.2217796024     0.1602238694    -7.7354457534
   42      C       5.7010187262     0.0516044408    -6.4748004349
   43      H       6.7812727784     0.0369583266    -6.4032513447
   44      C       5.1149343070     0.0919890180    -7.7181706206
   45      H       5.7333548108     0.1085954767    -8.6073521026
   46      C       2.9379516943     0.1533841227    -9.0240227792
   47      H       3.4319947318     0.1752333081    -9.9878323122
   48      C       1.5644833318     0.1687525861    -8.9543157416
   49      H       0.9948543822     0.2029225026    -9.8742073097
   50      B       1.3336569823     0.0058664983    -0.7692440887
   51      C      -2.5994447135    -0.0047621940    -2.9973525084
   52      C      -3.2861093951     1.2398304711    -3.2096710588
   53      C      -4.5169531284     1.2395405319    -3.7948905637
   54      H      -5.0721115844     2.1573261110    -3.9441981001
   55      C      -5.1041015524     0.0232047036    -4.2286829043
   56      O      -6.2937904161     0.1428313428    -4.7685350570
   57      C      -4.4206167770    -1.2001096661    -4.0891858394
   58      H      -4.8550389847    -2.1238797697    -4.4485092075
   59      C      -3.1831726121    -1.2211899363    -3.4999078010
   60      C      -6.9931214246    -0.9980899596    -5.2448172669
   61      H      -7.9438173020    -0.6310659807    -5.6190762125
   62      H      -6.4514418486    -1.4845446271    -6.0574340933
   63      H      -7.1753000532    -1.7150719599    -4.4427986416
   64      C      -2.6386821624     2.5071471100    -2.7573450462
   65      H      -3.2216446264     3.3822838167    -3.0404037215
   66      H      -1.6378978969     2.5984780754    -3.1823460066
   67      H      -2.5118625684     2.5081273475    -1.6734292995
   68      C      -2.4467614664    -2.5141864817    -3.3400348172
   69      H      -1.3769721439    -2.3421699634    -3.4725587739
   70      H      -2.7602267258    -3.2074699259    -4.1239818839
   71      C      -2.6877811395    -3.1487129177    -1.9673656887
   72      H      -2.3269497093    -2.5097171922    -1.1633836885
   73      H      -2.1545167801    -4.0962774392    -1.9012698261
   74      H      -3.7472037708    -3.3448906074    -1.7997894015
   75      C       2.7184124834    -0.0278960279    -0.0067120330
   76      C       3.4619399684     1.1293540959     0.2294378926
   77      C       4.6919875098     1.0728570661     0.8875252791
   78      H       5.2347207201     1.9971556068     1.0472162958
   79      C       5.2009054520    -0.1419220659     1.3160660823
   80      O       6.3804556948    -0.2960585996     1.9595972422
   81      C       4.4746073039    -1.3060528006     1.0775089754
   82      H       4.8841980266    -2.2543823881     1.4050512586
   83      C       3.2543132272    -1.2551312372     0.4276580145
   84      C       7.1440448573     0.8468935533     2.2298821653
   85      H       8.0337247289     0.5106606082     2.7591569781
   86      H       6.6123182728     1.5632758019     2.8652331895
   87      H       7.4593844528     1.3644445765     1.3174269292
   88      C       2.5016752609    -2.5301990852     0.1709022828
   89      H       3.0533494092    -3.4019514234     0.5225642780
   90      H       1.5308809870    -2.5262725627     0.6697595297
   91      H       2.3093483221    -2.6657541228    -0.8955220239
   92      C       2.9434610697     2.4866825471    -0.1722237094
   93      H       2.2993091101     2.4000427904    -1.0502997583
   94      H       3.7805063507     3.1231264405    -0.4733725437
   95      C       2.1735574282     3.1664461461     0.9576190149
   96      H       1.3029920383     2.5774817684     1.2462927125
   97      H       2.7994546320     3.2891128374     1.8427211787
   98      H       1.8231711232     4.1546206053     0.6559427255
 ----------------------------------------------------------------

   15   -2202.2474655330      7.17E-09 Convergence criterion met
 Total energy in the final basis set = -2202.24746553

         TDDFT/TDA Excitation Energies
 ---------------------------------------------------

 Excited state   1: excitation energy (eV) =    2.2038
 Total energy for state  1:                 -2202.16647840 au
    Multiplicity: Triplet
    Trans. Mom.:  0.0000 X   0.0000 Y   0.0000 Z
    Strength   :     0.0000000000
    D(183) --> V(  2) amplitude = -0.2408
    D(187) --> V(  1) amplitude =  0.5627
    D(188) --> V(  1) amplitude =  0.7248

 Excited state   2: excitation energy (eV) =    2.3803
 Total energy for state  2:                 -2202.15998977 au
    Multiplicity: Triplet
    Trans. Mom.:  0.0000 X   0.0000 Y   0.0000 Z
    Strength   :     0.0000000000
    D(190) --> V(  1) amplitude =  0.9454

 Excited state   3: excitation energy (eV) =    2.4381
 Total energy for state  3:                 -2202.15786798 au
    Multiplicity: Singlet
    Trans. Mom.: -0.3007 X   0.0102 Y  -0.1832 Z
    Strength   :     0.0074104316
    D(190) --> V(  1) amplitude =  0.9723

 Excited state   4: excitation energy (eV) =    2.4450
 Total energy for state  4:                 -2202.15761333 au
    Multiplicity: Triplet
    Trans. Mom.:  0.0000 X   0.0000 Y   0.0000 Z
    Strength   :     0.0000000000
    D(186) --> V(  2) amplitude = -0.4711
    D(187) --> V(  1) amplitude =  0.6476
    D(188) --> V(  1) amplitude = -0.4698

 Excited state   5: excitation energy (eV) =    2.5002
 Total energy for state  5:                 -2202.15558309 au
    Multiplicity: Triplet
    Trans. Mom.:  0.0000 X   0.0000 Y   0.0000 Z
    Strength   :     0.0000000000
    D(186) --> V(  1) amplitude =  0.7149
    D(186) --> V(  4) amplitude = -0.2296
    D(187) --> V(  2) amplitude = -0.3440
    D(188) --> V(  2) amplitude =  0.4181

 Excited state   6: excitation energy (eV) =    2.7167
 Total energy for state  6:                 -2202.14762814 au
    Multiplicity: Triplet
    Trans. Mom.:  0.0000 X   0.0000 Y   0.0000 Z
    Strength   :     0.0000000000
    D(183) --> V(  1) amplitude = -0.6876
    D(187) --> V(  2) amplitude =  0.4297
    D(188) --> V(  2) amplitude =  0.3457

 Excited state   7: excitation energy (eV) =    2.8750
 Total energy for state  7:                 -2202.14180979 au
    Multiplicity: Triplet
    Trans. Mom.:  0.0000 X   0.0000 Y   0.0000 Z
    Strength   :     0.0000000000
    D(189) --> V(  1) amplitude =  0.9251

 Excited state   8: excitation energy (eV) =    2.8867
 Total energy for state  8:                 -2202.14138023 au
    Multiplicity: Singlet
    Trans. Mom.: -0.2039 X   0.0036 Y   0.2921 Z
    Strength   :     0.0089764339
    D(187) --> V(  1) amplitude =  0.6276
    D(188) --> V(  1) amplitude =  0.7240

 Excited state   9: excitation energy (eV) =    2.9181
 Total energy for state  9:                 -2202.14022910 au
    Multiplicity: Singlet
    Trans. Mom.:  0.2724 X  -0.0040 Y   0.0949 Z
    Strength   :     0.0059505322
    D(189) --> V(  1) amplitude =  0.9604

 Excited state  10: excitation energy (eV) =    3.2237
 Total energy for state 10:                 -2202.12899545 au
    Multiplicity: Singlet
    Trans. Mom.:  1.7102 X   0.0174 Y  -3.0612 Z
    Strength   :     0.9711429600
    D(187) --> V(  1) amplitude =  0.7178
    D(188) --> V(  1) amplitude = -0.6195

 Excited state  11: excitation energy (eV) =    3.5237
 Total energy for state 11:                 -2202.11797135 au
    Multiplicity: Singlet
    Trans. Mom.:  0.1431 X   0.0404 Y   0.1255 Z
    Strength   :     0.0032696412
    D(186) --> V(  1) amplitude =  0.9306

 Excited state  12: excitation energy (eV) =    3.6676
 Total energy for state 12:                 -2202.11268369 au
    Multiplicity: Singlet
    Trans. Mom.:  0.6949 X   0.0318 Y   0.3872 Z
    Strength   :     0.0569546675
    D(183) --> V(  1) amplitude = -0.7221
    D(187) --> V(  2) amplitude =  0.4127
    D(188) --> V(  2) amplitude =  0.4005

 ---------------------------------------------------

                    Orbital Energies (a.u.)
 --------------------------------------------------------------

 Alpha MOs
 -- Occupied --
-19.523 -19.522 -10.499 -10.498 -10.492 -10.488 -10.463 -10.463
-10.462 -10.462 -10.462 -10.462 -10.461 -10.461 -10.460 -10.460
-10.460 -10.460 -10.460 -10.460 -10.459 -10.458 -10.458 -10.458
-10.458 -10.457 -10.457 -10.457 -10.452 -10.450 -10.449 -10.448
-10.447 -10.447 -10.445 -10.445 -10.444 -10.444 -10.432 -10.431
-10.430 -10.430 -10.429 -10.429 -10.428 -10.426 -10.426 -10.423
-10.422 -10.420 -10.418 -10.415 -10.414 -10.410  -6.943  -6.934
 -1.189  -1.179  -1.013  -1.012  -0.958  -0.955  -0.950  -0.941
 -0.931  -0.930  -0.904  -0.895  -0.880  -0.879  -0.857  -0.851
 -0.851  -0.847  -0.845  -0.844  -0.820  -0.814  -0.814  -0.811
 -0.809  -0.800  -0.773  -0.768  -0.760  -0.758  -0.732  -0.727
 -0.724  -0.718  -0.706  -0.703  -0.687  -0.679  -0.677  -0.663
 -0.655  -0.645  -0.643  -0.641  -0.634  -0.629  -0.594  -0.590
 -0.589  -0.587  -0.582  -0.580  -0.579  -0.573  -0.573  -0.558
 -0.556  -0.541  -0.541  -0.537  -0.533  -0.533  -0.525  -0.521
 -0.510  -0.504  -0.501  -0.496  -0.496  -0.494  -0.492  -0.490
 -0.487  -0.486  -0.482  -0.481  -0.480  -0.479  -0.477  -0.472
 -0.472  -0.468  -0.465  -0.464  -0.462  -0.461  -0.458  -0.452
 -0.444  -0.441  -0.438  -0.435  -0.432  -0.426  -0.425  -0.422
 -0.420  -0.419  -0.417  -0.412  -0.410  -0.408  -0.403  -0.402
 -0.396  -0.393  -0.392  -0.392  -0.389  -0.389  -0.382  -0.380
 -0.375  -0.369  -0.363  -0.359  -0.356  -0.354  -0.349  -0.346
 -0.338  -0.331  -0.315  -0.310  -0.293  -0.292  -0.278  -0.273
 -0.271  -0.259  -0.253  -0.251  -0.247  -0.230

          Ground-State Mulliken Net Atomic Charges

     Atom                 Charge (a.u.)
  ----------------------------------------
      1 C                    -0.140907
      2 C                    -0.402788
      3 H                     0.237284
      4 C                     0.095691
      5 C                     0.116833
      6 C                    -0.398477
      7 H                     0.238095
      8 C                    -0.153080
      9 C                     0.193739
     10 C                    -0.377154
     11 H                     0.221287
     12 C                    -0.065065
     13 C                     0.253130
     14 C                     0.200690
     15 C                    -0.386845
     16 H                     0.221352
     17 C                    -0.205500
     18 H                     0.226295
     19 C                    -0.331826
     20 H                     0.219918
     21 C                    -0.337613
     22 H                     0.220150
     23 C                    -0.202136
     24 H                     0.225832
     25 B                     0.656159
     26 C                    -0.149086
     27 C                    -0.391264
     28 H                     0.234154
     29 C                     0.116320
     30 C                     0.093651
     31 C                    -0.385157
     32 H                     0.233006
     33 C                    -0.154800
     34 C                     0.195711
     35 C                    -0.376931
     36 H                     0.221015
     37 C                    -0.065139
     38 C                     0.251337
     39 C                     0.199855
     40 C                    -0.387447
     41 H                     0.220585
     42 C                    -0.205552
     43 H                     0.225642
     44 C                    -0.331385
     45 H                     0.219651
     46 C                    -0.336749
     47 H                     0.219812
     48 C                    -0.201902
     49 H                     0.225548
     50 B                     0.671683
     51 C                    -0.254551
     52 C                     0.080271
     53 C                    -0.392222
     54 H                     0.217065
     55 C                     0.399982
     56 O                    -0.444335
     57 C                    -0.447443
     58 H                     0.216321
     59 C                     0.108434
     60 C                    -0.403349
     61 H                     0.242063
     62 H                     0.209142
     63 H                     0.209235
     64 C                    -0.760091
     65 H                     0.235083
     66 H                     0.245895
     67 H                     0.246897
     68 C                    -0.548408
     69 H                     0.253273
     70 H                     0.223287
     71 C                    -0.648500
     72 H                     0.249951
     73 H                     0.216548
     74 H                     0.214220
     75 C                    -0.225500
     76 C                     0.077838
     77 C                    -0.422874
     78 H                     0.221269
     79 C                     0.401126
     80 O                    -0.454265
     81 C                    -0.379171
     82 H                     0.220986
     83 C                     0.056964
     84 C                    -0.405626
     85 H                     0.238630
     86 H                     0.202894
     87 H                     0.202585
     88 C                    -0.759442
     89 H                     0.236858
     90 H                     0.245919
     91 H                     0.244215
     92 C                    -0.547595
     93 H                     0.252885
     94 H                     0.225771
     95 C                    -0.641378
     96 H                     0.240598
     97 H                     0.212829
     98 H                     0.218096
  ----------------------------------------
  Sum of atomic charges =    -0.000000

                    Cartesian Multipole Moments
 -----------------------------------------------------------------
    Charge (ESU x 10^10)
                -0.0000
    Dipole Moment (Debye)
         X      -0.2251      Y       0.0190      Z      -0.1329
       Tot       0.2621
    Quadrupole Moments (Debye-Ang)
        XX    -273.6585     XY      17.6348     YY    -325.1245
        XZ       0.2533     YZ       8.9519     ZZ    -276.0253

 Total job time:  11470.18s(wall), 38688.47s(cpu)
        *  Thank you very much for using Q-Chem.  Have a nice day.  *
