 Q-Chem 5.1, Q-Chem, Inc., Pleasanton, CA (2018)
 Q-Chem 5.1.1 for Intel X86 EM64T Linux

User input:
--------------------------------------------------------------
$solvent
dielectric      2.38
dielectric_infi 2.25
$end

$rem
threads 8
jobtype	sp
method PBEh-3c
basis def2-mSVP
mem_static	1024
mem_total	14000
sym_ignore	true
cis_n_roots             2
cis_singlets            true
cis_triplets		false
rpa                     false
calc_soc 		true
cis_moments             true
cis_relaxed_density	true
solvent_method		pcm
$end

$pcm
StateSpecific   1
ChargeSeparation Excited
$end

$molecule
read moms1opt_tol.mol
$end

--------------------------------------------------------------

   15   -2202.2642935454      6.33e-09  Convergence criterion met
 Total energy in the final basis set =    -2202.2642935454
 Total job time:  6573.68s(wall), 25116.61s(cpu)
        *  Thank you very much for using Q-Chem.  Have a nice day.  *
 Q-Chem 5.1, Q-Chem, Inc., Pleasanton, CA (2018)
 Q-Chem 5.1.1 for Intel X86 EM64T Linux

User input:
--------------------------------------------------------------
$rem
threads 8
jobtype sp
method PBEh-3c
basis def2-mSVP
mem_static      1024
mem_total       14000
sym_ignore      true
cis_n_roots             6
cis_singlets            true
cis_triplets            true
rpa                     false
calc_soc                true
cis_moments             true
cis_relaxed_density     true
solvent_method          pcm
$end

$molecule
read
$end

$pcm
statespecific           Marcus
$end

$solvent
dielectric      2.38
dielectric_infi 2.25
$end

--------------------------------------------------------------

             Standard Nuclear Orientation (Angstroms)
    I     Atom           X                Y                Z
 ----------------------------------------------------------------
    1      C       0.0000000000     0.0000000000     0.0000000000
    2      C       0.0000000000     0.0000000000     1.4054910000
    3      H       0.9484511212     0.0000000000     1.9335334964
    4      C      -1.1785261818     0.0040481916     2.1105737138
    5      C      -2.4317068585     0.0105783349     1.4296926396
    6      C      -2.4570150499     0.0043727495     0.0571489733
    7      H      -3.4137854323     0.0040487008    -0.4584580889
    8      C      -1.2522664762    -0.0033806590    -0.6892774030
    9      C      -1.4329856318     0.0080846662     3.5433242841
   10      C      -0.6439756266     0.0041159203     4.6668011541
   11      H       0.4374061881    -0.0049008593     4.6046309006
   12      C      -2.8330135035     0.0188994352     3.6972990752
   13      C      -3.4769916778     0.0271361901     4.9309815461
   14      C      -3.4864047140     0.0211136280     2.4473913450
   15      C      -4.8576771728     0.0325476574     2.4392998108
   16      H      -5.4237164224     0.0356823505     1.5159762521
   17      C      -1.2732224443     0.0123246088     5.9323082417
   18      H      -0.6514226722     0.0095742467     6.8187498188
   19      C      -2.6419808959     0.0236455911     6.0765096324
   20      H      -3.0801990302     0.0299876483     7.0670777629
   21      C      -4.8913119193     0.0386282379     4.8897428681
   22      H      -5.4615260989     0.0459621130     5.8106806564
   23      C      -5.5429629030     0.0413349670     3.6773960353
   24      H      -6.6254131860     0.0510322697     3.6663574879
   25      B      -1.2490749872    -0.0091206280    -2.2162002790
   26      C       0.0519763544     0.0312667767    -3.0159077931
   27      C       0.0572215279     0.0665294233    -4.4321161427
   28      H      -0.8830535685     0.0776202601    -4.9768782354
   29      C       1.2410791217     0.0876645645    -5.1270992309
   30      C       2.4753385082     0.0650343626    -4.4134729365
   31      C       2.4920265210     0.0346863663    -3.0415840344
   32      H       3.4386244675     0.0200724338    -2.5112557891
   33      C       1.2934543829     0.0252244798    -2.3090472751
   34      C       3.5665738122     0.0850472106    -5.3773451690
   35      C       4.9371287229     0.0765159139    -5.2921624189
   36      H       5.4492496508     0.0468266435    -4.3381882100
   37      C       2.9680524224     0.1235432217    -6.6513813446
   38      C       3.6865792357     0.1562823823    -7.8444294706
   39      C       1.5608015453     0.1274595185    -6.5594179917
   40      C       0.8430684960     0.1675819743    -7.7281198192
   41      H      -0.2398589409     0.1757519989    -7.7337709964
   42      C       5.6896400561     0.1080229332    -6.4887972311
   43      H       6.7702744160     0.1010456176    -6.4201507857
   44      C       5.0993956267     0.1473444418    -7.7310695208
   45      H       5.7148513991     0.1708650671    -8.6222836895
   46      C       2.9179423362     0.1961070888    -9.0312775139
   47      H       3.4094776474     0.2238392808    -9.9963160380
   48      C       1.5438384928     0.2010645086    -8.9573687223
   49      H       0.9711793130     0.2329954271    -9.8755601328
   50      B       1.3321601795     0.0077536982    -0.7709503966
   51      C      -2.6130311625    -0.0272340158    -2.9957560673
   52      C      -3.3039944969     1.2084490981    -3.2382873739
   53      C      -4.5307767257     1.1898412091    -3.8298055853
   54      H      -5.0891106911     2.1016660711    -4.0031434859
   55      C      -5.1111275867    -0.0420283115    -4.2381323528
   56      O      -6.2925077802     0.0572627862    -4.7835457707
   57      C      -4.4201117819    -1.2604984142    -4.0650032020
   58      H      -4.8479549790    -2.1934743613    -4.4079035886
   59      C      -3.1890679389    -1.2595399768    -3.4666597279
   60      C      -6.9946142478    -1.1000114725    -5.2358476688
   61      H      -7.9436436544    -0.7394781902    -5.6188861547
   62      H      -7.1735729992    -1.7935309572    -4.4140927929
   63      H      -6.4470348545    -1.6005355234    -6.0346762457
   64      C      -2.6660373659     2.4904701306    -2.8132367192
   65      H      -3.2616236227     3.3533540982    -3.1065312555
   66      H      -1.6710471647     2.5881843160    -3.2505195290
   67      H      -2.5304805065     2.5144274463    -1.7306768476
   68      C      -2.4505079860    -2.5475902856    -3.2710775906
   69      H      -1.3782332041    -2.3758990051    -3.3793846597
   70      H      -2.7421096277    -3.2506773775    -4.0541312905
   71      C      -2.7261502906    -3.1681871281    -1.8993090706
   72      H      -2.3895168465    -2.5196014448    -1.0922722966
   73      H      -2.1923745927    -4.1134832803    -1.8079552552
   74      H      -3.7894422847    -3.3650856018    -1.7590904393
   75      C       2.7190380916    -0.0254960696    -0.0075949697
   76      C       3.4582535786     1.1330429173     0.2363014891
   77      C       4.6887870387     1.0788299334     0.8960327552
   78      H       5.2277429326     2.0044498210     1.0614200720
   79      C       5.2027480197    -0.1360077079     1.3190222302
   80      O       6.3827503475    -0.2879544881     1.9634198393
   81      C       4.4806927932    -1.3019176134     1.0733381445
   82      H       4.8913780416    -2.2518564128     1.3962704223
   83      C       3.2597382147    -1.2522772817     0.4219277149
   84      C       7.1412984742     0.8610760115     2.2430396601
   85      H       8.0313891891     0.5266863576     2.7723555557
   86      H       6.6024980605     1.5689739793     2.8808761543
   87      H       7.4545239565     1.3840495069     1.3337154815
   88      C       2.5129179781    -2.5302010366     0.1608734085
   89      H       3.0668030797    -3.4004035874     0.5131644178
   90      H       1.5404515887    -2.5305259594     0.6566217362
   91      H       2.3234556436    -2.6653270574    -0.9061599347
   92      C       2.9371308107     2.4915868782    -0.1590521353
   93      H       2.2798608221     2.4060346835    -1.0273407791
   94      H       3.7712581122     3.1264230645    -0.4713044955
   95      C       2.1837880238     3.1735485764     0.9807679882
   96      H       1.3177637405     2.5843145236     1.2829301383
   97      H       1.8283082945     4.1606544521     0.6815841510
   98      H       2.8224544057     3.2989176399     1.8564913606
 ----------------------------------------------------------------

   15   -2202.2637999726      6.42e-09  Convergence criterion met
 Total energy in the final basis set =    -2202.2637999726

         TDDFT/TDA Excitation Energies
 ---------------------------------------------------

 Excited state   1: excitation energy (eV) =    2.2168
 Total energy for state  1:                 -2202.18233432 au
    Multiplicity: Triplet
    Trans. Mom.:  0.0000 X   0.0000 Y   0.0000 Z
    Strength   :     0.0000000000
    D(183) --> V(  2) amplitude =  0.2390
    D(187) --> V(  1) amplitude =  0.7254
    D(188) --> V(  1) amplitude =  0.5637

 Excited state   2: excitation energy (eV) =    2.3563
 Total energy for state  2:                 -2202.17720803 au
    Multiplicity: Triplet
    Trans. Mom.:  0.0000 X   0.0000 Y   0.0000 Z
    Strength   :     0.0000000000
    D(190) --> V(  1) amplitude =  0.9560

 Excited state   3: excitation energy (eV) =    2.4044
 Total energy for state  3:                 -2202.17544013 au
    Multiplicity: Singlet
    Trans. Mom.: -0.2611 X   0.0130 Y  -0.2095 Z
    Strength   :     0.0066118126
    D(190) --> V(  1) amplitude =  0.9733

 Excited state   4: excitation energy (eV) =    2.4401
 Total energy for state  4:                 -2202.17412621 au
    Multiplicity: Triplet
    Trans. Mom.:  0.0000 X   0.0000 Y   0.0000 Z
    Strength   :     0.0000000000
    D(186) --> V(  2) amplitude = -0.4673
    D(187) --> V(  1) amplitude = -0.5102
    D(188) --> V(  1) amplitude =  0.6188

 Excited state   5: excitation energy (eV) =    2.4958
 Total energy for state  5:                 -2202.17208274 au
    Multiplicity: Triplet
    Trans. Mom.:  0.0000 X   0.0000 Y   0.0000 Z
    Strength   :     0.0000000000
    D(186) --> V(  1) amplitude =  0.7248
    D(186) --> V(  4) amplitude = -0.2317
    D(187) --> V(  2) amplitude =  0.2352
    D(188) --> V(  2) amplitude = -0.4913

 Excited state   6: excitation energy (eV) =    2.7291
 Total energy for state  6:                 -2202.16350777 au
    Multiplicity: Triplet
    Trans. Mom.:  0.0000 X   0.0000 Y   0.0000 Z
    Strength   :     0.0000000000
    D(183) --> V(  1) amplitude = -0.6878
    D(187) --> V(  2) amplitude = -0.4951
    D(188) --> V(  2) amplitude = -0.2353

 Excited state   7: excitation energy (eV) =    2.8845
 Total energy for state  7:                 -2202.15779801 au
    Multiplicity: Triplet
    Trans. Mom.:  0.0000 X   0.0000 Y   0.0000 Z
    Strength   :     0.0000000000
    D(189) --> V(  1) amplitude =  0.9247

 Excited state   8: excitation energy (eV) =    2.8852
 Total energy for state  8:                 -2202.15777187 au
    Multiplicity: Singlet
    Trans. Mom.:  0.2632 X  -0.0002 Y  -0.4155 Z
    Strength   :     0.0170985356
    D(187) --> V(  1) amplitude =  0.7769
    D(188) --> V(  1) amplitude =  0.5717

 Excited state   9: excitation energy (eV) =    2.9247
 Total energy for state  9:                 -2202.15632060 au
    Multiplicity: Singlet
    Trans. Mom.:  0.3487 X  -0.0094 Y   0.0504 Z
    Strength   :     0.0089017102
    D(189) --> V(  1) amplitude =  0.9657

 Excited state  10: excitation energy (eV) =    3.1326
 Total energy for state 10:                 -2202.14867727 au
    Multiplicity: Singlet
    Trans. Mom.:  2.0039 X   0.0326 Y  -3.6050 Z
    Strength   :     1.3057002918
    D(187) --> V(  1) amplitude = -0.5679
    D(188) --> V(  1) amplitude =  0.7693

 Excited state  11: excitation energy (eV) =    3.4442
 Total energy for state 11:                 -2202.13722736 au
    Multiplicity: Singlet
    Trans. Mom.:  0.1715 X   0.0561 Y   0.1046 Z
    Strength   :     0.0036688408
    D(186) --> V(  1) amplitude =  0.9374

 Excited state  12: excitation energy (eV) =    3.6619
 Total energy for state 12:                 -2202.12922733 au
    Multiplicity: Singlet
    Trans. Mom.:  0.8725 X   0.0311 Y   0.4849 Z
    Strength   :     0.0894706582
    D(183) --> V(  1) amplitude = -0.7519
    D(187) --> V(  2) amplitude = -0.4786
    D(188) --> V(  2) amplitude = -0.2756

 ---------------------------------------------------

                    Orbital Energies (a.u.)
 --------------------------------------------------------------

 Alpha MOs
 -- Occupied --
-19.526 -19.525 -10.503 -10.503 -10.487 -10.485 -10.466 -10.465
-10.465 -10.465 -10.465 -10.464 -10.464 -10.464 -10.464 -10.463
-10.463 -10.463 -10.462 -10.462 -10.461 -10.461 -10.461 -10.461
-10.459 -10.459 -10.458 -10.458 -10.456 -10.455 -10.453 -10.453
-10.452 -10.451 -10.449 -10.449 -10.448 -10.447 -10.436 -10.435
-10.434 -10.434 -10.434 -10.433 -10.431 -10.430 -10.428 -10.426
-10.425 -10.422 -10.420 -10.419 -10.417 -10.414  -6.947  -6.939
 -1.192  -1.181  -1.016  -1.016  -0.962  -0.959  -0.955  -0.945
 -0.933  -0.933  -0.908  -0.899  -0.883  -0.882  -0.860  -0.855
 -0.853  -0.849  -0.847  -0.846  -0.823  -0.816  -0.816  -0.813
 -0.812  -0.804  -0.774  -0.769  -0.763  -0.761  -0.735  -0.729
 -0.726  -0.720  -0.708  -0.706  -0.689  -0.682  -0.679  -0.666
 -0.657  -0.646  -0.645  -0.644  -0.636  -0.631  -0.595  -0.592
 -0.591  -0.588  -0.584  -0.582  -0.580  -0.575  -0.575  -0.561
 -0.558  -0.543  -0.543  -0.536  -0.535  -0.533  -0.526  -0.523
 -0.513  -0.507  -0.503  -0.499  -0.496  -0.495  -0.494  -0.492
 -0.489  -0.489  -0.485  -0.485  -0.483  -0.480  -0.478  -0.473
 -0.472  -0.471  -0.467  -0.465  -0.464  -0.463  -0.461  -0.454
 -0.447  -0.443  -0.440  -0.437  -0.435  -0.428  -0.427  -0.425
 -0.424  -0.422  -0.420  -0.415  -0.413  -0.410  -0.405  -0.403
 -0.397  -0.396  -0.395  -0.393  -0.391  -0.391  -0.385  -0.382
 -0.379  -0.373  -0.367  -0.363  -0.359  -0.357  -0.353  -0.350
 -0.342  -0.335  -0.320  -0.315  -0.296  -0.295  -0.283  -0.278
 -0.276  -0.262  -0.257  -0.255  -0.252  -0.233

          Ground-State Mulliken Net Atomic Charges

     Atom                 Charge (a.u.)
  ----------------------------------------
      1 C                    -0.143682
      2 C                    -0.402336
      3 H                     0.245706
      4 C                     0.084116
      5 C                     0.104812
      6 C                    -0.399658
      7 H                     0.247718
      8 C                    -0.152123
      9 C                     0.181941
     10 C                    -0.384795
     11 H                     0.242626
     12 C                    -0.067056
     13 C                     0.231998
     14 C                     0.187892
     15 C                    -0.394141
     16 H                     0.243321
     17 C                    -0.224893
     18 H                     0.247465
     19 C                    -0.341491
     20 H                     0.243506
     21 C                    -0.346717
     22 H                     0.243774
     23 C                    -0.221870
     24 H                     0.247109
     25 B                     0.653719
     26 C                    -0.148886
     27 C                    -0.394127
     28 H                     0.243645
     29 C                     0.104490
     30 C                     0.081931
     31 C                    -0.389108
     32 H                     0.241996
     33 C                    -0.156287
     34 C                     0.183722
     35 C                    -0.384850
     36 H                     0.242287
     37 C                    -0.066884
     38 C                     0.230152
     39 C                     0.186681
     40 C                    -0.394667
     41 H                     0.242721
     42 C                    -0.225014
     43 H                     0.246995
     44 C                    -0.340980
     45 H                     0.243412
     46 C                    -0.345877
     47 H                     0.243582
     48 C                    -0.221692
     49 H                     0.246980
     50 B                     0.668742
     51 C                    -0.258888
     52 C                     0.076055
     53 C                    -0.412421
     54 H                     0.231107
     55 C                     0.392232
     56 O                    -0.450714
     57 C                    -0.463192
     58 H                     0.239591
     59 C                     0.099208
     60 C                    -0.417569
     61 H                     0.252530
     62 H                     0.221474
     63 H                     0.221441
     64 C                    -0.768838
     65 H                     0.246409
     66 H                     0.247479
     67 H                     0.247806
     68 C                    -0.549891
     69 H                     0.251718
     70 H                     0.234693
     71 C                    -0.657392
     72 H                     0.244922
     73 H                     0.222808
     74 H                     0.219378
     75 C                    -0.224616
     76 C                     0.067021
     77 C                    -0.434571
     78 H                     0.243879
     79 C                     0.392558
     80 O                    -0.464881
     81 C                    -0.396858
     82 H                     0.235222
     83 C                     0.048145
     84 C                    -0.420977
     85 H                     0.248235
     86 H                     0.213725
     87 H                     0.213605
     88 C                    -0.768165
     89 H                     0.247830
     90 H                     0.247790
     91 H                     0.247035
     92 C                    -0.548217
     93 H                     0.252520
     94 H                     0.235646
     95 C                    -0.650969
     96 H                     0.236935
     97 H                     0.224684
     98 H                     0.218577
  ----------------------------------------
  Sum of atomic charges =    -0.000000

                    Cartesian Multipole Moments
 -----------------------------------------------------------------
    Charge (ESU x 10^10)
                -0.0000
    Dipole Moment (Debye)
         X      -0.4248      Y       0.0287      Z      -0.2538
       Tot       0.4957
    Quadrupole Moments (Debye-Ang)
        XX    -263.4237     XY      21.3649     YY    -322.7921
        XZ      -0.5540     YZ      10.5242     ZZ    -264.4571

 Total job time:  13208.34s(wall), 46370.09s(cpu)
        *  Thank you very much for using Q-Chem.  Have a nice day.  *
