 Q-Chem 5.1, Q-Chem, Inc., Pleasanton, CA (2018)
 Q-Chem 5.1.1 for Intel X86 EM64T Linux

User input:
--------------------------------------------------------------
$solvent
dielectric      2.03
dielectric_infi 2.02
$end

$rem
threads 8
jobtype	sp
method PBEh-3c
basis def2-mSVP
mem_static	1024
mem_total	14000
sym_ignore	true
cis_n_roots             2
cis_singlets            true
cis_triplets		false
rpa                     false
calc_soc 		true
cis_moments             true
cis_relaxed_density	true
solvent_method		pcm
$end

$pcm
StateSpecific   1
ChargeSeparation Excited
$end

$molecule
read moms1opt_chx.mol
$end

--------------------------------------------------------------

   15   -2202.2619785263      6.61e-09  Convergence criterion met
 Total energy in the final basis set =    -2202.2619785263
 Total job time:  5964.28s(wall), 22201.35s(cpu)
        *  Thank you very much for using Q-Chem.  Have a nice day.  *
 Q-Chem 5.1, Q-Chem, Inc., Pleasanton, CA (2018)
 Q-Chem 5.1.1 for Intel X86 EM64T Linux

User input:
--------------------------------------------------------------
$rem
threads 8
jobtype sp
method PBEh-3c
basis def2-mSVP
mem_static      1024
mem_total       14000
sym_ignore      true
cis_n_roots             6
cis_singlets            true
cis_triplets            true
rpa                     false
calc_soc                true
cis_moments             true
cis_relaxed_density     true
solvent_method          pcm
$end

$molecule
read
$end

$pcm
statespecific           Marcus
$end

$solvent
dielectric      2.03
dielectric_infi 2.02
$end

--------------------------------------------------------------

             Standard Nuclear Orientation (Angstroms)
    I     Atom           X                Y                Z
 ----------------------------------------------------------------
    1      C       0.0000000000     0.0000000000     0.0000000000
    2      C       0.0000000000     0.0000000000     1.4053120000
    3      H       0.9487086714     0.0000000000     1.9328916281
    4      C      -1.1784887807     0.0038958956     2.1104425019
    5      C      -2.4315431859     0.0105307790     1.4296798451
    6      C      -2.4568398445     0.0045851530     0.0572528367
    7      H      -3.4137028845     0.0043413171    -0.4583130171
    8      C      -1.2520133759    -0.0029276086    -0.6892040733
    9      C      -1.4328927855     0.0075551483     3.5431145544
   10      C      -0.6438870200     0.0038562288     4.6664315744
   11      H       0.4374585910    -0.0050034437     4.6040623362
   12      C      -2.8328307177     0.0183074080     3.6972436398
   13      C      -3.4766584455     0.0268205878     4.9308865708
   14      C      -3.4862143045     0.0209073955     2.4474432506
   15      C      -4.8573388985     0.0328959671     2.4395020907
   16      H      -5.4234023730     0.0364682701     1.5161949728
   17      C      -1.2729458232     0.0121629064     5.9319276344
   18      H      -0.6510876959     0.0095739670     6.8183141025
   19      C      -2.6415489281     0.0234620352     6.0762403195
   20      H      -3.0796188838     0.0299171926     7.0668579510
   21      C      -4.8908474810     0.0387704410     4.8896700873
   22      H      -5.4610333620     0.0462376148     5.8106149161
   23      C      -5.5425783484     0.0417972304     3.6775009261
   24      H      -6.6250194866     0.0518750125     3.6665937035
   25      B      -1.2477764183    -0.0087324097    -2.2159341590
   26      C       0.0529292255     0.0315185687    -3.0160331437
   27      C       0.0585354006     0.0676120290    -4.4322812003
   28      H      -0.8816069473     0.0804413627    -4.9773697953
   29      C       1.2424941481     0.0876139274    -5.1268251131
   30      C       2.4763264046     0.0628575580    -4.4128924889
   31      C       2.4925865418     0.0325629053    -3.0410192767
   32      H       3.4387875970     0.0166607503    -2.5100692921
   33      C       1.2939581841     0.0245608095    -2.3089004575
   34      C       3.5678400444     0.0819773990    -5.3763679102
   35      C       4.9382241798     0.0717711425    -5.2907347808
   36      H       5.4498240146     0.0405199040    -4.3365615426
   37      C       2.9699346069     0.1224541163    -6.6505468019
   38      C       3.6889006322     0.1559167133    -7.8432027678
   39      C       1.5627583025     0.1283848574    -6.5590233574
   40      C       0.8456287107     0.1715436630    -7.7278101740
   41      H      -0.2372773572     0.1816752861    -7.7337950930
   42      C       5.6912184312     0.1036529818    -6.4869506504
   43      H       6.7718079198     0.0953069549    -6.4179251759
   44      C       5.1015753290     0.1451533701    -7.7292814628
   45      H       5.7174551373     0.1690547980    -8.6201791408
   46      C       2.9207321485     0.1986830441    -9.0301110904
   47      H       3.4125934497     0.2271407246    -9.9949533971
   48      C       1.5467420216     0.2057336664    -8.9567363467
   49      H       0.9744989186     0.2400306459    -9.8750959213
   50      B       1.3323908157     0.0072914175    -0.7706694080
   51      C      -2.6107097057    -0.0264904669    -2.9957799402
   52      C      -3.3028275548     1.2092718445    -3.2362835405
   53      C      -4.5298578385     1.1905241161    -3.8274093489
   54      H      -5.0890411314     2.1021097726    -3.9991540221
   55      C      -5.1092141636    -0.0407416625    -4.2376074667
   56      O      -6.2915021120     0.0588685242    -4.7831833564
   57      C      -4.4178502744    -1.2588176464    -4.0665633489
   58      H      -4.8454821537    -2.1916791383    -4.4100571525
   59      C      -3.1861039586    -1.2584246912    -3.4691692411
   60      C      -6.9913080846    -1.0977335577    -5.2376953007
   61      H      -7.9402349335    -0.7380119074    -5.6219755758
   62      H      -7.1716256698    -1.7929210349    -4.4174532438
   63      H      -6.4427779198    -1.5975981157    -6.0364578543
   64      C      -2.6653015484     2.4905484329    -2.8089099169
   65      H      -3.2594837331     3.3541565314    -3.1030311905
   66      H      -1.6688896478     2.5874533270    -3.2431298486
   67      H      -2.5323178884     2.5131695232    -1.7259780146
   68      C      -2.4461868978    -2.5459368283    -3.2762943414
   69      H      -1.3743683221    -2.3728148739    -3.3867577243
   70      H      -2.7389128908    -3.2488439390    -4.0591905145
   71      C      -2.7178968093    -3.1673591980    -1.9039633648
   72      H      -2.3790191924    -2.5191334793    -1.0976254634
   73      H      -2.1834095040    -4.1124305119    -1.8147065094
   74      H      -3.7806500671    -3.3648930835    -1.7606124925
   75      C       2.7191631961    -0.0255689857    -0.0076364422
   76      C       3.4595158146     1.1327305760     0.2336421606
   77      C       4.6902546738     1.0783902355     0.8926341848
   78      H       5.2301551473     2.0038102238     1.0559679223
   79      C       5.2032760582    -0.1361197511     1.3175175661
   80      O       6.3836032829    -0.2880010674     1.9613794561
   81      C       4.4801014136    -1.3016647360     1.0744116640
   82      H       4.8904279479    -2.2511873139     1.3988058642
   83      C       3.2589699357    -1.2520792386     0.4236116490
   84      C       7.1432224585     0.8602895316     2.2377263371
   85      H       8.0334944935     0.5261632811     2.7669899809
   86      H       6.6059757529     1.5703864352     2.8746051996
   87      H       7.4564039753     1.3812637216     1.3271102542
   88      C       2.5108295782    -2.5297061828     0.1649704702
   89      H       3.0651025484    -3.3999764564     0.5164677899
   90      H       1.5395219199    -2.5292767467     0.6629588639
   91      H       2.3190358018    -2.6652993289    -0.9015767520
   92      C       2.9390250174     2.4908983042    -0.1635956869
   93      H       2.2863459909     2.4051937538    -1.0353456276
   94      H       3.7740982774     3.1266497218    -0.4715079690
   95      C       2.1796566764     3.1717700403     0.9728216554
   96      H       1.3126073916     2.5819810615     1.2707735932
   97      H       1.8249550229     4.1587874275     0.6723885510
   98      H       2.8141138187     3.2971388088     1.8515894993
 ----------------------------------------------------------------

   15   -2202.2619310695      6.62e-09  Convergence criterion met
 Total energy in the final basis set =    -2202.2619310695

         TDDFT/TDA Excitation Energies
 ---------------------------------------------------

 Excited state   1: excitation energy (eV) =    2.2141
 Total energy for state  1:                 -2202.18056263 au
    Multiplicity: Triplet
    Trans. Mom.:  0.0000 X   0.0000 Y   0.0000 Z
    Strength   :     0.0000000000
    D(183) --> V(  2) amplitude = -0.2388
    D(187) --> V(  1) amplitude =  0.7045
    D(188) --> V(  1) amplitude =  0.5898

 Excited state   2: excitation energy (eV) =    2.3790
 Total energy for state  2:                 -2202.17450503 au
    Multiplicity: Triplet
    Trans. Mom.:  0.0000 X   0.0000 Y   0.0000 Z
    Strength   :     0.0000000000
    D(190) --> V(  1) amplitude =  0.9491

 Excited state   3: excitation energy (eV) =    2.4291
 Total energy for state  3:                 -2202.17266214 au
    Multiplicity: Singlet
    Trans. Mom.:  0.2623 X  -0.0129 Y   0.2104 Z
    Strength   :     0.0067394700
    D(190) --> V(  1) amplitude =  0.9730

 Excited state   4: excitation energy (eV) =    2.4410
 Total energy for state  4:                 -2202.17222651 au
    Multiplicity: Triplet
    Trans. Mom.:  0.0000 X   0.0000 Y   0.0000 Z
    Strength   :     0.0000000000
    D(186) --> V(  2) amplitude = -0.4661
    D(187) --> V(  1) amplitude = -0.5307
    D(188) --> V(  1) amplitude =  0.5982

 Excited state   5: excitation energy (eV) =    2.4966
 Total energy for state  5:                 -2202.17018369 au
    Multiplicity: Triplet
    Trans. Mom.:  0.0000 X   0.0000 Y   0.0000 Z
    Strength   :     0.0000000000
    D(186) --> V(  1) amplitude =  0.7220
    D(186) --> V(  4) amplitude = -0.2309
    D(187) --> V(  2) amplitude =  0.2523
    D(188) --> V(  2) amplitude = -0.4806

 Excited state   6: excitation energy (eV) =    2.7270
 Total energy for state  6:                 -2202.16171386 au
    Multiplicity: Triplet
    Trans. Mom.:  0.0000 X   0.0000 Y   0.0000 Z
    Strength   :     0.0000000000
    D(183) --> V(  1) amplitude =  0.6866
    D(187) --> V(  2) amplitude = -0.4866
    D(188) --> V(  2) amplitude = -0.2521

 Excited state   7: excitation energy (eV) =    2.8813
 Total energy for state  7:                 -2202.15604352 au
    Multiplicity: Triplet
    Trans. Mom.:  0.0000 X   0.0000 Y   0.0000 Z
    Strength   :     0.0000000000
    D(189) --> V(  1) amplitude =  0.9241

 Excited state   8: excitation energy (eV) =    2.8838
 Total energy for state  8:                 -2202.15595484 au
    Multiplicity: Singlet
    Trans. Mom.: -0.2600 X   0.0009 Y   0.4049 Z
    Strength   :     0.0163614164
    D(187) --> V(  1) amplitude =  0.7571
    D(188) --> V(  1) amplitude =  0.5966

 Excited state   9: excitation energy (eV) =    2.9216
 Total energy for state  9:                 -2202.15456397 au
    Multiplicity: Singlet
    Trans. Mom.: -0.3404 X   0.0087 Y  -0.0595 Z
    Strength   :     0.0085504302
    D(189) --> V(  1) amplitude =  0.9651

 Excited state  10: excitation energy (eV) =    3.1421
 Total energy for state 10:                 -2202.14645960 au
    Multiplicity: Singlet
    Trans. Mom.: -1.9747 X  -0.0320 Y   3.5498 Z
    Strength   :     1.2703206270
    D(187) --> V(  1) amplitude = -0.5926
    D(188) --> V(  1) amplitude =  0.7498

 Excited state  11: excitation energy (eV) =    3.4532
 Total energy for state 11:                 -2202.13502961 au
    Multiplicity: Singlet
    Trans. Mom.: -0.1680 X  -0.0553 Y  -0.1097 Z
    Strength   :     0.0036665200
    D(186) --> V(  1) amplitude =  0.9369

 Excited state  12: excitation energy (eV) =    3.6618
 Total energy for state 12:                 -2202.12736215 au
    Multiplicity: Singlet
    Trans. Mom.: -0.8513 X  -0.0311 Y  -0.4739 Z
    Strength   :     0.0852441568
    D(183) --> V(  1) amplitude =  0.7476
    D(187) --> V(  2) amplitude = -0.4705
    D(188) --> V(  2) amplitude = -0.2941

 ---------------------------------------------------

                    Orbital Energies (a.u.)
 --------------------------------------------------------------

 Alpha MOs
 -- Occupied --
-19.526 -19.525 -10.503 -10.502 -10.489 -10.485 -10.465 -10.465
-10.465 -10.464 -10.464 -10.464 -10.464 -10.463 -10.463 -10.463
-10.462 -10.462 -10.461 -10.461 -10.461 -10.461 -10.460 -10.460
-10.458 -10.458 -10.458 -10.458 -10.455 -10.454 -10.452 -10.452
-10.451 -10.450 -10.449 -10.448 -10.447 -10.447 -10.435 -10.434
-10.434 -10.433 -10.433 -10.433 -10.430 -10.430 -10.429 -10.426
-10.424 -10.422 -10.420 -10.418 -10.417 -10.414  -6.947  -6.938
 -1.192  -1.181  -1.016  -1.015  -0.961  -0.958  -0.954  -0.945
 -0.933  -0.932  -0.907  -0.898  -0.882  -0.882  -0.860  -0.854
 -0.853  -0.849  -0.846  -0.845  -0.823  -0.816  -0.815  -0.812
 -0.811  -0.803  -0.774  -0.769  -0.762  -0.761  -0.735  -0.728
 -0.726  -0.720  -0.708  -0.706  -0.688  -0.681  -0.679  -0.665
 -0.656  -0.646  -0.645  -0.643  -0.636  -0.631  -0.595  -0.591
 -0.590  -0.587  -0.583  -0.582  -0.580  -0.575  -0.575  -0.560
 -0.558  -0.543  -0.543  -0.537  -0.535  -0.532  -0.526  -0.522
 -0.512  -0.506  -0.503  -0.498  -0.496  -0.495  -0.494  -0.492
 -0.489  -0.488  -0.485  -0.484  -0.483  -0.480  -0.478  -0.473
 -0.472  -0.470  -0.467  -0.465  -0.465  -0.463  -0.460  -0.454
 -0.446  -0.443  -0.439  -0.437  -0.435  -0.427  -0.427  -0.425
 -0.423  -0.422  -0.420  -0.414  -0.412  -0.410  -0.405  -0.403
 -0.397  -0.395  -0.395  -0.393  -0.391  -0.391  -0.384  -0.382
 -0.378  -0.372  -0.366  -0.362  -0.359  -0.356  -0.352  -0.349
 -0.341  -0.335  -0.319  -0.314  -0.296  -0.295  -0.282  -0.278
 -0.275  -0.262  -0.256  -0.254  -0.251  -0.233

          Ground-State Mulliken Net Atomic Charges

     Atom                 Charge (a.u.)
  ----------------------------------------
      1 C                    -0.143160
      2 C                    -0.402267
      3 H                     0.244851
      4 C                     0.085819
      5 C                     0.106624
      6 C                    -0.399439
      7 H                     0.245654
      8 C                    -0.152080
      9 C                     0.183658
     10 C                    -0.383706
     11 H                     0.239904
     12 C                    -0.066694
     13 C                     0.235014
     14 C                     0.189835
     15 C                    -0.393245
     16 H                     0.240073
     17 C                    -0.222315
     18 H                     0.244601
     19 C                    -0.340239
     20 H                     0.240299
     21 C                    -0.345584
     22 H                     0.240552
     23 C                    -0.219231
     24 H                     0.244109
     25 B                     0.654103
     26 C                    -0.148744
     27 C                    -0.393658
     28 H                     0.241617
     29 C                     0.106265
     30 C                     0.083716
     31 C                    -0.388356
     32 H                     0.241005
     33 C                    -0.156026
     34 C                     0.185479
     35 C                    -0.383743
     36 H                     0.239565
     37 C                    -0.066533
     38 C                     0.233164
     39 C                     0.188650
     40 C                    -0.393793
     41 H                     0.239466
     42 C                    -0.222430
     43 H                     0.244098
     44 C                    -0.339741
     45 H                     0.240176
     46 C                    -0.344750
     47 H                     0.240334
     48 C                    -0.219042
     49 H                     0.243958
     50 B                     0.670100
     51 C                    -0.258119
     52 C                     0.076574
     53 C                    -0.410135
     54 H                     0.229094
     55 C                     0.392703
     56 O                    -0.450031
     57 C                    -0.461627
     58 H                     0.236175
     59 C                     0.100009
     60 C                    -0.415796
     61 H                     0.251281
     62 H                     0.219745
     63 H                     0.219679
     64 C                    -0.767838
     65 H                     0.244649
     66 H                     0.247743
     67 H                     0.248115
     68 C                    -0.549843
     69 H                     0.252594
     70 H                     0.232825
     71 C                    -0.656331
     72 H                     0.246263
     73 H                     0.222098
     74 H                     0.218279
     75 C                    -0.224716
     76 C                     0.068549
     77 C                    -0.433154
     78 H                     0.240731
     79 C                     0.393791
     80 O                    -0.463456
     81 C                    -0.394428
     82 H                     0.233366
     83 C                     0.049405
     84 C                    -0.418915
     85 H                     0.246902
     86 H                     0.212201
     87 H                     0.212049
     88 C                    -0.767141
     89 H                     0.246295
     90 H                     0.247642
     91 H                     0.246786
     92 C                    -0.548214
     93 H                     0.252786
     94 H                     0.234180
     95 C                    -0.649787
     96 H                     0.237757
     97 H                     0.223656
     98 H                     0.217698
  ----------------------------------------
  Sum of atomic charges =    -0.000000

                    Cartesian Multipole Moments
 -----------------------------------------------------------------
    Charge (ESU x 10^10)
                -0.0000
    Dipole Moment (Debye)
         X      -0.3131      Y       0.0319      Z      -0.1899
       Tot       0.3676
    Quadrupole Moments (Debye-Ang)
        XX    -265.2069     XY      20.8107     YY    -323.0868
        XZ      -0.7782     YZ      10.2189     ZZ    -266.3324

 Total job time:  11263.80s(wall), 40426.49s(cpu)
        *  Thank you very much for using Q-Chem.  Have a nice day.  *
