 Q-Chem 5.1, Q-Chem, Inc., Pleasanton, CA (2018)
 Q-Chem 5.1.1 for Intel X86 EM64T Linux

User input:
--------------------------------------------------------------
$solvent
dielectric      4.33
dielectric_infi 1.83
$end

$rem
threads 8
jobtype	sp
method PBEh-3c
basis def2-mSVP
mem_static	1024
mem_total	14000
sym_ignore	true
cis_n_roots             2
cis_singlets            true
cis_triplets		false
rpa                     false
calc_soc 		true
cis_moments             true
cis_relaxed_density	true
solvent_method		pcm
$end

$pcm
StateSpecific   1
ChargeSeparation Excited
$end

$molecule
read moms1opt_eth.mol
$end

--------------------------------------------------------------

   14   -2202.2816517674      8.03e-09  Convergence criterion met
 Total energy in the final basis set =    -2202.2816517674
 Total job time:  5001.68s(wall), 17750.22s(cpu)
        *  Thank you very much for using Q-Chem.  Have a nice day.  *
 Q-Chem 5.1, Q-Chem, Inc., Pleasanton, CA (2018)
 Q-Chem 5.1.1 for Intel X86 EM64T Linux

User input:
--------------------------------------------------------------
$rem
threads 8
jobtype sp
method PBEh-3c
basis def2-mSVP
mem_static      1024
mem_total       14000
sym_ignore      true
cis_n_roots             6
cis_singlets            true
cis_triplets            true
rpa                     false
calc_soc                true
cis_moments             true
cis_relaxed_density     true
solvent_method          pcm
$end

$molecule
read
$end

$pcm
statespecific           Marcus
$end

$solvent
dielectric      4.33
dielectric_infi 1.83
$end

--------------------------------------------------------------

             Standard Nuclear Orientation (Angstroms)
    I     Atom           X                Y                Z
 ----------------------------------------------------------------
    1      C       0.0000000000     0.0000000000     0.0000000000
    2      C       0.0000000000     0.0000000000     1.3953990000
    3      H       0.9404341240     0.0000000000     1.9359834144
    4      C      -1.1971544522     0.0028666390     2.0856742759
    5      C      -2.4294016943     0.0025142229     1.3951351118
    6      C      -2.4386312669    -0.0114525248     0.0099102668
    7      H      -3.3803169708    -0.0259900081    -0.5279539687
    8      C      -1.2316209961    -0.0099277588    -0.7008062648
    9      C      -1.4660358607     0.0117249686     3.5192150303
   10      C      -0.6883586586     0.0154487457     4.6480407894
   11      H       0.3937764497     0.0083760022     4.5986008466
   12      C      -2.8651565262     0.0200068445     3.6536725814
   13      C      -3.5244213529     0.0340876304     4.8774689374
   14      C      -3.5005382797     0.0142637316     2.3964434388
   15      C      -4.8698164833     0.0230693127     2.3655487448
   16      H      -5.4215428871     0.0199648002     1.4338784555
   17      C      -1.3322199334     0.0291737470     5.9075919399
   18      H      -0.7216233354     0.0324696098     6.8012756622
   19      C      -2.7029601871     0.0386541223     6.0323430813
   20      H      -3.1533507982     0.0495535542     7.0173667279
   21      C      -4.9384935497     0.0428685349     4.8162726393
   22      H      -5.5217236493     0.0542777369     5.7288257096
   23      C      -5.5733911488     0.0374996526     3.5952488930
   24      H      -6.6550878384     0.0450682017     3.5676573296
   25      B       1.3517881234     0.0186553942    -0.7699028986
   26      C       1.3386297641     0.0402181841    -2.3249167383
   27      C       2.5447117158     0.0781212172    -3.0239950921
   28      H       3.4854870867     0.0851917128    -2.4847625875
   29      C       2.5374752359     0.1099719992    -4.4042466808
   30      C       1.3220455741     0.1049157135    -5.1241747987
   31      C       0.1200045157     0.0588576861    -4.4371107715
   32      H      -0.8197833753     0.0494032448    -4.9778495946
   33      C       0.1143612194     0.0238324715    -3.0370281773
   34      C       3.6440834882     0.1549202303    -5.3545103391
   35      C       5.0111107392     0.1773229440    -5.2489867675
   36      H       5.5120311620     0.1603578235    -4.2886868241
   37      C       3.0591785152     0.1782746338    -6.6320511269
   38      C       3.7893319861     0.2249475962    -7.8158214245
   39      C       1.6529498010     0.1502253596    -6.5546233753
   40      C       0.9444563166     0.1711655898    -7.7276082040
   41      H      -0.1380085506     0.1532503631    -7.7430338527
   42      C       3.0319439453     0.2447475974    -9.0108492932
   43      H       3.5323284795     0.2813859732    -9.9708896632
   44      C       1.6574930144     0.2182518860    -8.9512413095
   45      H       1.0927868660     0.2345532620    -9.8742095511
   46      C       5.7788595329     0.2239770920    -6.4368410974
   47      H       6.8580909025     0.2413538518    -6.3556176410
   48      C       5.2001259203     0.2479039130    -7.6850321863
   49      H       5.8252303067     0.2836999542    -8.5690594518
   50      B      -1.2328675672    -0.0322014166    -2.2589464189
   51      C      -2.5870733773    -0.0917260214    -3.0452498115
   52      C      -3.1022461993    -1.2965822526    -3.5211379102
   53      C      -4.3180637044    -1.3276846257    -4.2063057443
   54      H      -4.6885265166    -2.2820175945    -4.5600075974
   55      C      -5.0226486436    -0.1528127536    -4.4286164729
   56      O      -6.2028279447    -0.0802748232    -5.0789038648
   57      C      -4.5020540174     1.0573732772    -3.9700623642
   58      H      -5.0503646575     1.9729349827    -4.1612275836
   59      C      -3.3005930834     1.0948944600    -3.2848077585
   60      C      -6.7829235440    -1.2738069668    -5.5491903971
   61      H      -7.7253570527    -0.9982952725    -6.0172755907
   62      H      -6.9882604946    -1.9794882650    -4.7386569097
   63      H      -6.1558513059    -1.7721696144    -6.2946445206
   64      C      -2.7482793060     2.4092582106    -2.8044128578
   65      H      -3.3632161485     3.2488731969    -3.1268508505
   66      H      -2.6896147954     2.4443361518    -1.7144188801
   67      H      -1.7368847864     2.5788733828    -3.1816173847
   68      C      -2.3798755762    -2.5954342782    -3.2675827502
   69      H      -2.5698408841    -3.2861868384    -4.0930000900
   70      H      -1.2983723262    -2.4315958951    -3.2604742785
   71      C      -2.7976990158    -3.2555041972    -1.9546749492
   72      H      -2.5604678162    -2.6234854578    -1.0986357153
   73      H      -3.8707481559    -3.4499155761    -1.9363672893
   74      H      -2.2816401323    -4.2063808889    -1.8163395172
   75      C       2.7221006842     0.0049755754     0.0029353075
   76      C       3.4061384917     1.1854184119     0.2877299721
   77      C       4.6347144442     1.1570847702     0.9511429047
   78      H       5.1365379250     2.0963377151     1.1515846557
   79      C       5.1938292901    -0.0519878563     1.3343297165
   80      O       6.3738662247    -0.1800416469     1.9766628881
   81      C       4.5182385810    -1.2386406338     1.0479561165
   82      H       4.9637018223    -2.1822690771     1.3417595364
   83      C       3.2997176361    -1.2167067386     0.3930957244
   84      C       7.0902078475     0.9879732346     2.3031689392
   85      H       7.9885934765     0.6660200009     2.8252400234
   86      H       6.5212870902     1.6501164054     2.9625920262
   87      H       7.3874342500     1.5525857192     1.4143626975
   88      C       2.5953564336    -2.5072018277     0.0823209374
   89      H       3.1598950027    -3.3709484946     0.4318144835
   90      H       1.6094234126    -2.5461383285     0.5503533990
   91      H       2.4435457929    -2.6272107483    -0.9930762530
   92      C       2.8259513810     2.5306981941    -0.0690968953
   93      H       3.6135841424     3.1746492504    -0.4697466419
   94      H       2.0900248329     2.4285857032    -0.8715594271
   95      C       2.1742619399     3.2174942008     1.1288277736
   96      H       1.3551902502     2.6183506061     1.5276341603
   97      H       1.7707163947     4.1911291850     0.8490885599
   98      H       2.8941472561     3.3727097154     1.9335059748
 ----------------------------------------------------------------

   14   -2202.2790248839      8.84e-09  Convergence criterion met
 Total energy in the final basis set =    -2202.2790248839

         TDDFT/TDA Excitation Energies
 ---------------------------------------------------

 Excited state   1: excitation energy (eV) =    2.3926
 Total energy for state  1:                 -2202.19109901 au
    Multiplicity: Triplet
    Trans. Mom.:  0.0000 X   0.0000 Y   0.0000 Z
    Strength   :     0.0000000000
    D(183) --> V(  2) amplitude = -0.2778
    D(187) --> V(  1) amplitude =  0.8562
    D(188) --> V(  1) amplitude =  0.2894

 Excited state   2: excitation energy (eV) =    2.5131
 Total energy for state  2:                 -2202.18667146 au
    Multiplicity: Triplet
    Trans. Mom.:  0.0000 X   0.0000 Y   0.0000 Z
    Strength   :     0.0000000000
    D(186) --> V(  2) amplitude = -0.5030
    D(187) --> V(  1) amplitude = -0.2713
    D(188) --> V(  1) amplitude =  0.7211
    D(188) --> V(  4) amplitude =  0.2185

 Excited state   3: excitation energy (eV) =    2.5561
 Total energy for state  3:                 -2202.18508951 au
    Multiplicity: Triplet
    Trans. Mom.:  0.0000 X   0.0000 Y   0.0000 Z
    Strength   :     0.0000000000
    D(186) --> V(  1) amplitude =  0.6991
    D(186) --> V(  4) amplitude =  0.2457
    D(188) --> V(  2) amplitude = -0.5612

 Excited state   4: excitation energy (eV) =    2.7165
 Total energy for state  4:                 -2202.17919692 au
    Multiplicity: Triplet
    Trans. Mom.:  0.0000 X   0.0000 Y   0.0000 Z
    Strength   :     0.0000000000
    D(183) --> V(  1) amplitude =  0.2193
    D(189) --> V(  1) amplitude = -0.2164
    D(190) --> V(  1) amplitude =  0.8692

 Excited state   5: excitation energy (eV) =    2.7861
 Total energy for state  5:                 -2202.17663681 au
    Multiplicity: Singlet
    Trans. Mom.: -0.3117 X  -0.0065 Y  -0.2811 Z
    Strength   :     0.0120283735
    D(190) --> V(  1) amplitude =  0.9565

 Excited state   6: excitation energy (eV) =    2.8174
 Total energy for state  6:                 -2202.17548708 au
    Multiplicity: Triplet
    Trans. Mom.:  0.0000 X   0.0000 Y   0.0000 Z
    Strength   :     0.0000000000
    D(183) --> V(  1) amplitude =  0.6594
    D(187) --> V(  2) amplitude = -0.5308
    D(190) --> V(  1) amplitude = -0.3149

 Excited state   7: excitation energy (eV) =    2.9007
 Total energy for state  7:                 -2202.17242517 au
    Multiplicity: Triplet
    Trans. Mom.:  0.0000 X   0.0000 Y   0.0000 Z
    Strength   :     0.0000000000
    D(189) --> V(  1) amplitude =  0.9286

 Excited state   8: excitation energy (eV) =    2.9338
 Total energy for state  8:                 -2202.17120985 au
    Multiplicity: Singlet
    Trans. Mom.:  0.1790 X  -0.0083 Y  -0.1225 Z
    Strength   :     0.0033877975
    D(189) --> V(  1) amplitude =  0.9583

 Excited state   9: excitation energy (eV) =    3.0724
 Total energy for state  9:                 -2202.16611665 au
    Multiplicity: Singlet
    Trans. Mom.: -0.1411 X  -0.0091 Y   0.2223 Z
    Strength   :     0.0052223808
    D(187) --> V(  1) amplitude =  0.9243
    D(188) --> V(  1) amplitude =  0.2705

 Excited state  10: excitation energy (eV) =    3.2732
 Total energy for state 10:                 -2202.15873847 au
    Multiplicity: Singlet
    Trans. Mom.: -1.9720 X  -0.0506 Y   3.4222 Z
    Strength   :     1.2512023208
    D(187) --> V(  1) amplitude = -0.2669
    D(188) --> V(  1) amplitude =  0.9110

 Excited state  11: excitation energy (eV) =    3.5648
 Total energy for state 11:                 -2202.14802163 au
    Multiplicity: Singlet
    Trans. Mom.: -0.1043 X  -0.0709 Y  -0.0662 Z
    Strength   :     0.0017719284
    D(186) --> V(  1) amplitude =  0.9251
    D(188) --> V(  2) amplitude = -0.2346

 Excited state  12: excitation energy (eV) =    3.6531
 Total energy for state 12:                 -2202.14477735 au
    Multiplicity: Singlet
    Trans. Mom.: -0.1866 X  -0.0365 Y  -0.0312 Z
    Strength   :     0.0033223607
    D(185) --> V(  1) amplitude =  0.9790

 ---------------------------------------------------

                    Orbital Energies (a.u.)
 --------------------------------------------------------------

 Alpha MOs
 -- Occupied --
-19.524 -19.520 -10.503 -10.499 -10.480 -10.476 -10.470 -10.470
-10.470 -10.469 -10.468 -10.468 -10.468 -10.468 -10.468 -10.467
-10.467 -10.467 -10.465 -10.465 -10.465 -10.465 -10.465 -10.465
-10.462 -10.462 -10.462 -10.462 -10.459 -10.458 -10.457 -10.456
-10.454 -10.452 -10.452 -10.452 -10.450 -10.448 -10.439 -10.439
-10.438 -10.438 -10.436 -10.433 -10.432 -10.431 -10.429 -10.427
-10.427 -10.424 -10.422 -10.419 -10.418 -10.414  -6.953  -6.951
 -1.180  -1.176  -1.022  -1.021  -0.968  -0.964  -0.955  -0.952
 -0.938  -0.937  -0.914  -0.906  -0.884  -0.880  -0.863  -0.859
 -0.854  -0.851  -0.850  -0.850  -0.827  -0.819  -0.816  -0.815
 -0.812  -0.809  -0.774  -0.769  -0.763  -0.760  -0.739  -0.732
 -0.730  -0.724  -0.709  -0.707  -0.693  -0.684  -0.683  -0.669
 -0.659  -0.651  -0.648  -0.645  -0.637  -0.635  -0.597  -0.596
 -0.594  -0.590  -0.587  -0.583  -0.579  -0.578  -0.577  -0.560
 -0.557  -0.547  -0.545  -0.537  -0.531  -0.530  -0.525  -0.525
 -0.515  -0.511  -0.506  -0.501  -0.499  -0.496  -0.495  -0.493
 -0.492  -0.492  -0.490  -0.489  -0.486  -0.483  -0.481  -0.474
 -0.473  -0.471  -0.470  -0.469  -0.465  -0.463  -0.459  -0.456
 -0.450  -0.445  -0.442  -0.440  -0.438  -0.431  -0.429  -0.428
 -0.424  -0.422  -0.418  -0.414  -0.411  -0.409  -0.406  -0.402
 -0.401  -0.400  -0.400  -0.397  -0.395  -0.394  -0.386  -0.383
 -0.381  -0.376  -0.367  -0.364  -0.363  -0.358  -0.356  -0.353
 -0.342  -0.340  -0.324  -0.319  -0.301  -0.300  -0.287  -0.277
 -0.274  -0.267  -0.263  -0.261  -0.252  -0.247

          Ground-State Mulliken Net Atomic Charges

     Atom                 Charge (a.u.)
  ----------------------------------------
      1 C                    -0.153302
      2 C                    -0.397102
      3 H                     0.251315
      4 C                     0.070516
      5 C                     0.093495
      6 C                    -0.403040
      7 H                     0.257267
      8 C                    -0.155235
      9 C                     0.176834
     10 C                    -0.390172
     11 H                     0.251294
     12 C                    -0.067021
     13 C                     0.224316
     14 C                     0.179667
     15 C                    -0.399089
     16 H                     0.252984
     17 C                    -0.232560
     18 H                     0.256106
     19 C                    -0.347110
     20 H                     0.251718
     21 C                    -0.351524
     22 H                     0.252229
     23 C                    -0.229959
     24 H                     0.255882
     25 B                     0.671337
     26 C                    -0.159243
     27 C                    -0.387221
     28 H                     0.249721
     29 C                     0.067896
     30 C                     0.093624
     31 C                    -0.395754
     32 H                     0.253482
     33 C                    -0.158274
     34 C                     0.178027
     35 C                    -0.390256
     36 H                     0.251084
     37 C                    -0.066480
     38 C                     0.222494
     39 C                     0.178096
     40 C                    -0.399179
     41 H                     0.252502
     42 C                    -0.350692
     43 H                     0.252140
     44 C                    -0.229777
     45 H                     0.255782
     46 C                    -0.232722
     47 H                     0.255785
     48 C                    -0.346420
     49 H                     0.251731
     50 B                     0.673931
     51 C                    -0.223043
     52 C                     0.072735
     53 C                    -0.444151
     54 H                     0.254362
     55 C                     0.396165
     56 O                    -0.466315
     57 C                    -0.402628
     58 H                     0.241262
     59 C                     0.054777
     60 C                    -0.425755
     61 H                     0.250778
     62 H                     0.218983
     63 H                     0.218809
     64 C                    -0.772928
     65 H                     0.254947
     66 H                     0.244731
     67 H                     0.244129
     68 C                    -0.551489
     69 H                     0.243052
     70 H                     0.246408
     71 C                    -0.656371
     72 H                     0.233751
     73 H                     0.224739
     74 H                     0.225721
     75 C                    -0.229499
     76 C                     0.069948
     77 C                    -0.439570
     78 H                     0.254178
     79 C                     0.394103
     80 O                    -0.466971
     81 C                    -0.403778
     82 H                     0.241055
     83 C                     0.053214
     84 C                    -0.426148
     85 H                     0.251725
     86 H                     0.218821
     87 H                     0.218753
     88 C                    -0.772249
     89 H                     0.254374
     90 H                     0.245231
     91 H                     0.245067
     92 C                    -0.549726
     93 H                     0.242173
     94 H                     0.248788
     95 C                    -0.651847
     96 H                     0.229796
     97 H                     0.226984
     98 H                     0.223785
  ----------------------------------------
  Sum of atomic charges =    -0.000000

                    Cartesian Multipole Moments
 -----------------------------------------------------------------
    Charge (ESU x 10^10)
                -0.0000
    Dipole Moment (Debye)
         X      -0.0331      Y       0.1114      Z      -0.1169
       Tot       0.1649
    Quadrupole Moments (Debye-Ang)
        XX    -263.0593     XY      22.6734     YY    -320.4164
        XZ       0.1215     YZ      12.2689     ZZ    -262.6324

 Total job time:  10029.76s(wall), 34661.57s(cpu)
        *  Thank you very much for using Q-Chem.  Have a nice day.  *
