 Q-Chem 5.1, Q-Chem, Inc., Pleasanton, CA (2018)
 Q-Chem 5.1.1 for Intel X86 EM64T Linux

User input:
--------------------------------------------------------------
$solvent
dielectric      8.93
dielectric_infi 2.03
$end

$rem
threads 8
jobtype	sp
method PBEh-3c
basis def2-mSVP
mem_static	1024
mem_total	14000
sym_ignore	true
cis_n_roots             2
cis_singlets            true
cis_triplets		false
rpa                     false
calc_soc 		true
cis_moments             true
cis_relaxed_density	true
solvent_method		pcm
$end

$pcm
StateSpecific   1
ChargeSeparation Excited
$end

$molecule
read moms1opt_dcm.mol
$end

--------------------------------------------------------------

   14   -2202.2859257493      7.96e-09  Convergence criterion met
 Total energy in the final basis set =    -2202.2859257493
 Total job time:  5610.70s(wall), 19042.95s(cpu)
        *  Thank you very much for using Q-Chem.  Have a nice day.  *
 Q-Chem 5.1, Q-Chem, Inc., Pleasanton, CA (2018)
 Q-Chem 5.1.1 for Intel X86 EM64T Linux

User input:
--------------------------------------------------------------
$rem
threads 8
jobtype sp
method PBEh-3c
basis def2-mSVP
mem_static      1024
mem_total       14000
sym_ignore      true
cis_n_roots             6
cis_singlets            true
cis_triplets            true
rpa                     false
calc_soc                true
cis_moments             true
cis_relaxed_density     true
solvent_method          pcm
$end

$molecule
read
$end

$pcm
statespecific           Marcus
$end

$solvent
dielectric      8.93
dielectric_infi 2.03
$end

--------------------------------------------------------------

             Standard Nuclear Orientation (Angstroms)
    I     Atom           X                Y                Z
 ----------------------------------------------------------------
    1      C       0.0000000000     0.0000000000     0.0000000000
    2      C       0.0000000000     0.0000000000     1.3954980000
    3      H       0.9397873024     0.0000000000     1.9370719351
    4      C      -1.1974377261     0.0029983353     2.0857979271
    5      C      -2.4298198069     0.0016519326     1.3949871856
    6      C      -2.4389444669    -0.0129283134     0.0095359492
    7      H      -3.3812199581    -0.0279060953    -0.5272135779
    8      C      -1.2318040482    -0.0106953422    -0.7011212503
    9      C      -1.4664165734     0.0128286457     3.5193171186
   10      C      -0.6886630876     0.0181761204     4.6484723843
   11      H       0.3935116272     0.0120057562     4.5992751360
   12      C      -2.8657399966     0.0203492571     3.6533291117
   13      C      -3.5253472212     0.0349629365     4.8772107731
   14      C      -3.5012015023     0.0133183639     2.3959933132
   15      C      -4.8708024566     0.0211430109     2.3647330944
   16      H      -5.4224508420     0.0169742375     1.4329951947
   17      C      -1.3330327788     0.0325629694     5.9079998907
   18      H      -0.7225860423     0.0371969728     6.8017848932
   19      C      -2.7041459978     0.0411126938     6.0325264822
   20      H      -3.1550373895     0.0525844671     7.0173199974
   21      C      -4.9396391944     0.0426958171     4.8160018441
   22      H      -5.5227057666     0.0543504570     5.7286598661
   23      C      -5.5745185302     0.0359453349     3.5945899984
   24      H      -6.6562197789     0.0426642462     3.5668010252
   25      B       1.3520677466     0.0197997172    -0.7696176714
   26      C       1.3388242717     0.0469635144    -2.3247800766
   27      C       2.5449620170     0.0914809460    -3.0236515178
   28      H       3.4861964084     0.1017448034    -2.4852780860
   29      C       2.5379084891     0.1253161014    -4.4040999109
   30      C       1.3223796972     0.1147544551    -5.1243562359
   31      C       0.1202676760     0.0631088169    -4.4373720618
   32      H      -0.8186902187     0.0498324910    -4.9794307128
   33      C       0.1144883253     0.0270826855    -3.0372013814
   34      C       3.6444979525     0.1756024833    -5.3541501828
   35      C       5.0117171111     0.2041991088    -5.2483990199
   36      H       5.5126994980     0.1901364378    -4.2880574393
   37      C       3.0593473953     0.1957231053    -6.6318051336
   38      C       3.7895264859     0.2445456505    -7.8157597781
   39      C       1.6531079932     0.1610787574    -6.5547864430
   40      C       0.9443829896     0.1771500123    -7.7280797771
   41      H      -0.1379904648     0.1535525327    -7.7437461000
   42      C       3.0322701378     0.2593781285    -9.0112011542
   43      H       3.5329448703     0.2971877911    -9.9710493048
   44      C       1.6576147692     0.2262866335    -8.9517548681
   45      H       1.0929483073     0.2385895267    -9.8748116909
   46      C       5.7793075337     0.2535376868    -6.4365009811
   47      H       6.8584428329     0.2758675604    -6.3551718459
   48      C       5.2004347020     0.2738714727    -7.6850682367
   49      H       5.8251562593     0.3116935142    -8.5692866442
   50      B      -1.2330620283    -0.0333062105    -2.2594020444
   51      C      -2.5868643113    -0.0966714610    -3.0462096345
   52      C      -3.0983656983    -1.3033594862    -3.5221404598
   53      C      -4.3133101829    -1.3385197919    -4.2089683595
   54      H      -4.6807022483    -2.2940657737    -4.5626073802
   55      C      -5.0208711089    -0.1654571199    -4.4328552130
   56      O      -6.2002502879    -0.0967846008    -5.0846945809
   57      C      -4.5041056211     1.0466861240    -3.9741780395
   58      H      -5.0540832662     1.9613007457    -4.1658418813
   59      C      -3.3034057719     1.0879213477    -3.2871287134
   60      C      -6.7780285392    -1.2937889156    -5.5537912337
   61      H      -7.7210550631    -1.0211425947    -6.0221831506
   62      H      -6.9809298827    -1.9982326169    -4.7419023429
   63      H      -6.1491945117    -1.7911443072    -6.2980675924
   64      C      -2.7563354932     2.4043251714    -2.8062199824
   65      H      -3.3729441751     3.2417626813    -3.1310849768
   66      H      -2.7013622272     2.4401880566    -1.7160330978
   67      H      -1.7441969941     2.5767485556    -3.1802437262
   68      C      -2.3732393834    -2.6003753870    -3.2668322402
   69      H      -2.5589121528    -3.2914118667    -4.0928494315
   70      H      -1.2921976725    -2.4335257541    -3.2552653611
   71      C      -2.7942120085    -3.2621649542    -1.9557554937
   72      H      -2.5641095276    -2.6286722301    -1.0987203888
   73      H      -3.8663427795    -3.4620492150    -1.9429198186
   74      H      -2.2742160784    -4.2105589626    -1.8151235406
   75      C       2.7224103680     0.0002483437     0.0030491226
   76      C       3.4047369659     1.1786808619     0.3005955656
   77      C       4.6334733037     1.1453066730     0.9638643807
   78      H       5.1339505875     2.0830318007     1.1745320482
   79      C       5.1941835301    -0.0671805772     1.3343757491
   80      O       6.3743236569    -0.1999576517     1.9752898515
   81      C       4.5198823980    -1.2520281220     1.0359205832
   82      H       4.9653478779    -2.1987161562     1.3201996095
   83      C       3.3012311362    -1.2247822209     0.3808999952
   84      C       7.0889047066     0.9671701542     2.3153722612
   85      H       7.9876916633     0.6411531451     2.8340718792
   86      H       6.5177875175     1.6202236021     2.9815172647
   87      H       7.3845212290     1.5417171995     1.4327345154
   88      C       2.5980962961    -2.5130549820     0.0580947355
   89      H       3.1622463287    -3.3793081931     0.4019350550
   90      H       1.6111620016    -2.5559591651     0.5237948573
   91      H       2.4484493482    -2.6245090372    -1.0185520649
   92      C       2.8234793799     2.5271044584    -0.0424671439
   93      H       3.6074258678     3.1708927235    -0.4503948788
   94      H       2.0761284880     2.4306551982    -0.8350933989
   95      C       2.1904118950     3.2106670564     1.1673220300
   96      H       1.7822734595     4.1847872628     0.8960237309
   97      H       1.3782092477     2.6099726094     1.5780858447
   98      H       2.9233661459     3.3648771397     1.9603313442
 ----------------------------------------------------------------

   14   -2202.2826376830      8.59e-09  Convergence criterion met
 Total energy in the final basis set =    -2202.2826376830

         TDDFT/TDA Excitation Energies
 ---------------------------------------------------

 Excited state   1: excitation energy (eV) =    2.4012
 Total energy for state  1:                 -2202.19439346 au
    Multiplicity: Triplet
    Trans. Mom.:  0.0000 X   0.0000 Y   0.0000 Z
    Strength   :     0.0000000000
    D(183) --> V(  2) amplitude = -0.2777
    D(187) --> V(  1) amplitude =  0.8614
    D(188) --> V(  1) amplitude = -0.2694

 Excited state   2: excitation energy (eV) =    2.5126
 Total energy for state  2:                 -2202.19030086 au
    Multiplicity: Triplet
    Trans. Mom.:  0.0000 X   0.0000 Y   0.0000 Z
    Strength   :     0.0000000000
    D(186) --> V(  2) amplitude =  0.5015
    D(187) --> V(  1) amplitude =  0.2573
    D(188) --> V(  1) amplitude =  0.7259
    D(188) --> V(  4) amplitude =  0.2196

 Excited state   3: excitation energy (eV) =    2.5550
 Total energy for state  3:                 -2202.18874398 au
    Multiplicity: Triplet
    Trans. Mom.:  0.0000 X   0.0000 Y   0.0000 Z
    Strength   :     0.0000000000
    D(186) --> V(  1) amplitude =  0.6960
    D(186) --> V(  4) amplitude =  0.2446
    D(188) --> V(  2) amplitude =  0.5609

 Excited state   4: excitation energy (eV) =    2.6795
 Total energy for state  4:                 -2202.18416914 au
    Multiplicity: Triplet
    Trans. Mom.:  0.0000 X   0.0000 Y   0.0000 Z
    Strength   :     0.0000000000
    D(190) --> V(  1) amplitude =  0.8975

 Excited state   5: excitation energy (eV) =    2.7411
 Total energy for state  5:                 -2202.18190504 au
    Multiplicity: Singlet
    Trans. Mom.: -0.3075 X  -0.0075 Y  -0.2846 Z
    Strength   :     0.0117947889
    D(190) --> V(  1) amplitude =  0.9588

 Excited state   6: excitation energy (eV) =    2.8190
 Total energy for state  6:                 -2202.17904263 au
    Multiplicity: Triplet
    Trans. Mom.:  0.0000 X   0.0000 Y   0.0000 Z
    Strength   :     0.0000000000
    D(183) --> V(  1) amplitude =  0.6750
    D(187) --> V(  2) amplitude = -0.5479
    D(190) --> V(  1) amplitude = -0.2205

 Excited state   7: excitation energy (eV) =    2.8672
 Total energy for state  7:                 -2202.17726957 au
    Multiplicity: Triplet
    Trans. Mom.:  0.0000 X   0.0000 Y   0.0000 Z
    Strength   :     0.0000000000
    D(189) --> V(  1) amplitude =  0.9277

 Excited state   8: excitation energy (eV) =    2.9000
 Total energy for state  8:                 -2202.17606647 au
    Multiplicity: Singlet
    Trans. Mom.:  0.1685 X  -0.0095 Y  -0.1001 Z
    Strength   :     0.0027370138
    D(189) --> V(  1) amplitude =  0.9601

 Excited state   9: excitation energy (eV) =    3.0808
 Total energy for state  9:                 -2202.16942077 au
    Multiplicity: Singlet
    Trans. Mom.: -0.1528 X  -0.0111 Y   0.2449 Z
    Strength   :     0.0063005883
    D(187) --> V(  1) amplitude =  0.9309
    D(188) --> V(  1) amplitude = -0.2463

 Excited state  10: excitation energy (eV) =    3.2640
 Total energy for state 10:                 -2202.16268695 au
    Multiplicity: Singlet
    Trans. Mom.:  2.0069 X   0.0562 Y  -3.4816 Z
    Strength   :     1.2916556273
    D(186) --> V(  2) amplitude =  0.2138
    D(187) --> V(  1) amplitude =  0.2432
    D(188) --> V(  1) amplitude =  0.9183

 Excited state  11: excitation energy (eV) =    3.5541
 Total energy for state 11:                 -2202.15202787 au
    Multiplicity: Singlet
    Trans. Mom.: -0.1172 X  -0.0792 Y  -0.0519 Z
    Strength   :     0.0019780670
    D(186) --> V(  1) amplitude =  0.9209
    D(188) --> V(  2) amplitude =  0.2382

 Excited state  12: excitation energy (eV) =    3.6041
 Total energy for state 12:                 -2202.15018912 au
    Multiplicity: Singlet
    Trans. Mom.: -0.1539 X  -0.0290 Y  -0.0009 Z
    Strength   :     0.0021662132
    D(185) --> V(  1) amplitude =  0.9758

 ---------------------------------------------------

                    Orbital Energies (a.u.)
 --------------------------------------------------------------

 Alpha MOs
 -- Occupied --
-19.524 -19.519 -10.503 -10.499 -10.478 -10.473 -10.472 -10.472
-10.471 -10.471 -10.470 -10.470 -10.470 -10.470 -10.469 -10.469
-10.469 -10.469 -10.467 -10.467 -10.467 -10.466 -10.466 -10.466
-10.463 -10.463 -10.463 -10.463 -10.461 -10.460 -10.460 -10.459
-10.455 -10.454 -10.454 -10.453 -10.451 -10.448 -10.442 -10.441
-10.441 -10.440 -10.437 -10.433 -10.433 -10.432 -10.429 -10.428
-10.427 -10.425 -10.423 -10.419 -10.419 -10.414  -6.955  -6.953
 -1.179  -1.174  -1.024  -1.023  -0.969  -0.966  -0.956  -0.952
 -0.939  -0.939  -0.916  -0.907  -0.885  -0.880  -0.865  -0.861
 -0.855  -0.852  -0.852  -0.850  -0.828  -0.820  -0.818  -0.816
 -0.812  -0.811  -0.774  -0.769  -0.764  -0.760  -0.740  -0.734
 -0.732  -0.726  -0.710  -0.707  -0.694  -0.686  -0.685  -0.671
 -0.659  -0.653  -0.649  -0.645  -0.638  -0.635  -0.599  -0.597
 -0.595  -0.592  -0.588  -0.583  -0.580  -0.579  -0.577  -0.561
 -0.557  -0.548  -0.546  -0.538  -0.533  -0.529  -0.526  -0.524
 -0.516  -0.513  -0.508  -0.503  -0.500  -0.497  -0.496  -0.495
 -0.494  -0.493  -0.492  -0.490  -0.487  -0.484  -0.483  -0.474
 -0.474  -0.471  -0.470  -0.469  -0.465  -0.463  -0.459  -0.457
 -0.452  -0.446  -0.444  -0.441  -0.439  -0.433  -0.431  -0.429
 -0.425  -0.423  -0.418  -0.414  -0.412  -0.409  -0.406  -0.403
 -0.402  -0.402  -0.401  -0.399  -0.396  -0.395  -0.387  -0.385
 -0.382  -0.378  -0.368  -0.365  -0.364  -0.359  -0.358  -0.353
 -0.344  -0.342  -0.326  -0.321  -0.303  -0.302  -0.289  -0.278
 -0.274  -0.269  -0.266  -0.263  -0.252  -0.247

          Ground-State Mulliken Net Atomic Charges

     Atom                 Charge (a.u.)
  ----------------------------------------
      1 C                    -0.154554
      2 C                    -0.397703
      3 H                     0.254062
      4 C                     0.066926
      5 C                     0.089433
      6 C                    -0.403375
      7 H                     0.260929
      8 C                    -0.155800
      9 C                     0.173200
     10 C                    -0.391912
     11 H                     0.256775
     12 C                    -0.068002
     13 C                     0.218413
     14 C                     0.176043
     15 C                    -0.400524
     16 H                     0.258831
     17 C                    -0.237221
     18 H                     0.261597
     19 C                    -0.349028
     20 H                     0.257648
     21 C                    -0.353326
     22 H                     0.258157
     23 C                    -0.234650
     24 H                     0.261470
     25 B                     0.667848
     26 C                    -0.159961
     27 C                    -0.389209
     28 H                     0.252853
     29 C                     0.064214
     30 C                     0.089741
     31 C                    -0.397131
     32 H                     0.257334
     33 C                    -0.158781
     34 C                     0.174277
     35 C                    -0.392073
     36 H                     0.256568
     37 C                    -0.067420
     38 C                     0.216564
     39 C                     0.174379
     40 C                    -0.400651
     41 H                     0.258377
     42 C                    -0.352470
     43 H                     0.258124
     44 C                    -0.234481
     45 H                     0.261433
     46 C                    -0.237382
     47 H                     0.261339
     48 C                    -0.348319
     49 H                     0.257718
     50 B                     0.670973
     51 C                    -0.223445
     52 C                     0.070419
     53 C                    -0.445518
     54 H                     0.260815
     55 C                     0.395473
     56 O                    -0.468522
     57 C                    -0.405633
     58 H                     0.244929
     59 C                     0.053365
     60 C                    -0.429205
     61 H                     0.252721
     62 H                     0.222066
     63 H                     0.221906
     64 C                    -0.774389
     65 H                     0.258494
     66 H                     0.243773
     67 H                     0.243104
     68 C                    -0.551226
     69 H                     0.246824
     70 H                     0.244009
     71 C                    -0.658160
     72 H                     0.230592
     73 H                     0.227542
     74 H                     0.227034
     75 C                    -0.229748
     76 C                     0.068290
     77 C                    -0.441370
     78 H                     0.260619
     79 C                     0.392997
     80 O                    -0.469289
     81 C                    -0.407419
     82 H                     0.244598
     83 C                     0.051134
     84 C                    -0.429743
     85 H                     0.253836
     86 H                     0.221891
     87 H                     0.221831
     88 C                    -0.773825
     89 H                     0.257836
     90 H                     0.244468
     91 H                     0.244440
     92 C                    -0.549246
     93 H                     0.245329
     94 H                     0.246489
     95 C                    -0.653939
     96 H                     0.228398
     97 H                     0.227246
     98 H                     0.226959
  ----------------------------------------
  Sum of atomic charges =    -0.000000

                    Cartesian Multipole Moments
 -----------------------------------------------------------------
    Charge (ESU x 10^10)
                -0.0000
    Dipole Moment (Debye)
         X      -0.0828      Y       0.1097      Z      -0.1430
       Tot       0.1983
    Quadrupole Moments (Debye-Ang)
        XX    -259.3204     XY      23.8499     YY    -319.8065
        XZ       0.5470     YZ      13.0092     ZZ    -258.8708

 Total job time:  11012.92s(wall), 36799.12s(cpu)
        *  Thank you very much for using Q-Chem.  Have a nice day.  *
