 Q-Chem 5.1, Q-Chem, Inc., Pleasanton, CA (2018)
 Q-Chem 5.1.1 for Intel X86 EM64T Linux

User input:
--------------------------------------------------------------
$solvent
dielectric      2.38
dielectric_infi 2.25
$end

$rem
threads 8
jobtype	sp
method PBEh-3c
basis def2-mSVP
mem_static	1024
mem_total	14000
sym_ignore	true
cis_n_roots             2
cis_singlets            false
cis_triplets		true
rpa                     false
calc_soc 		true
cis_moments             true
cis_relaxed_density	true
solvent_method		pcm
$end

$pcm
StateSpecific   1
ChargeSeparation Excited
$end

$molecule
read ut1opt_tol.mol
$end

--------------------------------------------------------------

   23   -2202.1846915798      8.44e-09  Convergence criterion met
 Total energy in the final basis set =    -2202.1846915798
 Total job time:  9047.81s(wall), 38860.94s(cpu)
        *  Thank you very much for using Q-Chem.  Have a nice day.  *
 Q-Chem 5.1, Q-Chem, Inc., Pleasanton, CA (2018)
 Q-Chem 5.1.1 for Intel X86 EM64T Linux

User input:
--------------------------------------------------------------
$rem
threads 8
jobtype sp
method PBEh-3c
basis def2-mSVP
mem_static      1024
mem_total       14000
sym_ignore      true
cis_n_roots             6
cis_singlets            true
cis_triplets            true
rpa                     false
calc_soc                true
cis_moments             true
cis_relaxed_density     true
solvent_method          pcm
$end

$molecule
read
$end

$pcm
statespecific           Marcus
$end

$solvent
dielectric      2.38
dielectric_infi 2.25
$end

--------------------------------------------------------------

             Standard Nuclear Orientation (Angstroms)
    I     Atom           X                Y                Z
 ----------------------------------------------------------------
    1      C       0.0000000000     0.0000000000     0.0000000000
    2      C       0.0000000000     0.0000000000     1.4055560000
    3      H       0.9485301845     0.0000000000     1.9334564606
    4      C      -1.1783907755     0.0034378530     2.1107046571
    5      C      -2.4315568086     0.0091890703     1.4298461620
    6      C      -2.4569745185     0.0027861079     0.0573164281
    7      H      -3.4139521635     0.0003953446    -0.4578539926
    8      C      -1.2522130672    -0.0027283514    -0.6892571528
    9      C      -1.4328000384     0.0068588651     3.5434901169
   10      C      -0.6437349998     0.0035980128     4.6669122828
   11      H       0.4376487696    -0.0046179544     4.6046824934
   12      C      -2.8328277664     0.0167391152     3.6974649830
   13      C      -3.4767692090     0.0248150219     4.9311676904
   14      C      -3.4862518995     0.0189425789     2.4475789584
   15      C      -4.8575107463     0.0301034198     2.4395108561
   16      H      -5.4235885877     0.0333081500     1.5162111974
   17      C      -1.2729438270     0.0114360760     5.9324406094
   18      H      -0.6511294593     0.0091609759     6.8188720738
   19      C      -2.6417050325     0.0219061651     6.0766610604
   20      H      -3.0799048530     0.0280341841     7.0672386398
   21      C      -4.8910908446     0.0358989689     4.8899680735
   22      H      -5.4612846012     0.0429651350     5.8109194236
   23      C      -5.5427683015     0.0385498776     3.6776353475
   24      H      -6.6252181455     0.0479626154     3.6666016317
   25      B      -1.2488150712    -0.0141042668    -2.2164220033
   26      C       0.0527475467     0.0213411908    -3.0157228023
   27      C       0.0587006335     0.0546120528    -4.4321325903
   28      H      -0.8811925772     0.0663301924    -4.9774704380
   29      C       1.2428637154     0.0740991476    -5.1265325267
   30      C       2.4768338943     0.0533349079    -4.4123216219
   31      C       2.4928522069     0.0267853839    -3.0404529983
   32      H       3.4392221564     0.0144117487    -2.5096753544
   33      C       1.2939177602     0.0184691702    -2.3083496181
   34      C       3.5685116132     0.0718632503    -5.3757677850
   35      C       4.9390228109     0.0643966226    -5.2899453587
   36      H       5.4507030730     0.0367341843    -4.3356749456
   37      C       2.9705155408     0.1077999955    -6.6501187271
   38      C       3.6895742548     0.1393841102    -7.8428891731
   39      C       1.5632130260     0.1114944253    -6.5587851898
   40      C       0.8459990567     0.1502711016    -7.7278322753
   41      H      -0.2369246395     0.1584538014    -7.7339694010
   42      C       5.6920585448     0.0944372147    -6.4862891416
   43      H       6.7726676466     0.0882814473    -6.4171681402
   44      C       5.1023410905     0.1315008837    -7.7288766478
   45      H       5.7181880581     0.1541654441    -8.6198427260
   46      C       2.9214497785     0.1776346035    -9.0301242570
   47      H       3.4134100191     0.2044137255    -9.9949720291
   48      C       1.5473209097     0.1824456793    -8.9568225127
   49      H       0.9750531546     0.2132860786    -9.8752940186
   50      B       1.3323491971     0.0056380577    -0.7702891888
   51      C      -2.6120278899    -0.0364184662    -2.9951922430
   52      C      -3.3175415577     1.1943607971    -3.2199647974
   53      C      -4.5391127057     1.1710195117    -3.8220559294
   54      H      -5.1053400957     2.0793927297    -3.9877948618
   55      C      -5.1026775044    -0.0606613465    -4.2531905761
   56      O      -6.2812295712     0.0337047365    -4.8059162843
   57      C      -4.3999447831    -1.2739812898    -4.0917678896
   58      H      -4.8167450556    -2.2071032658    -4.4475780581
   59      C      -3.1725907294    -1.2683315913    -3.4858811979
   60      C      -6.9673015220    -1.1246506059    -5.2790592893
   61      H      -7.9160993574    -0.7688604687    -5.6671105763
   62      H      -7.1475089738    -1.8296903449    -4.4674095298
   63      H      -6.4072899864    -1.6105298666    -6.0783517568
   64      C      -2.6979501815     2.4773907586    -2.7710788541
   65      H      -3.2979207292     3.3377389396    -3.0628607940
   66      H      -2.5782526624     2.4905474759    -1.6865415290
   67      H      -1.6978427756     2.5898825736    -3.1929132242
   68      C      -2.4248482567    -2.5522128263    -3.2976956381
   69      H      -1.3537473609    -2.3729851523    -3.4046346942
   70      H      -2.7115930858    -3.2533068056    -4.0842898634
   71      C      -2.6968139474    -3.1808365608    -1.9288043229
   72      H      -2.3649489887    -2.5335056063    -1.1186670291
   73      H      -2.1567415162    -4.1228997880    -1.8412120717
   74      H      -3.7588249503    -3.3853359298    -1.7899817270
   75      C       2.7193821635    -0.0245355222    -0.0070545111
   76      C       3.4578692231     1.1352758216     0.2333077652
   77      C       4.6889263608     1.0838012365     0.8921728183
   78      H       5.2273371136     2.0102559640     1.0546220735
   79      C       5.2041797802    -0.1295085505     1.3181155375
   80      O       6.3848027751    -0.2786954363     1.9619852526
   81      C       4.4828905842    -1.2966007386     1.0760712312
   82      H       4.8945473205    -2.2453604601     1.4012351578
   83      C       3.2614545301    -1.2497065327     0.4252560501
   84      C       7.1428519967     0.8717089216     2.2374388819
   85      H       8.0336419806     0.5394973144     2.7669457643
   86      H       6.6041591583     1.5811557861     2.8736260330
   87      H       7.4548654154     1.3921221090     1.3262382753
   88      C       2.5156023546    -2.5290360456     0.1682646891
   89      H       3.0712608629    -3.3978526325     0.5211801479
   90      H       1.5441528004    -2.5295085250     0.6660025004
   91      H       2.3241093218    -2.6665605045    -0.8980913214
   92      C       2.9351534831     2.4922327187    -0.1652317526
   93      H       2.2805078937     2.4042018318    -1.0352736227
   94      H       3.7688634198     3.1283703494    -0.4759463019
   95      C       2.1775089226     3.1743431840     0.9716241087
   96      H       1.3122221139     2.5836726145     1.2730501293
   97      H       1.8203681893     4.1600441696     0.6698018139
   98      H       2.8140070985     3.3028572408     1.8484769338
 ----------------------------------------------------------------

   23   -2202.1841089310      8.53e-09  Convergence criterion met
 Total energy in the final basis set =    -2202.1841089310

         TDDFT/TDA Excitation Energies
 ---------------------------------------------------

 Excited state   1: excitation energy (eV) =    0.4684
 Total energy for state  1:                 -2202.16689549 au
    <S**2>     :  2.0517
    Trans. Mom.: -0.0370 X   0.0117 Y   0.1260 Z
    Strength   :     0.0001994286
    D(189) --> S(  1) amplitude =  0.9887 beta

 Excited state   2: excitation energy (eV) =    0.8201
 Total energy for state  2:                 -2202.15397025 au
    <S**2>     :  2.0499
    Trans. Mom.:  0.0352 X  -0.0172 Y  -0.1805 Z
    Strength   :     0.0006851153
    D(181) --> S(  1) amplitude = -0.1511 beta
    D(187) --> S(  1) amplitude =  0.9796 beta

 Excited state   3: excitation energy (eV) =    0.9282
 Total energy for state  3:                 -2202.14999934 au
    <S**2>     :  2.0536
    Trans. Mom.:  0.4088 X   0.0162 Y   0.2029 Z
    Strength   :     0.0047421842
    D(186) --> S(  1) amplitude =  0.4102 beta
    D(188) --> S(  1) amplitude =  0.8953 beta

 Excited state   4: excitation energy (eV) =    0.9941
 Total energy for state  4:                 -2202.14757726 au
    <S**2>     :  2.0488
    Trans. Mom.: -0.4759 X  -0.0212 Y  -0.3106 Z
    Strength   :     0.0078756585
    D(186) --> S(  1) amplitude =  0.8868 beta
    D(188) --> S(  1) amplitude = -0.4108 beta

 Excited state   5: excitation energy (eV) =    1.2762
 Total energy for state  5:                 -2202.13721081 au
    <S**2>     :  2.0511
    Trans. Mom.: -0.1165 X  -0.0045 Y  -0.0346 Z
    Strength   :     0.0004624323
    D(184) --> S(  1) amplitude =  0.7960 beta
    D(185) --> S(  1) amplitude =  0.5783 beta

 Excited state   6: excitation energy (eV) =    1.5264
 Total energy for state  6:                 -2202.12801572 au
    <S**2>     :  2.1272
    Trans. Mom.:  2.0153 X   0.0307 Y  -3.6689 Z
    Strength   :     0.6552731018
    S(  2) --> V(  1) amplitude =  0.9720 alpha

 ---------------------------------------------------

                    Orbital Energies (a.u.)
 --------------------------------------------------------------

 Alpha MOs
 -- Occupied --
-19.613 -19.515 -10.591 -10.530 -10.512 -10.505 -10.500 -10.494
-10.494 -10.489 -10.476 -10.456 -10.453 -10.453 -10.452 -10.452
-10.451 -10.451 -10.449 -10.449 -10.448 -10.448 -10.447 -10.447
-10.447 -10.447 -10.446 -10.446 -10.446 -10.446 -10.446 -10.444
-10.444 -10.441 -10.441 -10.439 -10.438 -10.437 -10.436 -10.436
-10.434 -10.434 -10.432 -10.431 -10.420 -10.420 -10.418 -10.418
-10.417 -10.411 -10.409 -10.408 -10.408 -10.399  -6.910  -6.902
 -1.271  -1.170  -1.014  -1.001  -1.001  -0.945  -0.942  -0.939
 -0.930  -0.920  -0.920  -0.912  -0.890  -0.883  -0.869  -0.859
 -0.844  -0.839  -0.838  -0.834  -0.834  -0.826  -0.807  -0.805
 -0.803  -0.798  -0.797  -0.787  -0.761  -0.749  -0.746  -0.720
 -0.716  -0.713  -0.705  -0.704  -0.695  -0.680  -0.675  -0.666
 -0.665  -0.650  -0.640  -0.638  -0.631  -0.630  -0.622  -0.616
 -0.604  -0.599  -0.580  -0.579  -0.575  -0.572  -0.569  -0.563
 -0.561  -0.558  -0.547  -0.538  -0.531  -0.526  -0.524  -0.523
 -0.517  -0.514  -0.512  -0.508  -0.505  -0.501  -0.493  -0.488
 -0.485  -0.484  -0.481  -0.479  -0.478  -0.476  -0.475  -0.472
 -0.472  -0.468  -0.466  -0.466  -0.464  -0.461  -0.456  -0.456
 -0.452  -0.451  -0.449  -0.442  -0.440  -0.432  -0.430  -0.425
 -0.421  -0.419  -0.413  -0.413  -0.410  -0.410  -0.407  -0.403
 -0.402  -0.399  -0.394  -0.385  -0.385  -0.385  -0.382  -0.380
 -0.376  -0.372  -0.362  -0.360  -0.359  -0.352  -0.347  -0.336
 -0.334  -0.330  -0.324  -0.310  -0.306  -0.303  -0.287  -0.285
 -0.273  -0.262  -0.255  -0.244  -0.241  -0.236  -0.155

 Beta MOs
 -- Occupied --
-19.607 -19.515 -10.588 -10.530 -10.511 -10.506 -10.493 -10.493
-10.492 -10.489 -10.476 -10.456 -10.454 -10.453 -10.452 -10.452
-10.450 -10.450 -10.449 -10.449 -10.448 -10.448 -10.447 -10.447
-10.447 -10.447 -10.446 -10.446 -10.446 -10.445 -10.445 -10.444
-10.444 -10.441 -10.440 -10.437 -10.437 -10.436 -10.435 -10.435
-10.434 -10.434 -10.433 -10.432 -10.420 -10.419 -10.418 -10.418
-10.417 -10.411 -10.409 -10.407 -10.407 -10.399  -6.907  -6.900
 -1.260  -1.170  -1.004  -1.001  -1.000  -0.944  -0.941  -0.939
 -0.928  -0.920  -0.919  -0.902  -0.889  -0.882  -0.868  -0.857
 -0.843  -0.838  -0.837  -0.833  -0.833  -0.817  -0.804  -0.803
 -0.801  -0.796  -0.795  -0.785  -0.760  -0.749  -0.741  -0.718
 -0.714  -0.712  -0.705  -0.700  -0.694  -0.677  -0.674  -0.664
 -0.661  -0.648  -0.639  -0.635  -0.630  -0.629  -0.622  -0.612
 -0.594  -0.583  -0.579  -0.578  -0.573  -0.571  -0.568  -0.562
 -0.559  -0.554  -0.546  -0.536  -0.528  -0.524  -0.523  -0.523
 -0.515  -0.512  -0.511  -0.502  -0.501  -0.498  -0.491  -0.487
 -0.485  -0.483  -0.478  -0.477  -0.475  -0.474  -0.471  -0.471
 -0.470  -0.467  -0.464  -0.464  -0.461  -0.458  -0.455  -0.454
 -0.451  -0.449  -0.448  -0.440  -0.437  -0.430  -0.428  -0.424
 -0.417  -0.416  -0.411  -0.411  -0.409  -0.405  -0.402  -0.400
 -0.398  -0.394  -0.385  -0.383  -0.382  -0.382  -0.381  -0.379
 -0.373  -0.371  -0.358  -0.356  -0.353  -0.348  -0.345  -0.334
 -0.329  -0.322  -0.320  -0.303  -0.299  -0.283  -0.283  -0.262
 -0.262  -0.247  -0.241  -0.236  -0.235

          Ground-State Mulliken Net Atomic Charges

     Atom                 Charge (a.u.)    Spin (a.u.)
  --------------------------------------------------------
      1 C                    -0.138651       0.079428
      2 C                    -0.406373      -0.068910
      3 H                     0.234476       0.002867
      4 C                     0.064059       0.114011
      5 C                     0.085671       0.009292
      6 C                    -0.416060       0.018702
      7 H                     0.203261      -0.003492
      8 C                    -0.133624       0.004184
      9 C                     0.181621      -0.062229
     10 C                    -0.397865       0.089182
     11 H                     0.236121      -0.005214
     12 C                    -0.076110       0.022573
     13 C                     0.232574      -0.035801
     14 C                     0.185217      -0.035491
     15 C                    -0.407866       0.056860
     16 H                     0.222941      -0.003351
     17 C                    -0.222673      -0.054177
     18 H                     0.239832       0.002600
     19 C                    -0.354466       0.080796
     20 H                     0.233792      -0.004775
     21 C                    -0.357267       0.053134
     22 H                     0.235000      -0.003067
     23 C                    -0.221221      -0.039763
     24 H                     0.235842       0.001994
     25 B                     0.527807       0.369251
     26 C                    -0.133594       0.005634
     27 C                    -0.410590       0.019666
     28 H                     0.200656      -0.003555
     29 C                     0.085395       0.008471
     30 C                     0.063360       0.110734
     31 C                    -0.395345      -0.066477
     32 H                     0.232022       0.002932
     33 C                    -0.149490       0.078449
     34 C                     0.183233      -0.060535
     35 C                    -0.397600       0.086545
     36 H                     0.236048      -0.005059
     37 C                    -0.075701       0.021884
     38 C                     0.230755      -0.034645
     39 C                     0.184141      -0.034376
     40 C                    -0.408043       0.054920
     41 H                     0.223000      -0.003242
     42 C                    -0.222850      -0.052430
     43 H                     0.239558       0.002517
     44 C                    -0.353548       0.077977
     45 H                     0.233943      -0.004606
     46 C                    -0.356105       0.051111
     47 H                     0.235026      -0.002949
     48 C                    -0.221074      -0.038438
     49 H                     0.236020       0.001929
     50 B                     0.562043       0.260969
     51 C                    -0.120210       0.508226
     52 C                     0.073737      -0.074933
     53 C                    -0.366815       0.101490
     54 H                     0.282365      -0.006536
     55 C                     0.465253       0.223475
     56 O                    -0.393737       0.137869
     57 C                    -0.417359       0.035199
     58 H                     0.285658      -0.003454
     59 C                     0.109882       0.013508
     60 C                    -0.446553      -0.013873
     61 H                     0.282496      -0.000008
     62 H                     0.254760       0.009014
     63 H                     0.254665       0.009188
     64 C                    -0.757908       0.005495
     65 H                     0.253427       0.001217
     66 H                     0.279468      -0.000679
     67 H                     0.278039      -0.001665
     68 C                    -0.551010      -0.000598
     69 H                     0.290634      -0.000770
     70 H                     0.248144       0.001038
     71 C                    -0.664429       0.006463
     72 H                     0.270209      -0.001144
     73 H                     0.243332       0.001147
     74 H                     0.218194      -0.000395
     75 C                    -0.199600      -0.025021
     76 C                     0.058794       0.004195
     77 C                    -0.436935      -0.001356
     78 H                     0.236902       0.000318
     79 C                     0.386609       0.001523
     80 O                    -0.467212       0.000281
     81 C                    -0.399360      -0.001166
     82 H                     0.227196       0.000363
     83 C                     0.042311       0.004150
     84 C                    -0.418027      -0.000038
     85 H                     0.244135       0.000005
     86 H                     0.211610       0.000025
     87 H                     0.211494       0.000029
     88 C                    -0.760388       0.000365
     89 H                     0.237186       0.001362
     90 H                     0.244603      -0.000515
     91 H                     0.243177      -0.000790
     92 C                    -0.539924       0.003035
     93 H                     0.253260      -0.001905
     94 H                     0.225948       0.000288
     95 C                    -0.652522      -0.000208
     96 H                     0.240366      -0.000200
     97 H                     0.216512       0.000012
     98 H                     0.214323      -0.000055
  --------------------------------------------------------
  Sum of atomic charges =    -0.000000

                    Cartesian Multipole Moments
 -----------------------------------------------------------------
    Charge (ESU x 10^10)
                -0.0000
    Dipole Moment (Debye)
         X     -14.7008      Y      -0.8899      Z      -8.2243
       Tot      16.8685
    Quadrupole Moments (Debye-Ang)
        XX    -223.9392     XY      24.2245     YY    -318.5640
        XZ      76.5663     YZ      14.5156     ZZ    -270.6609

 Total job time:  14179.67s(wall), 55289.00s(cpu)
        *  Thank you very much for using Q-Chem.  Have a nice day.  *
