 Q-Chem 5.1, Q-Chem, Inc., Pleasanton, CA (2018)
 Q-Chem 5.1.1 for Intel X86 EM64T Linux

User input:
--------------------------------------------------------------
$solvent
dielectric      8.93
dielectric_infi 2.03
$end

$rem
threads 8
jobtype	sp
method PBEh-3c
basis def2-mSVP
mem_static	1024
mem_total	14000
sym_ignore	true
cis_n_roots             2
cis_singlets            false
cis_triplets		true
rpa                     false
calc_soc 		true
cis_moments             true
cis_relaxed_density	true
solvent_method		pcm
$end

$pcm
StateSpecific   1
ChargeSeparation Excited
$end

$molecule
read ut1opt_dcm.mol
$end

--------------------------------------------------------------

   15   -2202.2750394808      5.50e-09  Convergence criterion met
 Total energy in the final basis set =    -2202.2750394808
 Total job time:  5516.43s(wall), 22545.38s(cpu)
        *  Thank you very much for using Q-Chem.  Have a nice day.  *
 Q-Chem 5.1, Q-Chem, Inc., Pleasanton, CA (2018)
 Q-Chem 5.1.1 for Intel X86 EM64T Linux

User input:
--------------------------------------------------------------
$rem
threads 8
jobtype sp
method PBEh-3c
basis def2-mSVP
mem_static      1024
mem_total       14000
sym_ignore      true
cis_n_roots             6
cis_singlets            true
cis_triplets            true
rpa                     false
calc_soc                true
cis_moments             true
cis_relaxed_density     true
solvent_method          pcm
$end

$molecule
read
$end

$pcm
statespecific           Marcus
$end

$solvent
dielectric      8.93
dielectric_infi 2.03
$end

--------------------------------------------------------------

             Standard Nuclear Orientation (Angstroms)
    I     Atom           X                Y                Z
 ----------------------------------------------------------------
    1      C       0.0000000000     0.0000000000     0.0000000000
    2      C       0.0000000000     0.0000000000     1.4067540000
    3      H       0.9473378255     0.0000000000     1.9368567513
    4      C      -1.1785422595     0.0036203156     2.1118822867
    5      C      -2.4325258053     0.0085365904     1.4302262249
    6      C      -2.4583169290     0.0010825974     0.0568576000
    7      H      -3.4149751968    -0.0011454243    -0.4580861622
    8      C      -1.2538307340    -0.0051462991    -0.6896305694
    9      C      -1.4334573004     0.0094529525     3.5452719120
   10      C      -0.6445948832     0.0084990568     4.6697911713
   11      H       0.4370261040     0.0003106975     4.6091236621
   12      C      -2.8340873427     0.0198133903     3.6978481886
   13      C      -3.4791426813     0.0301753440     4.9316751397
   14      C      -3.4874312579     0.0196952980     2.4473146468
   15      C      -4.8594690949     0.0304380960     2.4377830728
   16      H      -5.4249528049     0.0314674980     1.5141390505
   17      C      -1.2751543439     0.0189072789     5.9352542556
   18      H      -0.6540323303     0.0185499366     6.8222153438
   19      C      -2.6448516110     0.0295838210     6.0783292654
   20      H      -3.0842756713     0.0376336601     7.0683987550
   21      C      -4.8941580601     0.0409753132     4.8899712006
   22      H      -5.4645769931     0.0496232473     5.8107801883
   23      C      -5.5451169452     0.0410438977     3.6764063848
   24      H      -6.6275387268     0.0499615210     3.6642298290
   25      B      -1.2566980672    -0.0137955108    -2.2182744114
   26      C       0.0478862446     0.0254481363    -3.0146076674
   27      C       0.0512784410     0.0557496873    -4.4308734863
   28      H      -0.8892967196     0.0594213074    -4.9743509787
   29      C       1.2349759763     0.0809406346    -5.1277403598
   30      C       2.4714073842     0.0715381765    -4.4153554657
   31      C       2.4899699047     0.0458095387    -3.0433422244
   32      H       3.4387234066     0.0412809319    -2.5164391310
   33      C       1.2915085174     0.0278775027    -2.3084459164
   34      C       3.5615781344     0.0952077593    -5.3813715675
   35      C       4.9330771807     0.0980087190    -5.2984724676
   36      H       5.4479097379     0.0787504452    -4.3455238260
   37      C       2.9597203704     0.1208683522    -6.6546210030
   38      C       3.6761427805     0.1507098518    -7.8497609960
   39      C       1.5520792578     0.1142316256    -6.5605582286
   40      C       0.8311024143     0.1396686350    -7.7285688209
   41      H      -0.2518384026     0.1377677819    -7.7323252028
   42      C       5.6831811233     0.1273520561    -6.4973099269
   43      H       6.7640016374     0.1292826608    -6.4308439099
   44      C       5.0896944433     0.1533917690    -7.7392975689
   45      H       5.7028281583     0.1753816707    -8.6321971798
   46      C       2.9050956023     0.1756141869    -9.0362833861
   47      H       3.3950987675     0.1999001432   -10.0022047843
   48      C       1.5304024313     0.1698165624    -8.9595013031
   49      H       0.9555199841     0.1897076713    -9.8766095173
   50      B       1.3315647360     0.0104430192    -0.7706693176
   51      C      -2.6247897376    -0.0334082220    -2.9957747873
   52      C      -3.3182692496     1.2001849442    -3.2314021576
   53      C      -4.5362256642     1.1836558743    -3.8405100935
   54      H      -5.0928018035     2.0961295907    -4.0163929856
   55      C      -5.1090493026    -0.0484593815    -4.2642343817
   56      O      -6.2799862105     0.0498688578    -4.8210997376
   57      C      -4.4158048270    -1.2677251891    -4.0869816365
   58      H      -4.8388136980    -2.2002806199    -4.4369106604
   59      C      -3.1936733448    -1.2643895314    -3.4731874031
   60      C      -6.9803013515    -1.1075022933    -5.2899477675
   61      H      -7.9226933613    -0.7413391291    -5.6828912810
   62      H      -7.1677343807    -1.8020007436    -4.4717240812
   63      H      -6.4192565780    -1.6021565920    -6.0822119420
   64      C      -2.6940163957     2.4847117993    -2.7897585667
   65      H      -3.2937592422     3.3436886948    -3.0854185824
   66      H      -2.5748858449     2.5053847976    -1.7053213221
   67      H      -1.6957459092     2.5956819903    -3.2164024003
   68      C      -2.4610532745    -2.5554496758    -3.2666175390
   69      H      -1.3860156401    -2.3880140347    -3.3520439119
   70      H      -2.7379388527    -3.2546924743    -4.0578107066
   71      C      -2.7704840684    -3.1803545315    -1.9048690769
   72      H      -2.4563597888    -2.5328285392    -1.0873082310
   73      H      -2.2404197879    -4.1267372324    -1.8013629934
   74      H      -3.8373692480    -3.3758809113    -1.7942628103
   75      C       2.7211450239    -0.0181642588    -0.0091059576
   76      C       3.4501139398     1.1452694004     0.2452224188
   77      C       4.6858594466     1.0973658441     0.8971086181
   78      H       5.2167857333     2.0263180889     1.0701192494
   79      C       5.2151017638    -0.1172039788     1.3033831998
   80      O       6.4002071832    -0.2639387341     1.9383370977
   81      C       4.5022266552    -1.2882669681     1.0499339903
   82      H       4.9221521247    -2.2387050598     1.3604433454
   83      C       3.2764561545    -1.2439608635     0.4054746249
   84      C       7.1510488968     0.8926198601     2.2275950128
   85      H       8.0470658089     0.5607215317     2.7478665204
   86      H       6.6074935498     1.5863659089     2.8757951804
   87      H       7.4522765777     1.4274971586     1.3219092317
   88      C       2.5409196016    -2.5274941157     0.1387113195
   89      H       3.1039591623    -3.3947219350     0.4836595511
   90      H       1.5701736453    -2.5398713811     0.6378854354
   91      H       2.3479054406    -2.6585575322    -0.9282750989
   92      C       2.9133550703     2.5032989147    -0.1309807149
   93      H       2.2180829343     2.4146679851    -0.9688300957
   94      H       3.7329065561     3.1378967568    -0.4796541326
   95      C       2.2104544257     3.1889406084     1.0385867476
   96      H       1.3640759438     2.5961407651     1.3868994482
   97      H       1.8349330047     4.1714862372     0.7494834044
   98      H       2.8896809964     3.3256238457     1.8814458294
 ----------------------------------------------------------------

   15   -2202.2748950450      6.45e-09  Convergence criterion met
 Total energy in the final basis set =    -2202.2748950450

         TDDFT/TDA Excitation Energies
 ---------------------------------------------------

 Excited state   1: excitation energy (eV) =    2.2140
 Total energy for state  1:                 -2202.19353041 au
    Multiplicity: Triplet
    Trans. Mom.:  0.0000 X   0.0000 Y   0.0000 Z
    Strength   :     0.0000000000
    D(183) --> V(  2) amplitude = -0.2311
    D(187) --> V(  1) amplitude =  0.7999
    D(188) --> V(  1) amplitude =  0.4536

 Excited state   2: excitation energy (eV) =    2.3987
 Total energy for state  2:                 -2202.18674264 au
    Multiplicity: Triplet
    Trans. Mom.:  0.0000 X   0.0000 Y   0.0000 Z
    Strength   :     0.0000000000
    D(190) --> V(  1) amplitude =  0.9219

 Excited state   3: excitation energy (eV) =    2.4302
 Total energy for state  3:                 -2202.18558602 au
    Multiplicity: Triplet
    Trans. Mom.:  0.0000 X   0.0000 Y   0.0000 Z
    Strength   :     0.0000000000
    D(186) --> V(  2) amplitude = -0.4512
    D(187) --> V(  1) amplitude = -0.4077
    D(188) --> V(  1) amplitude =  0.6735

 Excited state   4: excitation energy (eV) =    2.4523
 Total energy for state  4:                 -2202.18477450 au
    Multiplicity: Singlet
    Trans. Mom.:  0.2845 X  -0.0087 Y   0.2189 Z
    Strength   :     0.0077439790
    D(190) --> V(  1) amplitude =  0.9736

 Excited state   5: excitation energy (eV) =    2.4907
 Total energy for state  5:                 -2202.18336472 au
    Multiplicity: Triplet
    Trans. Mom.:  0.0000 X   0.0000 Y   0.0000 Z
    Strength   :     0.0000000000
    D(186) --> V(  1) amplitude =  0.7194
    D(186) --> V(  4) amplitude =  0.2284
    D(188) --> V(  2) amplitude = -0.5008

 Excited state   6: excitation energy (eV) =    2.7332
 Total energy for state  6:                 -2202.17445156 au
    Multiplicity: Triplet
    Trans. Mom.:  0.0000 X   0.0000 Y   0.0000 Z
    Strength   :     0.0000000000
    D(183) --> V(  1) amplitude =  0.6787
    D(187) --> V(  2) amplitude = -0.5192

 Excited state   7: excitation energy (eV) =    2.8789
 Total energy for state  7:                 -2202.16909768 au
    Multiplicity: Singlet
    Trans. Mom.: -0.2314 X  -0.0033 Y   0.3957 Z
    Strength   :     0.0148235670
    D(187) --> V(  1) amplitude =  0.8532
    D(188) --> V(  1) amplitude =  0.4560

 Excited state   8: excitation energy (eV) =    2.8934
 Total energy for state  8:                 -2202.16856304 au
    Multiplicity: Triplet
    Trans. Mom.:  0.0000 X   0.0000 Y   0.0000 Z
    Strength   :     0.0000000000
    D(189) --> V(  1) amplitude =  0.9271

 Excited state   9: excitation energy (eV) =    2.9338
 Total energy for state  9:                 -2202.16708115 au
    Multiplicity: Singlet
    Trans. Mom.: -0.3386 X   0.0082 Y   0.0186 Z
    Strength   :     0.0082707043
    D(189) --> V(  1) amplitude =  0.9670

 Excited state  10: excitation energy (eV) =    3.1185
 Total energy for state 10:                 -2202.16029278 au
    Multiplicity: Singlet
    Trans. Mom.: -1.9923 X  -0.0311 Y   3.5905 Z
    Strength   :     1.2882415450
    D(187) --> V(  1) amplitude = -0.4532
    D(188) --> V(  1) amplitude =  0.8421

 Excited state  11: excitation energy (eV) =    3.4310
 Total energy for state 11:                 -2202.14880688 au
    Multiplicity: Singlet
    Trans. Mom.: -0.1556 X  -0.0540 Y  -0.0844 Z
    Strength   :     0.0028784376
    D(186) --> V(  1) amplitude =  0.9406

 Excited state  12: excitation energy (eV) =    3.6649
 Total energy for state 12:                 -2202.14021142 au
    Multiplicity: Singlet
    Trans. Mom.: -0.8584 X  -0.0332 Y  -0.4710 Z
    Strength   :     0.0861786816
    D(183) --> V(  1) amplitude =  0.7536
    D(187) --> V(  2) amplitude = -0.4898

 ---------------------------------------------------

                    Orbital Energies (a.u.)
 --------------------------------------------------------------

 Alpha MOs
 -- Occupied --
-19.529 -19.529 -10.508 -10.506 -10.487 -10.483 -10.468 -10.468
-10.467 -10.466 -10.466 -10.466 -10.466 -10.466 -10.465 -10.465
-10.465 -10.465 -10.463 -10.462 -10.462 -10.462 -10.462 -10.461
-10.459 -10.458 -10.458 -10.458 -10.458 -10.458 -10.457 -10.456
-10.455 -10.455 -10.453 -10.452 -10.450 -10.450 -10.439 -10.438
-10.438 -10.437 -10.436 -10.436 -10.434 -10.433 -10.432 -10.431
-10.427 -10.426 -10.422 -10.422 -10.420 -10.419  -6.951  -6.943
 -1.196  -1.183  -1.018  -1.017  -0.964  -0.960  -0.957  -0.949
 -0.934  -0.933  -0.910  -0.901  -0.886  -0.886  -0.863  -0.857
 -0.856  -0.851  -0.847  -0.846  -0.825  -0.819  -0.818  -0.814
 -0.813  -0.805  -0.776  -0.772  -0.765  -0.765  -0.736  -0.730
 -0.727  -0.721  -0.711  -0.709  -0.690  -0.684  -0.680  -0.668
 -0.659  -0.649  -0.647  -0.646  -0.639  -0.635  -0.596  -0.594
 -0.591  -0.588  -0.585  -0.583  -0.582  -0.576  -0.576  -0.563
 -0.562  -0.545  -0.544  -0.539  -0.537  -0.533  -0.527  -0.523
 -0.515  -0.509  -0.504  -0.501  -0.498  -0.497  -0.496  -0.494
 -0.492  -0.491  -0.487  -0.487  -0.485  -0.481  -0.478  -0.475
 -0.474  -0.474  -0.470  -0.468  -0.465  -0.465  -0.462  -0.455
 -0.449  -0.445  -0.441  -0.440  -0.437  -0.430  -0.429  -0.427
 -0.426  -0.425  -0.422  -0.417  -0.415  -0.412  -0.407  -0.406
 -0.398  -0.397  -0.397  -0.394  -0.392  -0.392  -0.387  -0.385
 -0.381  -0.375  -0.369  -0.366  -0.363  -0.360  -0.357  -0.352
 -0.345  -0.339  -0.323  -0.317  -0.298  -0.297  -0.285  -0.283
 -0.279  -0.264  -0.260  -0.257  -0.255  -0.238

          Ground-State Mulliken Net Atomic Charges

     Atom                 Charge (a.u.)
  ----------------------------------------
      1 C                    -0.145513
      2 C                    -0.402041
      3 H                     0.249433
      4 C                     0.078902
      5 C                     0.097347
      6 C                    -0.400669
      7 H                     0.250706
      8 C                    -0.150649
      9 C                     0.175500
     10 C                    -0.388654
     11 H                     0.254800
     12 C                    -0.067313
     13 C                     0.218534
     14 C                     0.179810
     15 C                    -0.397660
     16 H                     0.254825
     17 C                    -0.235679
     18 H                     0.260360
     19 C                    -0.345602
     20 H                     0.258041
     21 C                    -0.350567
     22 H                     0.258211
     23 C                    -0.233572
     24 H                     0.259533
     25 B                     0.649482
     26 C                    -0.149389
     27 C                    -0.395284
     28 H                     0.246603
     29 C                     0.097345
     30 C                     0.076487
     31 C                    -0.391966
     32 H                     0.246828
     33 C                    -0.155620
     34 C                     0.177022
     35 C                    -0.388758
     36 H                     0.254439
     37 C                    -0.067085
     38 C                     0.216662
     39 C                     0.178473
     40 C                    -0.398101
     41 H                     0.254334
     42 C                    -0.235849
     43 H                     0.260001
     44 C                    -0.345048
     45 H                     0.258060
     46 C                    -0.349692
     47 H                     0.258111
     48 C                    -0.233393
     49 H                     0.259493
     50 B                     0.663023
     51 C                    -0.258000
     52 C                     0.070159
     53 C                    -0.425948
     54 H                     0.238468
     55 C                     0.385955
     56 O                    -0.454447
     57 C                    -0.472089
     58 H                     0.253940
     59 C                     0.092362
     60 C                    -0.425959
     61 H                     0.259157
     62 H                     0.229140
     63 H                     0.229254
     64 C                    -0.772987
     65 H                     0.252533
     66 H                     0.249243
     67 H                     0.248682
     68 C                    -0.550304
     69 H                     0.251329
     70 H                     0.241353
     71 C                    -0.662704
     72 H                     0.241905
     73 H                     0.227317
     74 H                     0.222529
     75 C                    -0.224210
     76 C                     0.060046
     77 C                    -0.440414
     78 H                     0.258152
     79 C                     0.386892
     80 O                    -0.471596
     81 C                    -0.407851
     82 H                     0.242681
     83 C                     0.043121
     84 C                    -0.430187
     85 H                     0.253966
     86 H                     0.220943
     87 H                     0.221014
     88 C                    -0.773023
     89 H                     0.254193
     90 H                     0.248685
     91 H                     0.248028
     92 C                    -0.548207
     93 H                     0.251488
     94 H                     0.242173
     95 C                    -0.655999
     96 H                     0.233602
     97 H                     0.228588
     98 H                     0.222766
  ----------------------------------------
  Sum of atomic charges =    -0.000000

                    Cartesian Multipole Moments
 -----------------------------------------------------------------
    Charge (ESU x 10^10)
                -0.0000
    Dipole Moment (Debye)
         X      -0.3796      Y       0.0444      Z      -0.2544
       Tot       0.4591
    Quadrupole Moments (Debye-Ang)
        XX    -256.8516     XY      23.9862     YY    -321.3839
        XZ      -2.1910     YZ      12.2123     ZZ    -255.2276

 Total job time:  13340.67s(wall), 45608.72s(cpu)
        *  Thank you very much for using Q-Chem.  Have a nice day.  *
