 Q-Chem 5.1, Q-Chem, Inc., Pleasanton, CA (2018)
 Q-Chem 5.1.1 for Intel X86 EM64T Linux

User input:
--------------------------------------------------------------
$solvent
dielectric      2.03
dielectric_infi 2.02
$end

$rem
threads 8
jobtype	sp
method PBEh-3c
basis def2-mSVP
mem_static	1024
mem_total	14000
sym_ignore	true
cis_n_roots             2
cis_singlets            false
cis_triplets		true
rpa                     false
calc_soc 		true
cis_moments             true
cis_relaxed_density	true
solvent_method		pcm
$end

$pcm
StateSpecific   1
ChargeSeparation Excited
$end

$molecule
read ut1opt_chx.mol
$end

--------------------------------------------------------------

   23   -2202.1808808329      9.11e-09  Convergence criterion met
 Total energy in the final basis set =    -2202.1808808329
 Total job time:  7811.90s(wall), 33995.67s(cpu)
        *  Thank you very much for using Q-Chem.  Have a nice day.  *
 Q-Chem 5.1, Q-Chem, Inc., Pleasanton, CA (2018)
 Q-Chem 5.1.1 for Intel X86 EM64T Linux

User input:
--------------------------------------------------------------
$rem
threads 8
jobtype sp
method PBEh-3c
basis def2-mSVP
mem_static      1024
mem_total       14000
sym_ignore      true
cis_n_roots             6
cis_singlets            true
cis_triplets            true
rpa                     false
calc_soc                true
cis_moments             true
cis_relaxed_density     true
solvent_method          pcm
$end

$molecule
read
$end

$pcm
statespecific           Marcus
$end

$solvent
dielectric      2.03
dielectric_infi 2.02
$end

--------------------------------------------------------------

             Standard Nuclear Orientation (Angstroms)
    I     Atom           X                Y                Z
 ----------------------------------------------------------------
    1      C       0.0000000000     0.0000000000     0.0000000000
    2      C       0.0000000000     0.0000000000     1.4053630000
    3      H       0.9487589648     0.0000000000     1.9328398313
    4      C      -1.1783899137     0.0033902791     2.1105289072
    5      C      -2.4313953277     0.0090812455     1.4297492265
    6      C      -2.4567967076     0.0028737282     0.0573493162
    7      H      -3.4138719961     0.0003347064    -0.4577634738
    8      C      -1.2519275532    -0.0021968378    -0.6892187722
    9      C      -1.4327874823     0.0065347809     3.5432124657
   10      C      -0.6437746544     0.0031404288     4.6665132663
   11      H       0.4375751278    -0.0049569114     4.6041300847
   12      C      -2.8327299454     0.0161915981     3.6973089539
   13      C      -3.4765767003     0.0239660073     4.9309445756
   14      C      -3.4861104267     0.0185310896     2.4475188390
   15      C      -4.8572296883     0.0294676632     2.4395559067
   16      H      -5.4232986763     0.0327469564     1.5162522549
   17      C      -1.2728482945     0.0106786890     5.9320067616
   18      H      -0.6510062962     0.0083038422     6.8184014798
   19      C      -2.6414632760     0.0209557180     6.0762927543
   20      H      -3.0795486340     0.0268647174     7.0669069829
   21      C      -4.8907731203     0.0348537162     4.8897215291
   22      H      -5.4609726680     0.0416859420     5.8106616494
   23      C      -5.5424953095     0.0376271427     3.6775539081
   24      H      -6.6249405033     0.0468876931     3.6666224700
   25      B      -1.2475678002    -0.0137914740    -2.2162255300
   26      C       0.0536536239     0.0211090678    -3.0159508922
   27      C       0.0601033612     0.0550759698    -4.4324050037
   28      H      -0.8795757271     0.0677095431    -4.9782107774
   29      C       1.2444215846     0.0742723543    -5.1262358629
   30      C       2.4779412650     0.0524850907    -4.4116426659
   31      C       2.4934065485     0.0256255311    -3.0397867349
   32      H       3.4392892396     0.0124809954    -2.5082005739
   33      C       1.2943205780     0.0179284606    -2.3082588312
   34      C       3.5699255387     0.0709448822    -5.3746096230
   35      C       4.9402632775     0.0626821247    -5.2882678909
   36      H       5.4514215657     0.0340713817    -4.3337752355
   37      C       2.9725935040     0.1080571414    -6.6491609408
   38      C       3.6921147092     0.1401311489    -7.8415202144
   39      C       1.5653622412     0.1124527597    -6.5583679987
   40      C       0.8487669060     0.1525674545    -7.7275756036
   41      H      -0.2341455503     0.1615020722    -7.7341054914
   42      C       5.6938158080     0.0931444782    -6.4841738824
   43      H       6.7743796999     0.0863696926    -6.4145935185
   44      C       5.1047400424     0.1314275296    -7.7268715570
   45      H       5.7210360993     0.1544229957    -8.6175039734
   46      C       2.9244882949     0.1797091596    -9.0288885586
   47      H       3.4168003729     0.2069729419    -9.9935342933
   48      C       1.5504578613     0.1852653142    -8.9562186051
   49      H       0.9786380096     0.2171881906    -9.8749261657
   50      B       1.3325636775     0.0052324088    -0.7701485716
   51      C      -2.6097644241    -0.0354650854    -2.9951996108
   52      C      -3.3171941806     1.1951986927    -3.2164266919
   53      C      -4.5393459554     1.1717156338    -3.8174575022
   54      H      -5.1070143361     2.0796940229    -3.9802675648
   55      C      -5.1014722862    -0.0591130734    -4.2515616552
   56      O      -6.2814231335     0.0355736651    -4.8035602840
   57      C      -4.3974006513    -1.2716912361    -4.0943714223
   58      H      -4.8133332476    -2.2044256306    -4.4522285727
   59      C      -3.1690854277    -1.2666491760    -3.4898775157
   60      C      -6.9651876432    -1.1220238378    -5.2790073020
   61      H      -7.9154067065    -0.7674513022    -5.6649104667
   62      H      -7.1435330083    -1.8305386362    -4.4697892404
   63      H      -6.4059095492    -1.6049598619    -6.0807705504
   64      C      -2.6983122343     2.4773374745    -2.7645448794
   65      H      -3.2982203821     3.3383508990    -3.0546146678
   66      H      -2.5787697699     2.4877215194    -1.6799472826
   67      H      -1.6978427378     2.5904754192    -3.1853517527
   68      C      -2.4191633708    -2.5497300612    -3.3063486546
   69      H      -1.3487604088    -2.3686025808    -3.4169905084
   70      H      -2.7079259029    -3.2502863279    -4.0927893381
   71      C      -2.6847873014    -3.1802495410    -1.9369353268
   72      H      -2.3501152733    -2.5335565088    -1.1275121676
   73      H      -2.1431713281    -4.1217184430    -1.8528914467
   74      H      -3.7459090285    -3.3863152777    -1.7936913091
   75      C       2.7191340218    -0.0255391064    -0.0067008774
   76      C       3.4582623650     1.1337869948     0.2334504176
   77      C       4.6888199036     1.0814509918     0.8929219067
   78      H       5.2278097235     2.0075774640     1.0552558751
   79      C       5.2028304234    -0.1320418442     1.3195451155
   80      O       6.3830176545    -0.2819687083     1.9640919129
   81      C       4.4809115623    -1.2986019857     1.0775499025
   82      H       4.8920335627    -2.2473195299     1.4032895377
   83      C       3.2600244392    -1.2510150642     0.4261403890
   84      C       7.1414498310     0.8673858165     2.2392940827
   85      H       8.0318073175     0.5347636984     2.7693587471
   86      H       6.6032660021     1.5777874451     2.8750374539
   87      H       7.4545241760     1.3874853663     1.3281437367
   88      C       2.5132992836    -2.5296872748     0.1686122420
   89      H       3.0680360024    -3.3989592799     0.5218408000
   90      H       1.5415352048    -2.5294537013     0.6657117245
   91      H       2.3226134561    -2.6669140155    -0.8979216371
   92      C       2.9366276748     2.4909132707    -0.1658297224
   93      H       2.2841083978     2.4033135787    -1.0375183917
   94      H       3.7711807586     3.1269123684    -0.4746324281
   95      C       2.1765867030     3.1728564051     0.9694923241
   96      H       1.3099755518     2.5828241091     1.2682215328
   97      H       1.8211312825     4.1591424796     0.6675557787
   98      H       2.8108510422     3.3000368424     1.8481377697
 ----------------------------------------------------------------

   23   -2202.1808258219      9.12e-09  Convergence criterion met
 Total energy in the final basis set =    -2202.1808258219

         TDDFT/TDA Excitation Energies
 ---------------------------------------------------

 Excited state   1: excitation energy (eV) =    0.4104
 Total energy for state  1:                 -2202.16574383 au
    <S**2>     :  2.0514
    Trans. Mom.: -0.0483 X   0.0112 Y   0.1430 Z
    Strength   :     0.0002303667
    D(189) --> S(  1) amplitude =  0.9838 beta

 Excited state   2: excitation energy (eV) =    0.7667
 Total energy for state  2:                 -2202.15265181 au
    <S**2>     :  2.0498
    Trans. Mom.:  0.0510 X  -0.0169 Y  -0.1993 Z
    Strength   :     0.0008000751
    D(181) --> S(  1) amplitude =  0.1520 beta
    D(187) --> S(  1) amplitude =  0.9794 beta

 Excited state   3: excitation energy (eV) =    0.8666
 Total energy for state  3:                 -2202.14898038 au
    <S**2>     :  2.0539
    Trans. Mom.:  0.4670 X   0.0181 Y   0.2353 Z
    Strength   :     0.0058135734
    D(186) --> S(  1) amplitude =  0.3583 beta
    D(188) --> S(  1) amplitude =  0.9128 beta

 Excited state   4: excitation energy (eV) =    0.9391
 Total energy for state  4:                 -2202.14631502 au
    <S**2>     :  2.0482
    Trans. Mom.: -0.4752 X  -0.0219 Y  -0.3268 Z
    Strength   :     0.0076637720
    D(180) --> S(  1) amplitude = -0.1530 beta
    D(186) --> S(  1) amplitude =  0.9087 beta
    D(188) --> S(  1) amplitude = -0.3566 beta

 Excited state   5: excitation energy (eV) =    1.2192
 Total energy for state  5:                 -2202.13602231 au
    <S**2>     :  2.0509
    Trans. Mom.:  0.1196 X   0.0066 Y   0.0487 Z
    Strength   :     0.0004996376
    D(184) --> S(  1) amplitude =  0.9039 beta
    D(185) --> S(  1) amplitude = -0.3887 beta

 Excited state   6: excitation energy (eV) =    1.6266
 Total energy for state  6:                 -2202.12104790 au
    <S**2>     :  2.0559
    Trans. Mom.:  0.0266 X  -0.0114 Y   0.0098 Z
    Strength   :     0.0000370405
    D(184) --> S(  1) amplitude =  0.3940 beta
    D(185) --> S(  1) amplitude =  0.9187 beta

 ---------------------------------------------------

                    Orbital Energies (a.u.)
 --------------------------------------------------------------

 Alpha MOs
 -- Occupied --
-19.613 -19.514 -10.592 -10.532 -10.513 -10.506 -10.501 -10.495
-10.494 -10.487 -10.476 -10.457 -10.452 -10.452 -10.451 -10.451
-10.450 -10.450 -10.448 -10.448 -10.448 -10.448 -10.446 -10.446
-10.446 -10.446 -10.446 -10.445 -10.445 -10.445 -10.445 -10.443
-10.443 -10.440 -10.440 -10.438 -10.437 -10.435 -10.435 -10.435
-10.435 -10.433 -10.431 -10.430 -10.418 -10.418 -10.418 -10.417
-10.416 -10.410 -10.408 -10.407 -10.407 -10.398  -6.909  -6.901
 -1.272  -1.169  -1.015  -1.000  -1.000  -0.944  -0.942  -0.938
 -0.931  -0.920  -0.919  -0.913  -0.890  -0.882  -0.867  -0.860
 -0.843  -0.838  -0.837  -0.833  -0.833  -0.827  -0.807  -0.805
 -0.802  -0.797  -0.796  -0.786  -0.760  -0.748  -0.747  -0.719
 -0.716  -0.712  -0.705  -0.705  -0.694  -0.681  -0.674  -0.665
 -0.664  -0.649  -0.639  -0.639  -0.630  -0.629  -0.621  -0.617
 -0.605  -0.599  -0.580  -0.578  -0.574  -0.571  -0.569  -0.562
 -0.560  -0.557  -0.546  -0.540  -0.531  -0.526  -0.523  -0.522
 -0.518  -0.513  -0.511  -0.508  -0.504  -0.502  -0.492  -0.487
 -0.484  -0.483  -0.482  -0.479  -0.477  -0.475  -0.474  -0.471
 -0.470  -0.467  -0.467  -0.466  -0.464  -0.460  -0.456  -0.455
 -0.452  -0.451  -0.448  -0.442  -0.440  -0.431  -0.429  -0.424
 -0.420  -0.418  -0.413  -0.412  -0.410  -0.409  -0.407  -0.402
 -0.401  -0.398  -0.393  -0.384  -0.384  -0.384  -0.382  -0.379
 -0.375  -0.371  -0.361  -0.359  -0.358  -0.350  -0.346  -0.335
 -0.334  -0.330  -0.323  -0.309  -0.306  -0.302  -0.286  -0.284
 -0.272  -0.261  -0.254  -0.244  -0.240  -0.235  -0.154

 Beta MOs
 -- Occupied --
-19.608 -19.514 -10.589 -10.533 -10.512 -10.507 -10.494 -10.494
-10.493 -10.487 -10.476 -10.457 -10.453 -10.453 -10.451 -10.451
-10.450 -10.450 -10.449 -10.448 -10.447 -10.447 -10.446 -10.446
-10.446 -10.446 -10.446 -10.445 -10.445 -10.445 -10.445 -10.443
-10.443 -10.440 -10.440 -10.436 -10.436 -10.435 -10.434 -10.434
-10.434 -10.433 -10.432 -10.431 -10.418 -10.418 -10.417 -10.417
-10.416 -10.410 -10.408 -10.406 -10.406 -10.398  -6.906  -6.899
 -1.261  -1.169  -1.005  -1.000  -1.000  -0.943  -0.940  -0.937
 -0.929  -0.919  -0.919  -0.904  -0.888  -0.881  -0.867  -0.858
 -0.842  -0.837  -0.836  -0.832  -0.832  -0.817  -0.804  -0.803
 -0.800  -0.795  -0.795  -0.784  -0.759  -0.748  -0.742  -0.717
 -0.713  -0.711  -0.704  -0.701  -0.693  -0.678  -0.673  -0.664
 -0.661  -0.647  -0.638  -0.636  -0.629  -0.629  -0.621  -0.613
 -0.594  -0.585  -0.578  -0.577  -0.572  -0.570  -0.568  -0.561
 -0.559  -0.554  -0.545  -0.538  -0.528  -0.525  -0.522  -0.522
 -0.516  -0.512  -0.510  -0.502  -0.501  -0.498  -0.491  -0.486
 -0.484  -0.482  -0.478  -0.476  -0.474  -0.474  -0.472  -0.470
 -0.469  -0.466  -0.465  -0.464  -0.460  -0.459  -0.455  -0.454
 -0.450  -0.450  -0.447  -0.440  -0.438  -0.429  -0.428  -0.423
 -0.417  -0.416  -0.411  -0.410  -0.408  -0.405  -0.401  -0.400
 -0.397  -0.393  -0.385  -0.383  -0.382  -0.381  -0.381  -0.378
 -0.372  -0.370  -0.357  -0.355  -0.352  -0.347  -0.344  -0.333
 -0.330  -0.321  -0.319  -0.302  -0.298  -0.282  -0.282  -0.261
 -0.260  -0.246  -0.240  -0.234  -0.234

          Ground-State Mulliken Net Atomic Charges

     Atom                 Charge (a.u.)    Spin (a.u.)
  --------------------------------------------------------
      1 C                    -0.138562       0.080837
      2 C                    -0.405890      -0.069884
      3 H                     0.234014       0.002920
      4 C                     0.065805       0.115582
      5 C                     0.087815       0.007145
      6 C                    -0.415643       0.020723
      7 H                     0.200046      -0.003606
      8 C                    -0.133092       0.002669
      9 C                     0.183454      -0.062482
     10 C                    -0.396555       0.089447
     11 H                     0.233575      -0.005239
     12 C                    -0.075729       0.022525
     13 C                     0.235623      -0.035676
     14 C                     0.187187      -0.034821
     15 C                    -0.406616       0.056018
     16 H                     0.219283      -0.003309
     17 C                    -0.220033      -0.054260
     18 H                     0.236972       0.002609
     19 C                    -0.353072       0.081029
     20 H                     0.230568      -0.004801
     21 C                    -0.355894       0.052441
     22 H                     0.231798      -0.003033
     23 C                    -0.218515      -0.039346
     24 H                     0.232721       0.001980
     25 B                     0.527349       0.372106
     26 C                    -0.132989       0.004283
     27 C                    -0.409912       0.021710
     28 H                     0.197487      -0.003673
     29 C                     0.087458       0.006339
     30 C                     0.065142       0.112363
     31 C                    -0.394209      -0.067491
     32 H                     0.231387       0.002995
     33 C                    -0.149565       0.079891
     34 C                     0.185100      -0.060819
     35 C                    -0.396298       0.086821
     36 H                     0.233495      -0.005083
     37 C                    -0.075340       0.021849
     38 C                     0.233799      -0.034524
     39 C                     0.186147      -0.033727
     40 C                    -0.406825       0.054094
     41 H                     0.219352      -0.003201
     42 C                    -0.220210      -0.052519
     43 H                     0.236669       0.002525
     44 C                    -0.352177       0.078204
     45 H                     0.230690      -0.004632
     46 C                    -0.354751       0.050428
     47 H                     0.231797      -0.002914
     48 C                    -0.218364      -0.038031
     49 H                     0.232885       0.001916
     50 B                     0.565742       0.259182
     51 C                    -0.119337       0.505838
     52 C                     0.074190      -0.071044
     53 C                    -0.365841       0.097052
     54 H                     0.279997      -0.006316
     55 C                     0.464874       0.225572
     56 O                    -0.394312       0.135413
     57 C                    -0.417292       0.030291
     58 H                     0.281950      -0.003214
     59 C                     0.110983       0.019189
     60 C                    -0.444750      -0.013724
     61 H                     0.281223      -0.000011
     62 H                     0.252732       0.008910
     63 H                     0.252613       0.009085
     64 C                    -0.756925       0.005301
     65 H                     0.251393       0.001251
     66 H                     0.280316      -0.000508
     67 H                     0.278733      -0.001559
     68 C                    -0.550987      -0.000915
     69 H                     0.292097      -0.000670
     70 H                     0.245975       0.001070
     71 C                    -0.663453       0.006765
     72 H                     0.272237      -0.001181
     73 H                     0.242880       0.001197
     74 H                     0.216793      -0.000401
     75 C                    -0.200306      -0.024804
     76 C                     0.060514       0.004233
     77 C                    -0.435282      -0.001369
     78 H                     0.233790       0.000318
     79 C                     0.387919       0.001601
     80 O                    -0.465750       0.000315
     81 C                    -0.396822      -0.001169
     82 H                     0.225357       0.000362
     83 C                     0.043890       0.004158
     84 C                    -0.415915      -0.000041
     85 H                     0.242696       0.000005
     86 H                     0.210083       0.000027
     87 H                     0.209930       0.000032
     88 C                    -0.759506       0.000361
     89 H                     0.235671       0.001356
     90 H                     0.244522      -0.000511
     91 H                     0.243007      -0.000784
     92 C                    -0.539987       0.003003
     93 H                     0.253641      -0.001884
     94 H                     0.224577       0.000286
     95 C                    -0.651217      -0.000203
     96 H                     0.241174      -0.000199
     97 H                     0.215341       0.000012
     98 H                     0.213465      -0.000055
  --------------------------------------------------------
  Sum of atomic charges =    -0.000000

                    Cartesian Multipole Moments
 -----------------------------------------------------------------
    Charge (ESU x 10^10)
                -0.0000
    Dipole Moment (Debye)
         X     -14.3790      Y      -0.8814      Z      -8.0427
       Tot      16.4990
    Quadrupole Moments (Debye-Ang)
        XX    -226.4300     XY      23.6314     YY    -318.8695
        XZ      75.4283     YZ      14.2200     ZZ    -272.7488

 Total job time:  10839.71s(wall), 41247.48s(cpu)
        *  Thank you very much for using Q-Chem.  Have a nice day.  *
