 Q-Chem 5.1, Q-Chem, Inc., Pleasanton, CA (2018)
 Q-Chem 5.1.1 for Intel X86 EM64T Linux

User input:
--------------------------------------------------------------
$solvent
dielectric      2.03
dielectric_infi 2.02
$end

$rem
threads 8
jobtype	sp
method PBEh-3c
basis def2-mSVP
mem_static	1024
mem_total	14000
sym_ignore	true
cis_n_roots             2
cis_singlets            false
cis_triplets		true
rpa                     false
calc_soc 		true
cis_moments             true
cis_relaxed_density	true
solvent_method		pcm
$end

$pcm
StateSpecific   1
ChargeSeparation Excited
$end

$molecule
read ut1opt_chx.mol
$end

--------------------------------------------------------------

   15   -2202.2621356953      6.61e-09  Convergence criterion met
 Total energy in the final basis set =    -2202.2621356953
 Total job time:  6189.78s(wall), 24598.68s(cpu)
        *  Thank you very much for using Q-Chem.  Have a nice day.  *
 Q-Chem 5.1, Q-Chem, Inc., Pleasanton, CA (2018)
 Q-Chem 5.1.1 for Intel X86 EM64T Linux

User input:
--------------------------------------------------------------
$rem
threads 8
jobtype sp
method PBEh-3c
basis def2-mSVP
mem_static      1024
mem_total       14000
sym_ignore      true
cis_n_roots             6
cis_singlets            true
cis_triplets            true
rpa                     false
calc_soc                true
cis_moments             true
cis_relaxed_density     true
solvent_method          pcm
$end

$molecule
read
$end

$pcm
statespecific           Marcus
$end

$solvent
dielectric      2.03
dielectric_infi 2.02
$end

--------------------------------------------------------------

             Standard Nuclear Orientation (Angstroms)
    I     Atom           X                Y                Z
 ----------------------------------------------------------------
    1      C       0.0000000000     0.0000000000     0.0000000000
    2      C       0.0000000000     0.0000000000     1.4053630000
    3      H       0.9487589648     0.0000000000     1.9328398313
    4      C      -1.1783899137     0.0033902791     2.1105289072
    5      C      -2.4313953277     0.0090812455     1.4297492265
    6      C      -2.4567967076     0.0028737282     0.0573493162
    7      H      -3.4138719961     0.0003347064    -0.4577634738
    8      C      -1.2519275532    -0.0021968378    -0.6892187722
    9      C      -1.4327874823     0.0065347809     3.5432124657
   10      C      -0.6437746544     0.0031404288     4.6665132663
   11      H       0.4375751278    -0.0049569114     4.6041300847
   12      C      -2.8327299454     0.0161915981     3.6973089539
   13      C      -3.4765767003     0.0239660073     4.9309445756
   14      C      -3.4861104267     0.0185310896     2.4475188390
   15      C      -4.8572296883     0.0294676632     2.4395559067
   16      H      -5.4232986763     0.0327469564     1.5162522549
   17      C      -1.2728482945     0.0106786890     5.9320067616
   18      H      -0.6510062962     0.0083038422     6.8184014798
   19      C      -2.6414632760     0.0209557180     6.0762927543
   20      H      -3.0795486340     0.0268647174     7.0669069829
   21      C      -4.8907731203     0.0348537162     4.8897215291
   22      H      -5.4609726680     0.0416859420     5.8106616494
   23      C      -5.5424953095     0.0376271427     3.6775539081
   24      H      -6.6249405033     0.0468876931     3.6666224700
   25      B      -1.2475678002    -0.0137914740    -2.2162255300
   26      C       0.0536536239     0.0211090678    -3.0159508922
   27      C       0.0601033612     0.0550759698    -4.4324050037
   28      H      -0.8795757271     0.0677095431    -4.9782107774
   29      C       1.2444215846     0.0742723543    -5.1262358629
   30      C       2.4779412650     0.0524850907    -4.4116426659
   31      C       2.4934065485     0.0256255311    -3.0397867349
   32      H       3.4392892396     0.0124809954    -2.5082005739
   33      C       1.2943205780     0.0179284606    -2.3082588312
   34      C       3.5699255387     0.0709448822    -5.3746096230
   35      C       4.9402632775     0.0626821247    -5.2882678909
   36      H       5.4514215657     0.0340713817    -4.3337752355
   37      C       2.9725935040     0.1080571414    -6.6491609408
   38      C       3.6921147092     0.1401311489    -7.8415202144
   39      C       1.5653622412     0.1124527597    -6.5583679987
   40      C       0.8487669060     0.1525674545    -7.7275756036
   41      H      -0.2341455503     0.1615020722    -7.7341054914
   42      C       5.6938158080     0.0931444782    -6.4841738824
   43      H       6.7743796999     0.0863696926    -6.4145935185
   44      C       5.1047400424     0.1314275296    -7.7268715570
   45      H       5.7210360993     0.1544229957    -8.6175039734
   46      C       2.9244882949     0.1797091596    -9.0288885586
   47      H       3.4168003729     0.2069729419    -9.9935342933
   48      C       1.5504578613     0.1852653142    -8.9562186051
   49      H       0.9786380096     0.2171881906    -9.8749261657
   50      B       1.3325636775     0.0052324088    -0.7701485716
   51      C      -2.6097644241    -0.0354650854    -2.9951996108
   52      C      -3.3171941806     1.1951986927    -3.2164266919
   53      C      -4.5393459554     1.1717156338    -3.8174575022
   54      H      -5.1070143361     2.0796940229    -3.9802675648
   55      C      -5.1014722862    -0.0591130734    -4.2515616552
   56      O      -6.2814231335     0.0355736651    -4.8035602840
   57      C      -4.3974006513    -1.2716912361    -4.0943714223
   58      H      -4.8133332476    -2.2044256306    -4.4522285727
   59      C      -3.1690854277    -1.2666491760    -3.4898775157
   60      C      -6.9651876432    -1.1220238378    -5.2790073020
   61      H      -7.9154067065    -0.7674513022    -5.6649104667
   62      H      -7.1435330083    -1.8305386362    -4.4697892404
   63      H      -6.4059095492    -1.6049598619    -6.0807705504
   64      C      -2.6983122343     2.4773374745    -2.7645448794
   65      H      -3.2982203821     3.3383508990    -3.0546146678
   66      H      -2.5787697699     2.4877215194    -1.6799472826
   67      H      -1.6978427378     2.5904754192    -3.1853517527
   68      C      -2.4191633708    -2.5497300612    -3.3063486546
   69      H      -1.3487604088    -2.3686025808    -3.4169905084
   70      H      -2.7079259029    -3.2502863279    -4.0927893381
   71      C      -2.6847873014    -3.1802495410    -1.9369353268
   72      H      -2.3501152733    -2.5335565088    -1.1275121676
   73      H      -2.1431713281    -4.1217184430    -1.8528914467
   74      H      -3.7459090285    -3.3863152777    -1.7936913091
   75      C       2.7191340218    -0.0255391064    -0.0067008774
   76      C       3.4582623650     1.1337869948     0.2334504176
   77      C       4.6888199036     1.0814509918     0.8929219067
   78      H       5.2278097235     2.0075774640     1.0552558751
   79      C       5.2028304234    -0.1320418442     1.3195451155
   80      O       6.3830176545    -0.2819687083     1.9640919129
   81      C       4.4809115623    -1.2986019857     1.0775499025
   82      H       4.8920335627    -2.2473195299     1.4032895377
   83      C       3.2600244392    -1.2510150642     0.4261403890
   84      C       7.1414498310     0.8673858165     2.2392940827
   85      H       8.0318073175     0.5347636984     2.7693587471
   86      H       6.6032660021     1.5777874451     2.8750374539
   87      H       7.4545241760     1.3874853663     1.3281437367
   88      C       2.5132992836    -2.5296872748     0.1686122420
   89      H       3.0680360024    -3.3989592799     0.5218408000
   90      H       1.5415352048    -2.5294537013     0.6657117245
   91      H       2.3226134561    -2.6669140155    -0.8979216371
   92      C       2.9366276748     2.4909132707    -0.1658297224
   93      H       2.2841083978     2.4033135787    -1.0375183917
   94      H       3.7711807586     3.1269123684    -0.4746324281
   95      C       2.1765867030     3.1728564051     0.9694923241
   96      H       1.3099755518     2.5828241091     1.2682215328
   97      H       1.8211312825     4.1591424796     0.6675557787
   98      H       2.8108510422     3.3000368424     1.8481377697
 ----------------------------------------------------------------

   15   -2202.2621348498      6.62e-09  Convergence criterion met
 Total energy in the final basis set =    -2202.2621348498

         TDDFT/TDA Excitation Energies
 ---------------------------------------------------

 Excited state   1: excitation energy (eV) =    2.2145
 Total energy for state  1:                 -2202.18075303 au
    Multiplicity: Triplet
    Trans. Mom.:  0.0000 X   0.0000 Y   0.0000 Z
    Strength   :     0.0000000000
    D(183) --> V(  2) amplitude = -0.2383
    D(187) --> V(  1) amplitude =  0.7039
    D(188) --> V(  1) amplitude =  0.5906

 Excited state   2: excitation energy (eV) =    2.3823
 Total energy for state  2:                 -2202.17458596 au
    Multiplicity: Triplet
    Trans. Mom.:  0.0000 X   0.0000 Y   0.0000 Z
    Strength   :     0.0000000000
    D(190) --> V(  1) amplitude =  0.9414

 Excited state   3: excitation energy (eV) =    2.4389
 Total energy for state  3:                 -2202.17250583 au
    Multiplicity: Singlet
    Trans. Mom.:  0.3329 X  -0.0062 Y   0.2464 Z
    Strength   :     0.0102489117
    D(190) --> V(  1) amplitude =  0.9729

 Excited state   4: excitation energy (eV) =    2.4413
 Total energy for state  4:                 -2202.17241774 au
    Multiplicity: Triplet
    Trans. Mom.:  0.0000 X   0.0000 Y   0.0000 Z
    Strength   :     0.0000000000
    D(186) --> V(  2) amplitude = -0.4656
    D(187) --> V(  1) amplitude = -0.5316
    D(188) --> V(  1) amplitude =  0.5974

 Excited state   5: excitation energy (eV) =    2.4988
 Total energy for state  5:                 -2202.17030550 au
    Multiplicity: Triplet
    Trans. Mom.:  0.0000 X   0.0000 Y   0.0000 Z
    Strength   :     0.0000000000
    D(186) --> V(  1) amplitude =  0.7173
    D(186) --> V(  4) amplitude = -0.2293
    D(187) --> V(  2) amplitude =  0.2547
    D(188) --> V(  2) amplitude = -0.4742

 Excited state   6: excitation energy (eV) =    2.7291
 Total energy for state  6:                 -2202.16184349 au
    Multiplicity: Triplet
    Trans. Mom.:  0.0000 X   0.0000 Y   0.0000 Z
    Strength   :     0.0000000000
    D(183) --> V(  1) amplitude =  0.6857
    D(187) --> V(  2) amplitude = -0.4859
    D(188) --> V(  2) amplitude = -0.2539

 Excited state   7: excitation energy (eV) =    2.8815
 Total energy for state  7:                 -2202.15624095 au
    Multiplicity: Triplet
    Trans. Mom.:  0.0000 X   0.0000 Y   0.0000 Z
    Strength   :     0.0000000000
    D(189) --> V(  1) amplitude =  0.9249

 Excited state   8: excitation energy (eV) =    2.8841
 Total energy for state  8:                 -2202.15614656 au
    Multiplicity: Singlet
    Trans. Mom.: -0.2576 X   0.0003 Y   0.4068 Z
    Strength   :     0.0163777698
    D(187) --> V(  1) amplitude =  0.7572
    D(188) --> V(  1) amplitude =  0.5974

 Excited state   9: excitation energy (eV) =    2.9217
 Total energy for state  9:                 -2202.15476484 au
    Multiplicity: Singlet
    Trans. Mom.: -0.3300 X   0.0088 Y  -0.0505 Z
    Strength   :     0.0079830009
    D(189) --> V(  1) amplitude =  0.9657

 Excited state  10: excitation energy (eV) =    3.1423
 Total energy for state 10:                 -2202.14665715 au
    Multiplicity: Singlet
    Trans. Mom.: -1.9761 X  -0.0296 Y   3.5469 Z
    Strength   :     1.2692266873
    D(187) --> V(  1) amplitude = -0.5929
    D(188) --> V(  1) amplitude =  0.7495

 Excited state  11: excitation energy (eV) =    3.4541
 Total energy for state 11:                 -2202.13520024 au
    Multiplicity: Singlet
    Trans. Mom.: -0.1608 X  -0.0537 Y  -0.1074 Z
    Strength   :     0.0034094534
    D(186) --> V(  1) amplitude =  0.9369

 Excited state  12: excitation energy (eV) =    3.6624
 Total energy for state 12:                 -2202.12754439 au
    Multiplicity: Singlet
    Trans. Mom.: -0.8506 X  -0.0330 Y  -0.4717 Z
    Strength   :     0.0849771686
    D(183) --> V(  1) amplitude =  0.7453
    D(187) --> V(  2) amplitude = -0.4705
    D(188) --> V(  2) amplitude = -0.2945

 ---------------------------------------------------

                    Orbital Energies (a.u.)
 --------------------------------------------------------------

 Alpha MOs
 -- Occupied --
-19.526 -19.525 -10.503 -10.502 -10.489 -10.485 -10.465 -10.465
-10.464 -10.464 -10.464 -10.464 -10.464 -10.463 -10.463 -10.462
-10.462 -10.462 -10.461 -10.461 -10.461 -10.461 -10.460 -10.460
-10.458 -10.458 -10.458 -10.458 -10.455 -10.454 -10.452 -10.452
-10.451 -10.450 -10.449 -10.448 -10.448 -10.447 -10.435 -10.434
-10.434 -10.433 -10.433 -10.433 -10.430 -10.430 -10.429 -10.426
-10.424 -10.423 -10.420 -10.418 -10.417 -10.414  -6.946  -6.938
 -1.192  -1.181  -1.016  -1.015  -0.961  -0.958  -0.954  -0.945
 -0.933  -0.932  -0.907  -0.898  -0.882  -0.882  -0.860  -0.854
 -0.853  -0.849  -0.846  -0.845  -0.823  -0.817  -0.815  -0.812
 -0.811  -0.803  -0.774  -0.769  -0.762  -0.761  -0.734  -0.728
 -0.726  -0.720  -0.708  -0.706  -0.688  -0.681  -0.679  -0.665
 -0.656  -0.646  -0.645  -0.643  -0.636  -0.632  -0.595  -0.591
 -0.590  -0.587  -0.583  -0.582  -0.580  -0.575  -0.575  -0.560
 -0.559  -0.543  -0.543  -0.538  -0.535  -0.532  -0.526  -0.522
 -0.512  -0.506  -0.503  -0.498  -0.496  -0.495  -0.494  -0.492
 -0.489  -0.489  -0.485  -0.484  -0.483  -0.480  -0.478  -0.473
 -0.472  -0.470  -0.467  -0.465  -0.465  -0.463  -0.460  -0.454
 -0.446  -0.443  -0.439  -0.437  -0.435  -0.427  -0.427  -0.425
 -0.423  -0.422  -0.420  -0.414  -0.413  -0.410  -0.405  -0.403
 -0.397  -0.395  -0.395  -0.393  -0.391  -0.391  -0.384  -0.382
 -0.378  -0.372  -0.366  -0.362  -0.359  -0.356  -0.353  -0.349
 -0.341  -0.335  -0.319  -0.314  -0.296  -0.295  -0.282  -0.278
 -0.275  -0.262  -0.256  -0.254  -0.251  -0.234

          Ground-State Mulliken Net Atomic Charges

     Atom                 Charge (a.u.)
  ----------------------------------------
      1 C                    -0.143906
      2 C                    -0.402002
      3 H                     0.244843
      4 C                     0.085614
      5 C                     0.106672
      6 C                    -0.399837
      7 H                     0.245316
      8 C                    -0.151885
      9 C                     0.183698
     10 C                    -0.383734
     11 H                     0.239901
     12 C                    -0.066699
     13 C                     0.235020
     14 C                     0.189834
     15 C                    -0.393250
     16 H                     0.240008
     17 C                    -0.222306
     18 H                     0.244584
     19 C                    -0.340263
     20 H                     0.240274
     21 C                    -0.345585
     22 H                     0.240537
     23 C                    -0.219237
     24 H                     0.244086
     25 B                     0.653582
     26 C                    -0.149461
     27 C                    -0.393308
     28 H                     0.241585
     29 C                     0.106146
     30 C                     0.083946
     31 C                    -0.388550
     32 H                     0.241019
     33 C                    -0.155313
     34 C                     0.185502
     35 C                    -0.383762
     36 H                     0.239573
     37 C                    -0.066562
     38 C                     0.233168
     39 C                     0.188701
     40 C                    -0.393782
     41 H                     0.239386
     42 C                    -0.222425
     43 H                     0.244093
     44 C                    -0.339737
     45 H                     0.240166
     46 C                    -0.344745
     47 H                     0.240321
     48 C                    -0.219040
     49 H                     0.243921
     50 B                     0.669626
     51 C                    -0.257089
     52 C                     0.076098
     53 C                    -0.409972
     54 H                     0.229130
     55 C                     0.392954
     56 O                    -0.450047
     57 C                    -0.461293
     58 H                     0.236233
     59 C                     0.099462
     60 C                    -0.415861
     61 H                     0.251313
     62 H                     0.219773
     63 H                     0.219662
     64 C                    -0.767463
     65 H                     0.244595
     66 H                     0.248402
     67 H                     0.247751
     68 C                    -0.549612
     69 H                     0.253123
     70 H                     0.232560
     71 C                    -0.656222
     72 H                     0.246042
     73 H                     0.222172
     74 H                     0.218490
     75 C                    -0.224774
     76 C                     0.068603
     77 C                    -0.433151
     78 H                     0.240719
     79 C                     0.393773
     80 O                    -0.463461
     81 C                    -0.394370
     82 H                     0.233350
     83 C                     0.049507
     84 C                    -0.418908
     85 H                     0.246890
     86 H                     0.212199
     87 H                     0.212045
     88 C                    -0.767129
     89 H                     0.246276
     90 H                     0.247628
     91 H                     0.246795
     92 C                    -0.548230
     93 H                     0.252773
     94 H                     0.234193
     95 C                    -0.649792
     96 H                     0.237816
     97 H                     0.223624
     98 H                     0.217689
  ----------------------------------------
  Sum of atomic charges =    -0.000000

                    Cartesian Multipole Moments
 -----------------------------------------------------------------
    Charge (ESU x 10^10)
                -0.0000
    Dipole Moment (Debye)
         X      -0.2999      Y       0.0267      Z      -0.2233
       Tot       0.3749
    Quadrupole Moments (Debye-Ang)
        XX    -265.5088     XY      20.7541     YY    -323.0240
        XZ      -0.6641     YZ      10.4824     ZZ    -266.0307

 Total job time:  19070.06s(wall), 50952.85s(cpu)
        *  Thank you very much for using Q-Chem.  Have a nice day.  *
