 Q-Chem 5.1, Q-Chem, Inc., Pleasanton, CA (2018)
 Q-Chem 5.1.1 for Intel X86 EM64T Linux

User input:
--------------------------------------------------------------
$solvent
dielectric      4.33
dielectric_infi 1.83
$end

$rem
threads 8
jobtype	sp
method PBEh-3c
basis def2-mSVP
mem_static	1024
mem_total	14000
sym_ignore	true
cis_n_roots             2
cis_singlets            false
cis_triplets		true
rpa                     false
calc_soc 		true
cis_moments             true
cis_relaxed_density	true
solvent_method		pcm
$end

$pcm
StateSpecific   1
ChargeSeparation Excited
$end

$molecule
read ut1opt_eth.mol
$end

--------------------------------------------------------------

   22   -2202.1954217168      7.56e-09  Convergence criterion met
 Total energy in the final basis set =    -2202.1954217168
 Total job time:  9900.36s(wall), 40752.35s(cpu)
        *  Thank you very much for using Q-Chem.  Have a nice day.  *
 Q-Chem 5.1, Q-Chem, Inc., Pleasanton, CA (2018)
 Q-Chem 5.1.1 for Intel X86 EM64T Linux

User input:
--------------------------------------------------------------
$rem
threads 8
jobtype sp
method PBEh-3c
basis def2-mSVP
mem_static      1024
mem_total       14000
sym_ignore      true
cis_n_roots             6
cis_singlets            true
cis_triplets            true
rpa                     false
calc_soc                true
cis_moments             true
cis_relaxed_density     true
solvent_method          pcm
$end

$molecule
read
$end

$pcm
statespecific           Marcus
$end

$solvent
dielectric      4.33
dielectric_infi 1.83
$end

--------------------------------------------------------------

             Standard Nuclear Orientation (Angstroms)
    I     Atom           X                Y                Z
 ----------------------------------------------------------------
    1      C       0.0000000000     0.0000000000     0.0000000000
    2      C       0.0000000000     0.0000000000     1.4062080000
    3      H       0.9478355894     0.0000000000     1.9353997108
    4      C      -1.1784235525     0.0034826214     2.1113445069
    5      C      -2.4320808432     0.0091149013     1.4301470577
    6      C      -2.4576513400     0.0022802527     0.0571881628
    7      H      -3.4144109641     0.0001530829    -0.4579601396
    8      C      -1.2531077187    -0.0040340068    -0.6893793751
    9      C      -1.4329918651     0.0077874414     3.5444598937
   10      C      -0.6439106086     0.0050757635     4.6683914530
   11      H       0.4375937034    -0.0033010918     4.6068543975
   12      C      -2.8333232326     0.0180490914     3.6978523147
   13      C      -3.4777348483     0.0268431783     4.9316938272
   14      C      -3.4868020631     0.0195330758     2.4476451494
   15      C      -4.8584983034     0.0306993324     2.4389890259
   16      H      -5.4244136212     0.0332025908     1.5155934394
   17      C      -1.2737126050     0.0137425165     5.9339532760
   18      H      -0.6521447035     0.0119274297     6.8205928370
   19      C      -2.6429688315     0.0244798662     6.0777402138
   20      H      -3.0816991232     0.0312028849     7.0681130057
   21      C      -4.8924472158     0.0379702497     4.8903875989
   22      H      -5.4626899799     0.0455506285     5.8113198066
   23      C      -5.5438537986     0.0398627888     3.6774504256
   24      H      -6.6263002430     0.0491991274     3.6659308783
   25      B      -1.2531214898    -0.0144326040    -2.2172699898
   26      C       0.0498795231     0.0225117254    -3.0151062553
   27      C       0.0542797845     0.0539843416    -4.4314047765
   28      H      -0.8861478005     0.0622934024    -4.9754580422
   29      C       1.2380648745     0.0752873873    -5.1274123921
   30      C       2.4734488265     0.0588704235    -4.4143531249
   31      C       2.4910743622     0.0328438692    -3.0424241696
   32      H       3.4389055306     0.0233594851    -2.5140485249
   33      C       1.2925049244     0.0213491146    -2.3085916469
   34      C       3.5642081017     0.0789057022    -5.3792994631
   35      C       4.9352743925     0.0753800104    -5.2951619677
   36      H       5.4487034637     0.0512738494    -4.3416416230
   37      C       2.9640420315     0.1105486604    -6.6529981265
   38      C       3.6815994401     0.1411068540    -7.8470923257
   39      C       1.5565341391     0.1105254984    -6.5600132673
   40      C       0.8372482329     0.1439312986    -7.7284801059
   41      H      -0.2457000787     0.1483518460    -7.7332865587
   42      C       5.6866458183     0.1047930342    -6.4929085566
   43      H       6.7673873054     0.1017503323    -6.4252905563
   44      C       5.0948159543     0.1372553939    -7.7351221054
   45      H       5.7091591993     0.1593898602    -8.6271730188
   46      C       2.9118350684     0.1740108194    -9.0338853965
   47      H       3.4026649906     0.1995179637    -9.9993576974
   48      C       1.5373903868     0.1749134492    -8.9585692397
   49      H       0.9636525200     0.2013485227    -9.8762570801
   50      B       1.3318152166     0.0072353601    -0.7706967128
   51      C      -2.6192871584    -0.0369447613    -2.9952094774
   52      C      -3.3189372518     1.1945718531    -3.2279651228
   53      C      -4.5383303073     1.1732473673    -3.8342263803
   54      H      -5.0998341658     2.0832617716    -4.0071447868
   55      C      -5.1060823122    -0.0597985175    -4.2596046661
   56      O      -6.2803429145     0.0350516583    -4.8147831872
   57      C      -4.4076534083    -1.2756865189    -4.0877150909
   58      H      -4.8269803356    -2.2092218046    -4.4394182624
   59      C      -3.1834837516    -1.2696182408    -3.4769075476
   60      C      -6.9732711907    -1.1241950922    -5.2840405309
   61      H      -7.9183142892    -0.7639337044    -5.6764832734
   62      H      -7.1578941980    -1.8216950211    -4.4674023779
   63      H      -6.4115619293    -1.6161196545    -6.0779101036
   64      C      -2.6976109143     2.4793890877    -2.7847748013
   65      H      -3.2976280102     3.3382826920    -3.0803670299
   66      H      -2.5787395801     2.4984946111    -1.7002692969
   67      H      -1.6982801145     2.5908926351    -3.2087119947
   68      C      -2.4431317368    -2.5566610638    -3.2767430387
   69      H      -1.3699089321    -2.3834836576    -3.3720963466
   70      H      -2.7240505457    -3.2579644909    -4.0649277529
   71      C      -2.7350640378    -3.1817002042    -1.9108089815
   72      H      -2.4123484619    -2.5335303664    -1.0973987084
   73      H      -2.2002069672    -4.1259273197    -1.8137009327
   74      H      -3.7997697275    -3.3813141864    -1.7865998925
   75      C       2.7201569714    -0.0222482074    -0.0081319846
   76      C       3.4568799881     1.1386452402     0.2344768803
   77      C       4.6896366754     1.0887060074     0.8910695726
   78      H       5.2264249251     2.0158487405     1.0551615727
   79      C       5.2086286624    -0.1247669268     1.3129553775
   80      O       6.3906090805    -0.2727714303     1.9541185466
   81      C       4.4889676221    -1.2931131940     1.0694080317
   82      H       4.9021590418    -2.2425149846     1.3913960782
   83      C       3.2657705641    -1.2472503421     0.4207363940
   84      C       7.1481069267     0.8802469981     2.2313325374
   85      H       8.0404357131     0.5482999741     2.7581155652
   86      H       6.6085066421     1.5861999094     2.8700439912
   87      H       7.4563869290     1.4026974690     1.3204499034
   88      C       2.5225106603    -2.5282342385     0.1637387760
   89      H       3.0807360467    -3.3961125846     0.5149014088
   90      H       1.5519126462    -2.5313838998     0.6632018598
   91      H       2.3288344083    -2.6656082425    -0.9022709569
   92      C       2.9309338124     2.4958755410    -0.1591923360
   93      H       2.2655861839     2.4074917624    -1.0210275577
   94      H       3.7613800086     3.1313966337    -0.4794488764
   95      C       2.1871005455     3.1795220617     0.9859306810
   96      H       1.3269622120     2.5878275203     1.3003014353
   97      H       1.8243652509     4.1637678238     0.6862083605
   98      H       2.8350510154     3.3117043940     1.8538257122
 ----------------------------------------------------------------

   23   -2202.1873878967      8.78e-09  Convergence criterion met
 Total energy in the final basis set =    -2202.1873878967

         TDDFT/TDA Excitation Energies
 ---------------------------------------------------

 Excited state   1: excitation energy (eV) =    0.3196
 Total energy for state  1:                 -2202.17564332 au
    <S**2>     :  2.0508
    Trans. Mom.: -0.0313 X   0.0117 Y   0.1544 Z
    Strength   :     0.0001953876
    D(189) --> S(  1) amplitude =  0.9911 beta

 Excited state   2: excitation energy (eV) =    0.6577
 Total energy for state  2:                 -2202.16321651 au
    <S**2>     :  2.0493
    Trans. Mom.:  0.0330 X  -0.0177 Y  -0.2147 Z
    Strength   :     0.0007656675
    D(181) --> S(  1) amplitude = -0.1511 beta
    D(187) --> S(  1) amplitude =  0.9800 beta

 Excited state   3: excitation energy (eV) =    0.7826
 Total energy for state  3:                 -2202.15862956 au
    <S**2>     :  2.0514
    Trans. Mom.:  0.3849 X   0.0136 Y   0.1587 Z
    Strength   :     0.0033269410
    D(186) --> S(  1) amplitude =  0.5623 beta
    D(188) --> S(  1) amplitude =  0.8092 beta

 Excited state   4: excitation energy (eV) =    0.8423
 Total energy for state  4:                 -2202.15643286 au
    <S**2>     :  2.0497
    Trans. Mom.: -0.6036 X  -0.0269 Y  -0.4040 Z
    Strength   :     0.0109005724
    D(186) --> S(  1) amplitude =  0.8003 beta
    D(188) --> S(  1) amplitude = -0.5657 beta

 Excited state   5: excitation energy (eV) =    1.1237
 Total energy for state  5:                 -2202.14609384 au
    <S**2>     :  2.0502
    Trans. Mom.: -0.1066 X  -0.0067 Y  -0.0454 Z
    Strength   :     0.0003706672
    D(184) --> S(  1) amplitude =  0.4354 beta
    D(185) --> S(  1) amplitude =  0.8830 beta

 Excited state   6: excitation energy (eV) =    1.5552
 Total energy for state  6:                 -2202.13023453 au
    <S**2>     :  2.0552
    Trans. Mom.: -0.0251 X   0.0119 Y  -0.0082 Z
    Strength   :     0.0000320513
    D(184) --> S(  1) amplitude =  0.8962 beta
    D(185) --> S(  1) amplitude = -0.4429 beta

 ---------------------------------------------------

                    Orbital Energies (a.u.)
 --------------------------------------------------------------

 Alpha MOs
 -- Occupied --
-19.619 -19.516 -10.597 -10.534 -10.517 -10.511 -10.505 -10.500
-10.499 -10.490 -10.474 -10.460 -10.452 -10.452 -10.452 -10.451
-10.451 -10.451 -10.450 -10.448 -10.448 -10.447 -10.447 -10.446
-10.446 -10.446 -10.445 -10.445 -10.445 -10.445 -10.445 -10.444
-10.444 -10.442 -10.442 -10.439 -10.439 -10.438 -10.438 -10.436
-10.435 -10.435 -10.433 -10.432 -10.420 -10.420 -10.420 -10.420
-10.418 -10.412 -10.409 -10.409 -10.409 -10.400  -6.912  -6.903
 -1.278  -1.170  -1.020  -1.001  -1.001  -0.945  -0.942  -0.940
 -0.936  -0.920  -0.919  -0.917  -0.891  -0.883  -0.869  -0.864
 -0.845  -0.839  -0.838  -0.833  -0.833  -0.830  -0.811  -0.806
 -0.803  -0.798  -0.797  -0.787  -0.761  -0.751  -0.750  -0.720
 -0.717  -0.712  -0.708  -0.705  -0.695  -0.685  -0.674  -0.667
 -0.664  -0.650  -0.643  -0.640  -0.631  -0.630  -0.623  -0.622
 -0.610  -0.602  -0.580  -0.578  -0.574  -0.571  -0.569  -0.563
 -0.560  -0.558  -0.547  -0.543  -0.534  -0.528  -0.524  -0.522
 -0.522  -0.515  -0.511  -0.510  -0.506  -0.505  -0.493  -0.488
 -0.485  -0.485  -0.484  -0.481  -0.478  -0.476  -0.475  -0.472
 -0.472  -0.470  -0.469  -0.467  -0.464  -0.460  -0.458  -0.456
 -0.454  -0.451  -0.449  -0.446  -0.441  -0.432  -0.430  -0.424
 -0.422  -0.419  -0.415  -0.414  -0.412  -0.411  -0.410  -0.405
 -0.403  -0.400  -0.394  -0.384  -0.384  -0.384  -0.382  -0.379
 -0.375  -0.372  -0.363  -0.361  -0.360  -0.352  -0.348  -0.340
 -0.336  -0.333  -0.325  -0.312  -0.309  -0.304  -0.287  -0.285
 -0.273  -0.263  -0.255  -0.245  -0.242  -0.237  -0.156

 Beta MOs
 -- Occupied --
-19.613 -19.516 -10.594 -10.534 -10.517 -10.512 -10.499 -10.498
-10.498 -10.490 -10.474 -10.460 -10.453 -10.453 -10.452 -10.452
-10.450 -10.450 -10.450 -10.448 -10.448 -10.447 -10.447 -10.447
-10.447 -10.445 -10.445 -10.445 -10.445 -10.445 -10.445 -10.444
-10.444 -10.442 -10.442 -10.438 -10.438 -10.438 -10.438 -10.435
-10.435 -10.435 -10.433 -10.433 -10.420 -10.420 -10.420 -10.420
-10.418 -10.412 -10.409 -10.408 -10.408 -10.401  -6.909  -6.901
 -1.267  -1.170  -1.010  -1.001  -1.000  -0.944  -0.941  -0.939
 -0.933  -0.919  -0.918  -0.907  -0.889  -0.882  -0.869  -0.862
 -0.844  -0.838  -0.837  -0.832  -0.832  -0.821  -0.807  -0.804
 -0.801  -0.796  -0.796  -0.785  -0.760  -0.750  -0.746  -0.718
 -0.714  -0.711  -0.704  -0.704  -0.695  -0.682  -0.673  -0.664
 -0.662  -0.648  -0.640  -0.640  -0.630  -0.629  -0.622  -0.617
 -0.597  -0.589  -0.578  -0.577  -0.573  -0.571  -0.568  -0.562
 -0.559  -0.555  -0.546  -0.541  -0.530  -0.526  -0.523  -0.522
 -0.520  -0.512  -0.510  -0.505  -0.503  -0.501  -0.492  -0.486
 -0.485  -0.483  -0.480  -0.477  -0.475  -0.475  -0.474  -0.471
 -0.470  -0.468  -0.466  -0.464  -0.462  -0.460  -0.456  -0.456
 -0.452  -0.450  -0.449  -0.442  -0.439  -0.431  -0.428  -0.423
 -0.418  -0.417  -0.412  -0.412  -0.410  -0.408  -0.403  -0.401
 -0.398  -0.394  -0.389  -0.383  -0.382  -0.382  -0.381  -0.378
 -0.373  -0.371  -0.359  -0.357  -0.354  -0.349  -0.346  -0.336
 -0.334  -0.323  -0.321  -0.304  -0.299  -0.283  -0.282  -0.263
 -0.263  -0.247  -0.241  -0.237  -0.235

          Ground-State Mulliken Net Atomic Charges

     Atom                 Charge (a.u.)    Spin (a.u.)
  --------------------------------------------------------
      1 C                    -0.139182       0.081167
      2 C                    -0.405770      -0.068700
      3 H                     0.237819       0.002841
      4 C                     0.061802       0.115999
      5 C                     0.082358       0.005227
      6 C                    -0.416441       0.023828
      7 H                     0.201194      -0.003789
      8 C                    -0.130611       0.001219
      9 C                     0.178500      -0.062624
     10 C                    -0.399479       0.088821
     11 H                     0.243925      -0.005165
     12 C                    -0.075618       0.022303
     13 C                     0.224976      -0.035276
     14 C                     0.180871      -0.034431
     15 C                    -0.409788       0.055100
     16 H                     0.228548      -0.003236
     17 C                    -0.228937      -0.053888
     18 H                     0.247722       0.002568
     19 C                    -0.356420       0.080308
     20 H                     0.242803      -0.004711
     21 C                    -0.359199       0.051416
     22 H                     0.243866      -0.002941
     23 C                    -0.228076      -0.038869
     24 H                     0.242934       0.001944
     25 B                     0.520465       0.376957
     26 C                    -0.130969       0.002388
     27 C                    -0.411229       0.024615
     28 H                     0.198306      -0.003856
     29 C                     0.082399       0.004467
     30 C                     0.060930       0.112145
     31 C                    -0.396079      -0.066138
     32 H                     0.235632       0.002898
     33 C                    -0.149442       0.079917
     34 C                     0.180027      -0.060715
     35 C                    -0.399186       0.085795
     36 H                     0.243819      -0.004987
     37 C                    -0.075152       0.021512
     38 C                     0.223146      -0.033965
     39 C                     0.179733      -0.033214
     40 C                    -0.409868       0.052977
     41 H                     0.228702      -0.003116
     42 C                    -0.229132      -0.051912
     43 H                     0.247486       0.002475
     44 C                    -0.355452       0.077094
     45 H                     0.243002      -0.004520
     46 C                    -0.357983       0.049212
     47 H                     0.243935      -0.002813
     48 C                    -0.227938      -0.037406
     49 H                     0.243157       0.001873
     50 B                     0.561334       0.259663
     51 C                    -0.119078       0.502663
     52 C                     0.070209      -0.067252
     53 C                    -0.377785       0.094977
     54 H                     0.285224      -0.006206
     55 C                     0.457619       0.222841
     56 O                    -0.397178       0.137142
     57 C                    -0.425033       0.033105
     58 H                     0.292480      -0.003323
     59 C                     0.104829       0.015822
     60 C                    -0.451501      -0.013692
     61 H                     0.286738      -0.000005
     62 H                     0.258577       0.008886
     63 H                     0.258552       0.009059
     64 C                    -0.760824       0.005055
     65 H                     0.255865       0.001281
     66 H                     0.282165      -0.000400
     67 H                     0.280726      -0.001408
     68 C                    -0.551765      -0.000595
     69 H                     0.292694      -0.000855
     70 H                     0.250720       0.001196
     71 C                    -0.668174       0.006454
     72 H                     0.270893      -0.001100
     73 H                     0.246661       0.001093
     74 H                     0.218326      -0.000405
     75 C                    -0.199171      -0.024802
     76 C                     0.055238       0.004268
     77 C                    -0.440692      -0.001371
     78 H                     0.245366       0.000315
     79 C                     0.383383       0.001689
     80 O                    -0.471264       0.000369
     81 C                    -0.405902      -0.001157
     82 H                     0.231701       0.000358
     83 C                     0.039477       0.004170
     84 C                    -0.423550      -0.000047
     85 H                     0.247449       0.000005
     86 H                     0.215890       0.000031
     87 H                     0.215934       0.000035
     88 C                    -0.763859       0.000335
     89 H                     0.240876       0.001334
     90 H                     0.245621      -0.000507
     91 H                     0.244054      -0.000781
     92 C                    -0.540309       0.003072
     93 H                     0.253065      -0.001944
     94 H                     0.229802       0.000282
     95 C                    -0.655952      -0.000219
     96 H                     0.239305      -0.000193
     97 H                     0.218485       0.000014
     98 H                     0.216673      -0.000049
  --------------------------------------------------------
  Sum of atomic charges =    -0.000000

                    Cartesian Multipole Moments
 -----------------------------------------------------------------
    Charge (ESU x 10^10)
                -0.0000
    Dipole Moment (Debye)
         X     -14.1515      Y      -0.8610      Z      -7.9289
       Tot      16.2442
    Quadrupole Moments (Debye-Ang)
        XX    -221.0773     XY      25.6981     YY    -317.8151
        XZ      72.8201     YZ      15.1061     ZZ    -265.1980

 Total job time:  14643.25s(wall), 50596.77s(cpu)
        *  Thank you very much for using Q-Chem.  Have a nice day.  *
