 Q-Chem 5.1, Q-Chem, Inc., Pleasanton, CA (2018)
 Q-Chem 5.1.1 for Intel X86 EM64T Linux

User input:
--------------------------------------------------------------
$solvent
dielectric      2.38
dielectric_infi 2.25
$end

$rem
threads 8
jobtype	sp
method PBEh-3c
basis def2-mSVP
mem_static	1024
mem_total	14000
sym_ignore	true
cis_n_roots             2
cis_singlets            false
cis_triplets		true
rpa                     false
calc_soc 		true
cis_moments             true
cis_relaxed_density	true
solvent_method		pcm
$end

$pcm
StateSpecific   1
ChargeSeparation Excited
$end

$molecule
read ut1opt_tol.mol
$end

--------------------------------------------------------------

   15   -2202.2644450872      6.33e-09  Convergence criterion met
 Total energy in the final basis set =    -2202.2644450872
 Total job time:  5253.07s(wall), 20450.78s(cpu)
        *  Thank you very much for using Q-Chem.  Have a nice day.  *
 Q-Chem 5.1, Q-Chem, Inc., Pleasanton, CA (2018)
 Q-Chem 5.1.1 for Intel X86 EM64T Linux

User input:
--------------------------------------------------------------
$rem
threads 8
jobtype sp
method PBEh-3c
basis def2-mSVP
mem_static      1024
mem_total       14000
sym_ignore      true
cis_n_roots             6
cis_singlets            true
cis_triplets            true
rpa                     false
calc_soc                true
cis_moments             true
cis_relaxed_density     true
solvent_method          pcm
$end

$molecule
read
$end

$pcm
statespecific           Marcus
$end

$solvent
dielectric      2.38
dielectric_infi 2.25
$end

--------------------------------------------------------------

             Standard Nuclear Orientation (Angstroms)
    I     Atom           X                Y                Z
 ----------------------------------------------------------------
    1      C       0.0000000000     0.0000000000     0.0000000000
    2      C       0.0000000000     0.0000000000     1.4055560000
    3      H       0.9485301845     0.0000000000     1.9334564606
    4      C      -1.1783907755     0.0034378530     2.1107046571
    5      C      -2.4315568086     0.0091890703     1.4298461620
    6      C      -2.4569745185     0.0027861079     0.0573164281
    7      H      -3.4139521635     0.0003953446    -0.4578539926
    8      C      -1.2522130672    -0.0027283514    -0.6892571528
    9      C      -1.4328000384     0.0068588651     3.5434901169
   10      C      -0.6437349998     0.0035980128     4.6669122828
   11      H       0.4376487696    -0.0046179544     4.6046824934
   12      C      -2.8328277664     0.0167391152     3.6974649830
   13      C      -3.4767692090     0.0248150219     4.9311676904
   14      C      -3.4862518995     0.0189425789     2.4475789584
   15      C      -4.8575107463     0.0301034198     2.4395108561
   16      H      -5.4235885877     0.0333081500     1.5162111974
   17      C      -1.2729438270     0.0114360760     5.9324406094
   18      H      -0.6511294593     0.0091609759     6.8188720738
   19      C      -2.6417050325     0.0219061651     6.0766610604
   20      H      -3.0799048530     0.0280341841     7.0672386398
   21      C      -4.8910908446     0.0358989689     4.8899680735
   22      H      -5.4612846012     0.0429651350     5.8109194236
   23      C      -5.5427683015     0.0385498776     3.6776353475
   24      H      -6.6252181455     0.0479626154     3.6666016317
   25      B      -1.2488150712    -0.0141042668    -2.2164220033
   26      C       0.0527475467     0.0213411908    -3.0157228023
   27      C       0.0587006335     0.0546120528    -4.4321325903
   28      H      -0.8811925772     0.0663301924    -4.9774704380
   29      C       1.2428637154     0.0740991476    -5.1265325267
   30      C       2.4768338943     0.0533349079    -4.4123216219
   31      C       2.4928522069     0.0267853839    -3.0404529983
   32      H       3.4392221564     0.0144117487    -2.5096753544
   33      C       1.2939177602     0.0184691702    -2.3083496181
   34      C       3.5685116132     0.0718632503    -5.3757677850
   35      C       4.9390228109     0.0643966226    -5.2899453587
   36      H       5.4507030730     0.0367341843    -4.3356749456
   37      C       2.9705155408     0.1077999955    -6.6501187271
   38      C       3.6895742548     0.1393841102    -7.8428891731
   39      C       1.5632130260     0.1114944253    -6.5587851898
   40      C       0.8459990567     0.1502711016    -7.7278322753
   41      H      -0.2369246395     0.1584538014    -7.7339694010
   42      C       5.6920585448     0.0944372147    -6.4862891416
   43      H       6.7726676466     0.0882814473    -6.4171681402
   44      C       5.1023410905     0.1315008837    -7.7288766478
   45      H       5.7181880581     0.1541654441    -8.6198427260
   46      C       2.9214497785     0.1776346035    -9.0301242570
   47      H       3.4134100191     0.2044137255    -9.9949720291
   48      C       1.5473209097     0.1824456793    -8.9568225127
   49      H       0.9750531546     0.2132860786    -9.8752940186
   50      B       1.3323491971     0.0056380577    -0.7702891888
   51      C      -2.6120278899    -0.0364184662    -2.9951922430
   52      C      -3.3175415577     1.1943607971    -3.2199647974
   53      C      -4.5391127057     1.1710195117    -3.8220559294
   54      H      -5.1053400957     2.0793927297    -3.9877948618
   55      C      -5.1026775044    -0.0606613465    -4.2531905761
   56      O      -6.2812295712     0.0337047365    -4.8059162843
   57      C      -4.3999447831    -1.2739812898    -4.0917678896
   58      H      -4.8167450556    -2.2071032658    -4.4475780581
   59      C      -3.1725907294    -1.2683315913    -3.4858811979
   60      C      -6.9673015220    -1.1246506059    -5.2790592893
   61      H      -7.9160993574    -0.7688604687    -5.6671105763
   62      H      -7.1475089738    -1.8296903449    -4.4674095298
   63      H      -6.4072899864    -1.6105298666    -6.0783517568
   64      C      -2.6979501815     2.4773907586    -2.7710788541
   65      H      -3.2979207292     3.3377389396    -3.0628607940
   66      H      -2.5782526624     2.4905474759    -1.6865415290
   67      H      -1.6978427756     2.5898825736    -3.1929132242
   68      C      -2.4248482567    -2.5522128263    -3.2976956381
   69      H      -1.3537473609    -2.3729851523    -3.4046346942
   70      H      -2.7115930858    -3.2533068056    -4.0842898634
   71      C      -2.6968139474    -3.1808365608    -1.9288043229
   72      H      -2.3649489887    -2.5335056063    -1.1186670291
   73      H      -2.1567415162    -4.1228997880    -1.8412120717
   74      H      -3.7588249503    -3.3853359298    -1.7899817270
   75      C       2.7193821635    -0.0245355222    -0.0070545111
   76      C       3.4578692231     1.1352758216     0.2333077652
   77      C       4.6889263608     1.0838012365     0.8921728183
   78      H       5.2273371136     2.0102559640     1.0546220735
   79      C       5.2041797802    -0.1295085505     1.3181155375
   80      O       6.3848027751    -0.2786954363     1.9619852526
   81      C       4.4828905842    -1.2966007386     1.0760712312
   82      H       4.8945473205    -2.2453604601     1.4012351578
   83      C       3.2614545301    -1.2497065327     0.4252560501
   84      C       7.1428519967     0.8717089216     2.2374388819
   85      H       8.0336419806     0.5394973144     2.7669457643
   86      H       6.6041591583     1.5811557861     2.8736260330
   87      H       7.4548654154     1.3921221090     1.3262382753
   88      C       2.5156023546    -2.5290360456     0.1682646891
   89      H       3.0712608629    -3.3978526325     0.5211801479
   90      H       1.5441528004    -2.5295085250     0.6660025004
   91      H       2.3241093218    -2.6665605045    -0.8980913214
   92      C       2.9351534831     2.4922327187    -0.1652317526
   93      H       2.2805078937     2.4042018318    -1.0352736227
   94      H       3.7688634198     3.1283703494    -0.4759463019
   95      C       2.1775089226     3.1743431840     0.9716241087
   96      H       1.3122221139     2.5836726145     1.2730501293
   97      H       1.8203681893     4.1600441696     0.6698018139
   98      H       2.8140070985     3.3028572408     1.8484769338
 ----------------------------------------------------------------

   15   -2202.2644363951      6.42e-09  Convergence criterion met
 Total energy in the final basis set =    -2202.2644363951

         TDDFT/TDA Excitation Energies
 ---------------------------------------------------

 Excited state   1: excitation energy (eV) =    2.2155
 Total energy for state  1:                 -2202.18301819 au
    Multiplicity: Triplet
    Trans. Mom.:  0.0000 X   0.0000 Y   0.0000 Z
    Strength   :     0.0000000000
    D(183) --> V(  2) amplitude = -0.2378
    D(187) --> V(  1) amplitude =  0.7249
    D(188) --> V(  1) amplitude =  0.5647

 Excited state   2: excitation energy (eV) =    2.3834
 Total energy for state  2:                 -2202.17684685 au
    Multiplicity: Triplet
    Trans. Mom.:  0.0000 X   0.0000 Y   0.0000 Z
    Strength   :     0.0000000000
    D(190) --> V(  1) amplitude =  0.9413

 Excited state   3: excitation energy (eV) =    2.4388
 Total energy for state  3:                 -2202.17481043 au
    Multiplicity: Singlet
    Trans. Mom.:  0.3269 X  -0.0071 Y   0.2460 Z
    Strength   :     0.0100011175
    D(190) --> V(  1) amplitude =  0.9731

 Excited state   4: excitation energy (eV) =    2.4400
 Total energy for state  4:                 -2202.17476823 au
    Multiplicity: Triplet
    Trans. Mom.:  0.0000 X   0.0000 Y   0.0000 Z
    Strength   :     0.0000000000
    D(186) --> V(  2) amplitude = -0.4644
    D(187) --> V(  1) amplitude = -0.5092
    D(188) --> V(  1) amplitude =  0.6164

 Excited state   5: excitation energy (eV) =    2.4977
 Total energy for state  5:                 -2202.17264634 au
    Multiplicity: Triplet
    Trans. Mom.:  0.0000 X   0.0000 Y   0.0000 Z
    Strength   :     0.0000000000
    D(186) --> V(  1) amplitude =  0.7182
    D(186) --> V(  4) amplitude = -0.2294
    D(187) --> V(  2) amplitude =  0.2384
    D(188) --> V(  2) amplitude = -0.4822

 Excited state   6: excitation energy (eV) =    2.7303
 Total energy for state  6:                 -2202.16409948 au
    Multiplicity: Triplet
    Trans. Mom.:  0.0000 X   0.0000 Y   0.0000 Z
    Strength   :     0.0000000000
    D(183) --> V(  1) amplitude =  0.6853
    D(187) --> V(  2) amplitude = -0.4934
    D(188) --> V(  2) amplitude = -0.2373

 Excited state   7: excitation energy (eV) =    2.8819
 Total energy for state  7:                 -2202.15853032 au
    Multiplicity: Triplet
    Trans. Mom.:  0.0000 X   0.0000 Y   0.0000 Z
    Strength   :     0.0000000000
    D(189) --> V(  1) amplitude =  0.9247

 Excited state   8: excitation energy (eV) =    2.8832
 Total energy for state  8:                 -2202.15848117 au
    Multiplicity: Singlet
    Trans. Mom.: -0.2651 X  -0.0000 Y   0.4213 Z
    Strength   :     0.0174984631
    D(187) --> V(  1) amplitude =  0.7764
    D(188) --> V(  1) amplitude =  0.5728

 Excited state   9: excitation energy (eV) =    2.9217
 Total energy for state  9:                 -2202.15706628 au
    Multiplicity: Singlet
    Trans. Mom.: -0.3393 X   0.0091 Y  -0.0428 Z
    Strength   :     0.0083776694
    D(189) --> V(  1) amplitude =  0.9659

 Excited state  10: excitation energy (eV) =    3.1312
 Total energy for state 10:                 -2202.14936806 au
    Multiplicity: Singlet
    Trans. Mom.: -2.0113 X  -0.0301 Y   3.6116 Z
    Strength   :     1.3109850762
    D(187) --> V(  1) amplitude = -0.5689
    D(188) --> V(  1) amplitude =  0.7688

 Excited state  11: excitation energy (eV) =    3.4438
 Total energy for state 11:                 -2202.13787887 au
    Multiplicity: Singlet
    Trans. Mom.: -0.1634 X  -0.0541 Y  -0.1053 Z
    Strength   :     0.0034352422
    D(186) --> V(  1) amplitude =  0.9376

 Excited state  12: excitation energy (eV) =    3.6617
 Total energy for state 12:                 -2202.12987279 au
    Multiplicity: Singlet
    Trans. Mom.: -0.8714 X  -0.0328 Y  -0.4829 Z
    Strength   :     0.0891336594
    D(183) --> V(  1) amplitude =  0.7489
    D(187) --> V(  2) amplitude = -0.4771
    D(188) --> V(  2) amplitude = -0.2756

 ---------------------------------------------------

                    Orbital Energies (a.u.)
 --------------------------------------------------------------

 Alpha MOs
 -- Occupied --
-19.527 -19.526 -10.504 -10.502 -10.489 -10.484 -10.465 -10.465
-10.465 -10.465 -10.464 -10.464 -10.464 -10.464 -10.463 -10.463
-10.463 -10.462 -10.462 -10.461 -10.461 -10.461 -10.461 -10.460
-10.458 -10.458 -10.458 -10.458 -10.456 -10.455 -10.453 -10.453
-10.452 -10.451 -10.450 -10.448 -10.448 -10.448 -10.435 -10.435
-10.434 -10.434 -10.434 -10.433 -10.431 -10.430 -10.430 -10.427
-10.425 -10.423 -10.420 -10.418 -10.418 -10.415  -6.947  -6.939
 -1.193  -1.181  -1.016  -1.015  -0.962  -0.958  -0.954  -0.946
 -0.933  -0.932  -0.908  -0.899  -0.883  -0.883  -0.860  -0.855
 -0.853  -0.849  -0.846  -0.846  -0.823  -0.817  -0.816  -0.813
 -0.811  -0.803  -0.774  -0.770  -0.762  -0.762  -0.735  -0.729
 -0.726  -0.720  -0.708  -0.706  -0.689  -0.682  -0.679  -0.666
 -0.657  -0.647  -0.645  -0.644  -0.636  -0.632  -0.595  -0.592
 -0.590  -0.587  -0.583  -0.582  -0.581  -0.575  -0.575  -0.560
 -0.559  -0.543  -0.543  -0.538  -0.535  -0.532  -0.526  -0.522
 -0.513  -0.507  -0.503  -0.498  -0.497  -0.495  -0.495  -0.492
 -0.489  -0.489  -0.485  -0.484  -0.483  -0.480  -0.478  -0.473
 -0.473  -0.471  -0.467  -0.465  -0.465  -0.463  -0.461  -0.454
 -0.447  -0.443  -0.439  -0.438  -0.435  -0.428  -0.428  -0.425
 -0.423  -0.422  -0.420  -0.415  -0.413  -0.410  -0.405  -0.404
 -0.397  -0.396  -0.395  -0.393  -0.391  -0.391  -0.384  -0.383
 -0.378  -0.373  -0.366  -0.363  -0.360  -0.357  -0.353  -0.350
 -0.342  -0.335  -0.320  -0.314  -0.296  -0.295  -0.282  -0.279
 -0.276  -0.262  -0.257  -0.255  -0.251  -0.234

          Ground-State Mulliken Net Atomic Charges

     Atom                 Charge (a.u.)
  ----------------------------------------
      1 C                    -0.144202
      2 C                    -0.401989
      3 H                     0.245943
      4 C                     0.084152
      5 C                     0.105010
      6 C                    -0.400007
      7 H                     0.246420
      8 C                    -0.151759
      9 C                     0.182112
     10 C                    -0.384670
     11 H                     0.242712
     12 C                    -0.066943
     13 C                     0.232081
     14 C                     0.188030
     15 C                    -0.394112
     16 H                     0.242821
     17 C                    -0.224822
     18 H                     0.247443
     19 C                    -0.341392
     20 H                     0.243475
     21 C                    -0.346639
     22 H                     0.243736
     23 C                    -0.221839
     24 H                     0.246922
     25 B                     0.653097
     26 C                    -0.149449
     27 C                    -0.393695
     28 H                     0.242636
     29 C                     0.104537
     30 C                     0.082410
     31 C                    -0.389060
     32 H                     0.242218
     33 C                    -0.155440
     34 C                     0.183880
     35 C                    -0.384709
     36 H                     0.242383
     37 C                    -0.066796
     38 C                     0.230228
     39 C                     0.186862
     40 C                    -0.394635
     41 H                     0.242223
     42 C                    -0.224946
     43 H                     0.246976
     44 C                    -0.340864
     45 H                     0.243388
     46 C                    -0.345796
     47 H                     0.243539
     48 C                    -0.221651
     49 H                     0.246778
     50 B                     0.668879
     51 C                    -0.257464
     52 C                     0.075216
     53 C                    -0.412797
     54 H                     0.230903
     55 C                     0.391735
     56 O                    -0.450878
     57 C                    -0.463362
     58 H                     0.239406
     59 C                     0.098262
     60 C                    -0.417746
     61 H                     0.252729
     62 H                     0.221445
     63 H                     0.221351
     64 C                    -0.768533
     65 H                     0.246071
     66 H                     0.248547
     67 H                     0.247975
     68 C                    -0.549798
     69 H                     0.252859
     70 H                     0.234137
     71 C                    -0.657402
     72 H                     0.245326
     73 H                     0.223093
     74 H                     0.219174
     75 C                    -0.224627
     76 C                     0.067191
     77 C                    -0.434643
     78 H                     0.243816
     79 C                     0.392580
     80 O                    -0.464915
     81 C                    -0.396749
     82 H                     0.235147
     83 C                     0.048300
     84 C                    -0.420948
     85 H                     0.248156
     86 H                     0.213727
     87 H                     0.213605
     88 C                    -0.768213
     89 H                     0.247733
     90 H                     0.247838
     91 H                     0.247102
     92 C                    -0.548283
     93 H                     0.252614
     94 H                     0.235599
     95 C                    -0.651032
     96 H                     0.237233
     97 H                     0.224503
     98 H                     0.218540
  ----------------------------------------
  Sum of atomic charges =    -0.000000

                    Cartesian Multipole Moments
 -----------------------------------------------------------------
    Charge (ESU x 10^10)
                -0.0000
    Dipole Moment (Debye)
         X      -0.3135      Y       0.0271      Z      -0.2330
       Tot       0.3916
    Quadrupole Moments (Debye-Ang)
        XX    -264.0233     XY      21.2804     YY    -322.7204
        XZ      -0.8827     YZ      10.7431     ZZ    -264.2905

 Total job time:  11691.46s(wall), 41009.88s(cpu)
        *  Thank you very much for using Q-Chem.  Have a nice day.  *
