 Q-Chem 5.1, Q-Chem, Inc., Pleasanton, CA (2018)
 Q-Chem 5.1.1 for Intel X86 EM64T Linux

User input:
--------------------------------------------------------------
$solvent
dielectric      8.93
dielectric_infi 2.03
$end

$rem
threads 8
jobtype	sp
method PBEh-3c
basis def2-mSVP
mem_static	1024
mem_total	14000
sym_ignore	true
cis_n_roots             2
cis_singlets            false
cis_triplets		true
rpa                     false
calc_soc 		true
cis_moments             true
cis_relaxed_density	true
solvent_method		pcm
$end

$pcm
StateSpecific   1
ChargeSeparation Excited
$end

$molecule
read ut1opt_dcm.mol
$end

--------------------------------------------------------------

   21   -2202.2028154476      9.39e-09  Convergence criterion met
 Total energy in the final basis set =    -2202.2028154476
 Total job time:  9914.19s(wall), 40503.99s(cpu)
        *  Thank you very much for using Q-Chem.  Have a nice day.  *
 Q-Chem 5.1, Q-Chem, Inc., Pleasanton, CA (2018)
 Q-Chem 5.1.1 for Intel X86 EM64T Linux

User input:
--------------------------------------------------------------
$rem
threads 8
jobtype sp
method PBEh-3c
basis def2-mSVP
mem_static      1024
mem_total       14000
sym_ignore      true
cis_n_roots             6
cis_singlets            true
cis_triplets            true
rpa                     false
calc_soc                true
cis_moments             true
cis_relaxed_density     true
solvent_method          pcm
$end

$molecule
read
$end

$pcm
statespecific           Marcus
$end

$solvent
dielectric      8.93
dielectric_infi 2.03
$end

--------------------------------------------------------------

             Standard Nuclear Orientation (Angstroms)
    I     Atom           X                Y                Z
 ----------------------------------------------------------------
    1      C       0.0000000000     0.0000000000     0.0000000000
    2      C       0.0000000000     0.0000000000     1.4067540000
    3      H       0.9473378255     0.0000000000     1.9368567513
    4      C      -1.1785422595     0.0036203156     2.1118822867
    5      C      -2.4325258053     0.0085365904     1.4302262249
    6      C      -2.4583169290     0.0010825974     0.0568576000
    7      H      -3.4149751968    -0.0011454243    -0.4580861622
    8      C      -1.2538307340    -0.0051462991    -0.6896305694
    9      C      -1.4334573004     0.0094529525     3.5452719120
   10      C      -0.6445948832     0.0084990568     4.6697911713
   11      H       0.4370261040     0.0003106975     4.6091236621
   12      C      -2.8340873427     0.0198133903     3.6978481886
   13      C      -3.4791426813     0.0301753440     4.9316751397
   14      C      -3.4874312579     0.0196952980     2.4473146468
   15      C      -4.8594690949     0.0304380960     2.4377830728
   16      H      -5.4249528049     0.0314674980     1.5141390505
   17      C      -1.2751543439     0.0189072789     5.9352542556
   18      H      -0.6540323303     0.0185499366     6.8222153438
   19      C      -2.6448516110     0.0295838210     6.0783292654
   20      H      -3.0842756713     0.0376336601     7.0683987550
   21      C      -4.8941580601     0.0409753132     4.8899712006
   22      H      -5.4645769931     0.0496232473     5.8107801883
   23      C      -5.5451169452     0.0410438977     3.6764063848
   24      H      -6.6275387268     0.0499615210     3.6642298290
   25      B      -1.2566980672    -0.0137955108    -2.2182744114
   26      C       0.0478862446     0.0254481363    -3.0146076674
   27      C       0.0512784410     0.0557496873    -4.4308734863
   28      H      -0.8892967196     0.0594213074    -4.9743509787
   29      C       1.2349759763     0.0809406346    -5.1277403598
   30      C       2.4714073842     0.0715381765    -4.4153554657
   31      C       2.4899699047     0.0458095387    -3.0433422244
   32      H       3.4387234066     0.0412809319    -2.5164391310
   33      C       1.2915085174     0.0278775027    -2.3084459164
   34      C       3.5615781344     0.0952077593    -5.3813715675
   35      C       4.9330771807     0.0980087190    -5.2984724676
   36      H       5.4479097379     0.0787504452    -4.3455238260
   37      C       2.9597203704     0.1208683522    -6.6546210030
   38      C       3.6761427805     0.1507098518    -7.8497609960
   39      C       1.5520792578     0.1142316256    -6.5605582286
   40      C       0.8311024143     0.1396686350    -7.7285688209
   41      H      -0.2518384026     0.1377677819    -7.7323252028
   42      C       5.6831811233     0.1273520561    -6.4973099269
   43      H       6.7640016374     0.1292826608    -6.4308439099
   44      C       5.0896944433     0.1533917690    -7.7392975689
   45      H       5.7028281583     0.1753816707    -8.6321971798
   46      C       2.9050956023     0.1756141869    -9.0362833861
   47      H       3.3950987675     0.1999001432   -10.0022047843
   48      C       1.5304024313     0.1698165624    -8.9595013031
   49      H       0.9555199841     0.1897076713    -9.8766095173
   50      B       1.3315647360     0.0104430192    -0.7706693176
   51      C      -2.6247897376    -0.0334082220    -2.9957747873
   52      C      -3.3182692496     1.2001849442    -3.2314021576
   53      C      -4.5362256642     1.1836558743    -3.8405100935
   54      H      -5.0928018035     2.0961295907    -4.0163929856
   55      C      -5.1090493026    -0.0484593815    -4.2642343817
   56      O      -6.2799862105     0.0498688578    -4.8210997376
   57      C      -4.4158048270    -1.2677251891    -4.0869816365
   58      H      -4.8388136980    -2.2002806199    -4.4369106604
   59      C      -3.1936733448    -1.2643895314    -3.4731874031
   60      C      -6.9803013515    -1.1075022933    -5.2899477675
   61      H      -7.9226933613    -0.7413391291    -5.6828912810
   62      H      -7.1677343807    -1.8020007436    -4.4717240812
   63      H      -6.4192565780    -1.6021565920    -6.0822119420
   64      C      -2.6940163957     2.4847117993    -2.7897585667
   65      H      -3.2937592422     3.3436886948    -3.0854185824
   66      H      -2.5748858449     2.5053847976    -1.7053213221
   67      H      -1.6957459092     2.5956819903    -3.2164024003
   68      C      -2.4610532745    -2.5554496758    -3.2666175390
   69      H      -1.3860156401    -2.3880140347    -3.3520439119
   70      H      -2.7379388527    -3.2546924743    -4.0578107066
   71      C      -2.7704840684    -3.1803545315    -1.9048690769
   72      H      -2.4563597888    -2.5328285392    -1.0873082310
   73      H      -2.2404197879    -4.1267372324    -1.8013629934
   74      H      -3.8373692480    -3.3758809113    -1.7942628103
   75      C       2.7211450239    -0.0181642588    -0.0091059576
   76      C       3.4501139398     1.1452694004     0.2452224188
   77      C       4.6858594466     1.0973658441     0.8971086181
   78      H       5.2167857333     2.0263180889     1.0701192494
   79      C       5.2151017638    -0.1172039788     1.3033831998
   80      O       6.4002071832    -0.2639387341     1.9383370977
   81      C       4.5022266552    -1.2882669681     1.0499339903
   82      H       4.9221521247    -2.2387050598     1.3604433454
   83      C       3.2764561545    -1.2439608635     0.4054746249
   84      C       7.1510488968     0.8926198601     2.2275950128
   85      H       8.0470658089     0.5607215317     2.7478665204
   86      H       6.6074935498     1.5863659089     2.8757951804
   87      H       7.4522765777     1.4274971586     1.3219092317
   88      C       2.5409196016    -2.5274941157     0.1387113195
   89      H       3.1039591623    -3.3947219350     0.4836595511
   90      H       1.5701736453    -2.5398713811     0.6378854354
   91      H       2.3479054406    -2.6585575322    -0.9282750989
   92      C       2.9133550703     2.5032989147    -0.1309807149
   93      H       2.2180829343     2.4146679851    -0.9688300957
   94      H       3.7329065561     3.1378967568    -0.4796541326
   95      C       2.2104544257     3.1889406084     1.0385867476
   96      H       1.3640759438     2.5961407651     1.3868994482
   97      H       1.8349330047     4.1714862372     0.7494834044
   98      H       2.8896809964     3.3256238457     1.8814458294
 ----------------------------------------------------------------

   23   -2202.1923260197      8.68e-09  Convergence criterion met
 Total energy in the final basis set =    -2202.1923260197

         TDDFT/TDA Excitation Energies
 ---------------------------------------------------

 Excited state   1: excitation energy (eV) =    0.3704
 Total energy for state  1:                 -2202.17871331 au
    <S**2>     :  2.0510
    Trans. Mom.: -0.0282 X   0.0117 Y   0.1413 Z
    Strength   :     0.0001897186
    D(189) --> S(  1) amplitude =  0.9925 beta

 Excited state   2: excitation energy (eV) =    0.6988
 Total energy for state  2:                 -2202.16664417 au
    <S**2>     :  2.0494
    Trans. Mom.:  0.0319 X  -0.0172 Y  -0.2016 Z
    Strength   :     0.0007182465
    D(187) --> S(  1) amplitude =  0.9789 beta

 Excited state   3: excitation energy (eV) =    0.8342
 Total energy for state  3:                 -2202.16167089 au
    <S**2>     :  2.0502
    Trans. Mom.:  0.2699 X   0.0088 Y   0.0941 Z
    Strength   :     0.0016716858
    D(186) --> S(  1) amplitude =  0.6785 beta
    D(188) --> S(  1) amplitude =  0.7130 beta

 Excited state   4: excitation energy (eV) =    0.8895
 Total energy for state  4:                 -2202.15963592 au
    <S**2>     :  2.0511
    Trans. Mom.: -0.6164 X  -0.0258 Y  -0.3923 Z
    Strength   :     0.0116496127
    D(186) --> S(  1) amplitude =  0.7058 beta
    D(188) --> S(  1) amplitude = -0.6835 beta

 Excited state   5: excitation energy (eV) =    1.1708
 Total energy for state  5:                 -2202.14929923 au
    <S**2>     :  2.0503
    Trans. Mom.: -0.1025 X  -0.0059 Y  -0.0431 Z
    Strength   :     0.0003557407
    D(184) --> S(  1) amplitude =  0.2289 beta
    D(185) --> S(  1) amplitude =  0.9582 beta

 Excited state   6: excitation energy (eV) =    1.6151
 Total energy for state  6:                 -2202.13297134 au
    <S**2>     :  2.0552
    Trans. Mom.: -0.0211 X   0.0133 Y  -0.0060 Z
    Strength   :     0.0000259641
    D(184) --> S(  1) amplitude =  0.9722 beta
    D(185) --> S(  1) amplitude = -0.2331 beta

 ---------------------------------------------------

                    Orbital Energies (a.u.)
 --------------------------------------------------------------

 Alpha MOs
 -- Occupied --
-19.619 -19.517 -10.598 -10.532 -10.517 -10.512 -10.505 -10.500
-10.499 -10.492 -10.474 -10.460 -10.454 -10.453 -10.453 -10.453
-10.452 -10.452 -10.450 -10.449 -10.448 -10.448 -10.448 -10.448
-10.448 -10.447 -10.447 -10.447 -10.447 -10.446 -10.446 -10.445
-10.445 -10.444 -10.444 -10.441 -10.441 -10.440 -10.438 -10.438
-10.437 -10.437 -10.435 -10.434 -10.422 -10.422 -10.422 -10.421
-10.421 -10.414 -10.411 -10.411 -10.411 -10.403  -6.914  -6.905
 -1.278  -1.172  -1.020  -1.002  -1.002  -0.947  -0.944  -0.942
 -0.936  -0.920  -0.920  -0.917  -0.892  -0.884  -0.871  -0.863
 -0.846  -0.841  -0.840  -0.834  -0.834  -0.830  -0.811  -0.807
 -0.804  -0.799  -0.798  -0.788  -0.762  -0.751  -0.751  -0.721
 -0.718  -0.713  -0.707  -0.706  -0.697  -0.685  -0.675  -0.668
 -0.665  -0.651  -0.643  -0.642  -0.632  -0.631  -0.624  -0.622
 -0.610  -0.602  -0.581  -0.578  -0.575  -0.573  -0.570  -0.564
 -0.561  -0.559  -0.549  -0.542  -0.534  -0.528  -0.525  -0.523
 -0.522  -0.516  -0.512  -0.511  -0.507  -0.505  -0.494  -0.489
 -0.487  -0.485  -0.485  -0.482  -0.479  -0.477  -0.476  -0.474
 -0.473  -0.470  -0.470  -0.468  -0.464  -0.462  -0.458  -0.458
 -0.454  -0.451  -0.451  -0.446  -0.442  -0.434  -0.431  -0.425
 -0.424  -0.420  -0.416  -0.415  -0.414  -0.412  -0.411  -0.406
 -0.404  -0.401  -0.396  -0.386  -0.385  -0.384  -0.383  -0.380
 -0.376  -0.374  -0.365  -0.363  -0.361  -0.354  -0.349  -0.341
 -0.337  -0.334  -0.327  -0.313  -0.311  -0.305  -0.288  -0.286
 -0.275  -0.265  -0.256  -0.246  -0.244  -0.239  -0.158

 Beta MOs
 -- Occupied --
-19.614 -19.517 -10.594 -10.532 -10.516 -10.512 -10.499 -10.498
-10.498 -10.492 -10.474 -10.460 -10.454 -10.454 -10.453 -10.453
-10.451 -10.451 -10.450 -10.449 -10.448 -10.448 -10.448 -10.448
-10.447 -10.447 -10.447 -10.446 -10.446 -10.446 -10.446 -10.445
-10.445 -10.443 -10.443 -10.440 -10.440 -10.440 -10.438 -10.437
-10.437 -10.437 -10.435 -10.434 -10.422 -10.421 -10.421 -10.421
-10.421 -10.414 -10.411 -10.410 -10.410 -10.403  -6.911  -6.903
 -1.267  -1.172  -1.010  -1.002  -1.002  -0.945  -0.942  -0.941
 -0.933  -0.920  -0.919  -0.907  -0.890  -0.883  -0.871  -0.862
 -0.845  -0.839  -0.838  -0.833  -0.833  -0.821  -0.808  -0.805
 -0.803  -0.797  -0.797  -0.786  -0.762  -0.751  -0.746  -0.719
 -0.715  -0.712  -0.705  -0.704  -0.696  -0.682  -0.674  -0.665
 -0.663  -0.649  -0.641  -0.639  -0.631  -0.631  -0.624  -0.617
 -0.597  -0.588  -0.579  -0.577  -0.574  -0.572  -0.569  -0.563
 -0.559  -0.556  -0.548  -0.540  -0.530  -0.527  -0.524  -0.523
 -0.520  -0.512  -0.511  -0.505  -0.504  -0.502  -0.493  -0.487
 -0.486  -0.484  -0.481  -0.479  -0.476  -0.475  -0.475  -0.472
 -0.472  -0.468  -0.467  -0.464  -0.462  -0.461  -0.457  -0.457
 -0.452  -0.451  -0.451  -0.442  -0.440  -0.432  -0.428  -0.424
 -0.419  -0.418  -0.413  -0.413  -0.411  -0.409  -0.404  -0.403
 -0.400  -0.395  -0.389  -0.384  -0.383  -0.383  -0.381  -0.379
 -0.374  -0.373  -0.361  -0.359  -0.355  -0.351  -0.347  -0.336
 -0.335  -0.325  -0.322  -0.305  -0.301  -0.284  -0.284  -0.265
 -0.264  -0.248  -0.242  -0.239  -0.237

          Ground-State Mulliken Net Atomic Charges

     Atom                 Charge (a.u.)    Spin (a.u.)
  --------------------------------------------------------
      1 C                    -0.139835       0.079475
      2 C                    -0.406276      -0.067335
      3 H                     0.238392       0.002771
      4 C                     0.059314       0.114341
      5 C                     0.078294       0.007239
      6 C                    -0.416983       0.022219
      7 H                     0.205059      -0.003697
      8 C                    -0.130713       0.002498
      9 C                     0.175509      -0.062428
     10 C                    -0.401229       0.088423
     11 H                     0.248584      -0.005126
     12 C                    -0.076075       0.022329
     13 C                     0.219235      -0.035358
     14 C                     0.177234      -0.035144
     15 C                    -0.411348       0.055891
     16 H                     0.234163      -0.003271
     17 C                    -0.233342      -0.053762
     18 H                     0.252963       0.002553
     19 C                    -0.358161       0.079919
     20 H                     0.248767      -0.004664
     21 C                    -0.360811       0.052025
     22 H                     0.249785      -0.002963
     23 C                    -0.232862      -0.039279
     24 H                     0.248290       0.001955
     25 B                     0.519402       0.374911
     26 C                    -0.131657       0.003514
     27 C                    -0.412147       0.022921
     28 H                     0.201997      -0.003757
     29 C                     0.078622       0.006458
     30 C                     0.058094       0.110358
     31 C                    -0.398039      -0.064730
     32 H                     0.236990       0.002809
     33 C                    -0.149683       0.078302
     34 C                     0.176892      -0.060426
     35 C                    -0.400941       0.085348
     36 H                     0.248481      -0.004946
     37 C                    -0.075547       0.021515
     38 C                     0.217406      -0.034031
     39 C                     0.176018      -0.033869
     40 C                    -0.411378       0.053718
     41 H                     0.234321      -0.003148
     42 C                    -0.233556      -0.051756
     43 H                     0.252790       0.002458
     44 C                    -0.357152       0.076701
     45 H                     0.249029      -0.004473
     46 C                    -0.359570       0.049787
     47 H                     0.249904      -0.002833
     48 C                    -0.232720      -0.037784
     49 H                     0.248553       0.001882
     50 B                     0.556437       0.261539
     51 C                    -0.119579       0.504839
     52 C                     0.068392      -0.071222
     53 C                    -0.381116       0.099938
     54 H                     0.288724      -0.006452
     55 C                     0.456654       0.219810
     56 O                    -0.396832       0.140608
     57 C                    -0.425818       0.040232
     58 H                     0.298736      -0.003662
     59 C                     0.102304       0.007791
     60 C                    -0.454553      -0.013873
     61 H                     0.289139       0.000001
     62 H                     0.261983       0.009002
     63 H                     0.262136       0.009204
     64 C                    -0.762190       0.005213
     65 H                     0.259023       0.001253
     66 H                     0.281359      -0.000589
     67 H                     0.280017      -0.001505
     68 C                    -0.551558      -0.000120
     69 H                     0.290664      -0.001026
     70 H                     0.254256       0.001177
     71 C                    -0.669835       0.006014
     72 H                     0.267674      -0.001037
     73 H                     0.248007       0.001003
     74 H                     0.220387      -0.000396
     75 C                    -0.199000      -0.024989
     76 C                     0.051914       0.004098
     77 C                    -0.442722      -0.001300
     78 H                     0.251299       0.000315
     79 C                     0.381017       0.001501
     80 O                    -0.473943       0.000314
     81 C                    -0.410499      -0.001101
     82 H                     0.234717       0.000353
     83 C                     0.037378       0.004044
     84 C                    -0.427303      -0.000040
     85 H                     0.249913       0.000005
     86 H                     0.218857       0.000026
     87 H                     0.218971       0.000030
     88 C                    -0.765509       0.000351
     89 H                     0.243638       0.001339
     90 H                     0.245578      -0.000533
     91 H                     0.244207      -0.000783
     92 C                    -0.540235       0.003328
     93 H                     0.252370      -0.002067
     94 H                     0.232580       0.000275
     95 C                    -0.657577      -0.000267
     96 H                     0.236770      -0.000164
     97 H                     0.220521       0.000017
     98 H                     0.218580      -0.000032
  --------------------------------------------------------
  Sum of atomic charges =    -0.000000

                    Cartesian Multipole Moments
 -----------------------------------------------------------------
    Charge (ESU x 10^10)
                -0.0000
    Dipole Moment (Debye)
         X     -14.4981      Y      -0.8316      Z      -8.1060
       Tot      16.6311
    Quadrupole Moments (Debye-Ang)
        XX    -216.8081     XY      26.7415     YY    -317.2709
        XZ      73.7581     YZ      15.7067     ZZ    -260.7685

 Total job time:  14187.10s(wall), 49498.39s(cpu)
        *  Thank you very much for using Q-Chem.  Have a nice day.  *
