 Q-Chem 5.1, Q-Chem, Inc., Pleasanton, CA (2018)
 Q-Chem 5.1.1 for Intel X86 EM64T Linux

User input:
--------------------------------------------------------------
$solvent
dielectric      4.33
dielectric_infi 1.83
$end

$rem
threads 8
jobtype	sp
method PBEh-3c
basis def2-mSVP
mem_static	1024
mem_total	14000
sym_ignore	true
cis_n_roots             2
cis_singlets            false
cis_triplets		true
rpa                     false
calc_soc 		true
cis_moments             true
cis_relaxed_density	true
solvent_method		pcm
$end

$pcm
StateSpecific   1
ChargeSeparation Excited
$end

$molecule
read ut1opt_eth.mol
$end

--------------------------------------------------------------

   15   -2202.2707995849      5.63e-09  Convergence criterion met
 Total energy in the final basis set =    -2202.2707995849
 Total job time:  5743.48s(wall), 23055.08s(cpu)
        *  Thank you very much for using Q-Chem.  Have a nice day.  *
 Q-Chem 5.1, Q-Chem, Inc., Pleasanton, CA (2018)
 Q-Chem 5.1.1 for Intel X86 EM64T Linux

User input:
--------------------------------------------------------------
$rem
threads 8
jobtype sp
method PBEh-3c
basis def2-mSVP
mem_static      1024
mem_total       14000
sym_ignore      true
cis_n_roots             6
cis_singlets            true
cis_triplets            true
rpa                     false
calc_soc                true
cis_moments             true
cis_relaxed_density     true
solvent_method          pcm
$end

$molecule
read
$end

$pcm
statespecific           Marcus
$end

$solvent
dielectric      4.33
dielectric_infi 1.83
$end

--------------------------------------------------------------

             Standard Nuclear Orientation (Angstroms)
    I     Atom           X                Y                Z
 ----------------------------------------------------------------
    1      C       0.0000000000     0.0000000000     0.0000000000
    2      C       0.0000000000     0.0000000000     1.4062080000
    3      H       0.9478355894     0.0000000000     1.9353997108
    4      C      -1.1784235525     0.0034826214     2.1113445069
    5      C      -2.4320808432     0.0091149013     1.4301470577
    6      C      -2.4576513400     0.0022802527     0.0571881628
    7      H      -3.4144109641     0.0001530829    -0.4579601396
    8      C      -1.2531077187    -0.0040340068    -0.6893793751
    9      C      -1.4329918651     0.0077874414     3.5444598937
   10      C      -0.6439106086     0.0050757635     4.6683914530
   11      H       0.4375937034    -0.0033010918     4.6068543975
   12      C      -2.8333232326     0.0180490914     3.6978523147
   13      C      -3.4777348483     0.0268431783     4.9316938272
   14      C      -3.4868020631     0.0195330758     2.4476451494
   15      C      -4.8584983034     0.0306993324     2.4389890259
   16      H      -5.4244136212     0.0332025908     1.5155934394
   17      C      -1.2737126050     0.0137425165     5.9339532760
   18      H      -0.6521447035     0.0119274297     6.8205928370
   19      C      -2.6429688315     0.0244798662     6.0777402138
   20      H      -3.0816991232     0.0312028849     7.0681130057
   21      C      -4.8924472158     0.0379702497     4.8903875989
   22      H      -5.4626899799     0.0455506285     5.8113198066
   23      C      -5.5438537986     0.0398627888     3.6774504256
   24      H      -6.6263002430     0.0491991274     3.6659308783
   25      B      -1.2531214898    -0.0144326040    -2.2172699898
   26      C       0.0498795231     0.0225117254    -3.0151062553
   27      C       0.0542797845     0.0539843416    -4.4314047765
   28      H      -0.8861478005     0.0622934024    -4.9754580422
   29      C       1.2380648745     0.0752873873    -5.1274123921
   30      C       2.4734488265     0.0588704235    -4.4143531249
   31      C       2.4910743622     0.0328438692    -3.0424241696
   32      H       3.4389055306     0.0233594851    -2.5140485249
   33      C       1.2925049244     0.0213491146    -2.3085916469
   34      C       3.5642081017     0.0789057022    -5.3792994631
   35      C       4.9352743925     0.0753800104    -5.2951619677
   36      H       5.4487034637     0.0512738494    -4.3416416230
   37      C       2.9640420315     0.1105486604    -6.6529981265
   38      C       3.6815994401     0.1411068540    -7.8470923257
   39      C       1.5565341391     0.1105254984    -6.5600132673
   40      C       0.8372482329     0.1439312986    -7.7284801059
   41      H      -0.2457000787     0.1483518460    -7.7332865587
   42      C       5.6866458183     0.1047930342    -6.4929085566
   43      H       6.7673873054     0.1017503323    -6.4252905563
   44      C       5.0948159543     0.1372553939    -7.7351221054
   45      H       5.7091591993     0.1593898602    -8.6271730188
   46      C       2.9118350684     0.1740108194    -9.0338853965
   47      H       3.4026649906     0.1995179637    -9.9993576974
   48      C       1.5373903868     0.1749134492    -8.9585692397
   49      H       0.9636525200     0.2013485227    -9.8762570801
   50      B       1.3318152166     0.0072353601    -0.7706967128
   51      C      -2.6192871584    -0.0369447613    -2.9952094774
   52      C      -3.3189372518     1.1945718531    -3.2279651228
   53      C      -4.5383303073     1.1732473673    -3.8342263803
   54      H      -5.0998341658     2.0832617716    -4.0071447868
   55      C      -5.1060823122    -0.0597985175    -4.2596046661
   56      O      -6.2803429145     0.0350516583    -4.8147831872
   57      C      -4.4076534083    -1.2756865189    -4.0877150909
   58      H      -4.8269803356    -2.2092218046    -4.4394182624
   59      C      -3.1834837516    -1.2696182408    -3.4769075476
   60      C      -6.9732711907    -1.1241950922    -5.2840405309
   61      H      -7.9183142892    -0.7639337044    -5.6764832734
   62      H      -7.1578941980    -1.8216950211    -4.4674023779
   63      H      -6.4115619293    -1.6161196545    -6.0779101036
   64      C      -2.6976109143     2.4793890877    -2.7847748013
   65      H      -3.2976280102     3.3382826920    -3.0803670299
   66      H      -2.5787395801     2.4984946111    -1.7002692969
   67      H      -1.6982801145     2.5908926351    -3.2087119947
   68      C      -2.4431317368    -2.5566610638    -3.2767430387
   69      H      -1.3699089321    -2.3834836576    -3.3720963466
   70      H      -2.7240505457    -3.2579644909    -4.0649277529
   71      C      -2.7350640378    -3.1817002042    -1.9108089815
   72      H      -2.4123484619    -2.5335303664    -1.0973987084
   73      H      -2.2002069672    -4.1259273197    -1.8137009327
   74      H      -3.7997697275    -3.3813141864    -1.7865998925
   75      C       2.7201569714    -0.0222482074    -0.0081319846
   76      C       3.4568799881     1.1386452402     0.2344768803
   77      C       4.6896366754     1.0887060074     0.8910695726
   78      H       5.2264249251     2.0158487405     1.0551615727
   79      C       5.2086286624    -0.1247669268     1.3129553775
   80      O       6.3906090805    -0.2727714303     1.9541185466
   81      C       4.4889676221    -1.2931131940     1.0694080317
   82      H       4.9021590418    -2.2425149846     1.3913960782
   83      C       3.2657705641    -1.2472503421     0.4207363940
   84      C       7.1481069267     0.8802469981     2.2313325374
   85      H       8.0404357131     0.5482999741     2.7581155652
   86      H       6.6085066421     1.5861999094     2.8700439912
   87      H       7.4563869290     1.4026974690     1.3204499034
   88      C       2.5225106603    -2.5282342385     0.1637387760
   89      H       3.0807360467    -3.3961125846     0.5149014088
   90      H       1.5519126462    -2.5313838998     0.6632018598
   91      H       2.3288344083    -2.6656082425    -0.9022709569
   92      C       2.9309338124     2.4958755410    -0.1591923360
   93      H       2.2655861839     2.4074917624    -1.0210275577
   94      H       3.7613800086     3.1313966337    -0.4794488764
   95      C       2.1871005455     3.1795220617     0.9859306810
   96      H       1.3269622120     2.5878275203     1.3003014353
   97      H       1.8243652509     4.1637678238     0.6862083605
   98      H       2.8350510154     3.3117043940     1.8538257122
 ----------------------------------------------------------------

   15   -2202.2706841498      6.62e-09  Convergence criterion met
 Total energy in the final basis set =    -2202.2706841498

         TDDFT/TDA Excitation Energies
 ---------------------------------------------------

 Excited state   1: excitation energy (eV) =    2.2134
 Total energy for state  1:                 -2202.18934449 au
    Multiplicity: Triplet
    Trans. Mom.:  0.0000 X   0.0000 Y   0.0000 Z
    Strength   :     0.0000000000
    D(183) --> V(  2) amplitude = -0.2339
    D(187) --> V(  1) amplitude =  0.7710
    D(188) --> V(  1) amplitude =  0.5003

 Excited state   2: excitation energy (eV) =    2.3961
 Total energy for state  2:                 -2202.18262755 au
    Multiplicity: Triplet
    Trans. Mom.:  0.0000 X   0.0000 Y   0.0000 Z
    Strength   :     0.0000000000
    D(190) --> V(  1) amplitude =  0.9279

 Excited state   3: excitation energy (eV) =    2.4341
 Total energy for state  3:                 -2202.18123109 au
    Multiplicity: Triplet
    Trans. Mom.:  0.0000 X   0.0000 Y   0.0000 Z
    Strength   :     0.0000000000
    D(186) --> V(  2) amplitude = -0.4552
    D(187) --> V(  1) amplitude = -0.4503
    D(188) --> V(  1) amplitude =  0.6520

 Excited state   4: excitation energy (eV) =    2.4511
 Total energy for state  4:                 -2202.18060899 au
    Multiplicity: Singlet
    Trans. Mom.:  0.2938 X  -0.0074 Y   0.2281 Z
    Strength   :     0.0083111122
    D(190) --> V(  1) amplitude =  0.9734

 Excited state   5: excitation energy (eV) =    2.4935
 Total energy for state  5:                 -2202.17904962 au
    Multiplicity: Triplet
    Trans. Mom.:  0.0000 X   0.0000 Y   0.0000 Z
    Strength   :     0.0000000000
    D(186) --> V(  1) amplitude =  0.7172
    D(186) --> V(  4) amplitude = -0.2284
    D(188) --> V(  2) amplitude = -0.4934

 Excited state   6: excitation energy (eV) =    2.7315
 Total energy for state  6:                 -2202.17030154 au
    Multiplicity: Triplet
    Trans. Mom.:  0.0000 X   0.0000 Y   0.0000 Z
    Strength   :     0.0000000000
    D(183) --> V(  1) amplitude =  0.6823
    D(187) --> V(  2) amplitude = -0.5093

 Excited state   7: excitation energy (eV) =    2.8810
 Total energy for state  7:                 -2202.16481029 au
    Multiplicity: Singlet
    Trans. Mom.: -0.2335 X  -0.0009 Y   0.3829 Z
    Strength   :     0.0141946743
    D(187) --> V(  1) amplitude =  0.8257
    D(188) --> V(  1) amplitude =  0.5007

 Excited state   8: excitation energy (eV) =    2.8933
 Total energy for state  8:                 -2202.16435889 au
    Multiplicity: Triplet
    Trans. Mom.:  0.0000 X   0.0000 Y   0.0000 Z
    Strength   :     0.0000000000
    D(189) --> V(  1) amplitude =  0.9245

 Excited state   9: excitation energy (eV) =    2.9340
 Total energy for state  9:                 -2202.16286120 au
    Multiplicity: Singlet
    Trans. Mom.: -0.3372 X   0.0083 Y  -0.0235 Z
    Strength   :     0.0082179326
    D(189) --> V(  1) amplitude =  0.9659

 Excited state  10: excitation energy (eV) =    3.1345
 Total energy for state 10:                 -2202.15549423 au
    Multiplicity: Singlet
    Trans. Mom.: -1.9539 X  -0.0284 Y   3.5174 Z
    Strength   :     1.2433015256
    D(187) --> V(  1) amplitude = -0.4981
    D(188) --> V(  1) amplitude =  0.8158

 Excited state  11: excitation energy (eV) =    3.4464
 Total energy for state 11:                 -2202.14403084 au
    Multiplicity: Singlet
    Trans. Mom.: -0.1583 X  -0.0522 Y  -0.0919 Z
    Strength   :     0.0030595456
    D(186) --> V(  1) amplitude =  0.9391

 Excited state  12: excitation energy (eV) =    3.6667
 Total energy for state 12:                 -2202.13593559 au
    Multiplicity: Singlet
    Trans. Mom.: -0.8356 X  -0.0328 Y  -0.4605 Z
    Strength   :     0.0818641432
    D(183) --> V(  1) amplitude =  0.7517
    D(187) --> V(  2) amplitude = -0.4860
    D(188) --> V(  2) amplitude = -0.2300

 ---------------------------------------------------

                    Orbital Energies (a.u.)
 --------------------------------------------------------------

 Alpha MOs
 -- Occupied --
-19.528 -19.527 -10.507 -10.505 -10.488 -10.483 -10.467 -10.467
-10.466 -10.466 -10.465 -10.465 -10.465 -10.464 -10.464 -10.464
-10.464 -10.464 -10.462 -10.462 -10.461 -10.461 -10.461 -10.461
-10.458 -10.458 -10.458 -10.458 -10.457 -10.456 -10.455 -10.454
-10.453 -10.453 -10.452 -10.450 -10.449 -10.449 -10.437 -10.437
-10.436 -10.436 -10.435 -10.435 -10.433 -10.432 -10.431 -10.429
-10.426 -10.425 -10.421 -10.421 -10.419 -10.417  -6.949  -6.941
 -1.195  -1.182  -1.017  -1.016  -0.963  -0.959  -0.956  -0.948
 -0.933  -0.933  -0.909  -0.900  -0.885  -0.884  -0.862  -0.856
 -0.855  -0.850  -0.847  -0.846  -0.824  -0.818  -0.817  -0.813
 -0.812  -0.804  -0.775  -0.771  -0.764  -0.763  -0.736  -0.729
 -0.727  -0.721  -0.710  -0.708  -0.689  -0.683  -0.680  -0.667
 -0.658  -0.648  -0.646  -0.645  -0.638  -0.634  -0.596  -0.593
 -0.590  -0.587  -0.584  -0.583  -0.582  -0.575  -0.575  -0.562
 -0.561  -0.544  -0.543  -0.538  -0.536  -0.533  -0.526  -0.523
 -0.514  -0.508  -0.504  -0.500  -0.498  -0.496  -0.496  -0.493
 -0.491  -0.490  -0.486  -0.486  -0.484  -0.481  -0.478  -0.474
 -0.474  -0.473  -0.469  -0.467  -0.465  -0.464  -0.462  -0.454
 -0.448  -0.444  -0.440  -0.439  -0.436  -0.429  -0.429  -0.426
 -0.425  -0.424  -0.421  -0.416  -0.414  -0.412  -0.406  -0.405
 -0.397  -0.396  -0.396  -0.393  -0.392  -0.392  -0.386  -0.384
 -0.380  -0.374  -0.368  -0.364  -0.362  -0.359  -0.355  -0.351
 -0.344  -0.337  -0.322  -0.316  -0.297  -0.296  -0.284  -0.282
 -0.278  -0.263  -0.258  -0.256  -0.254  -0.237

          Ground-State Mulliken Net Atomic Charges

     Atom                 Charge (a.u.)
  ----------------------------------------
      1 C                    -0.144659
      2 C                    -0.402070
      3 H                     0.248239
      4 C                     0.081133
      5 C                     0.100943
      6 C                    -0.400533
      7 H                     0.248833
      8 C                    -0.150939
      9 C                     0.178311
     10 C                    -0.387216
     11 H                     0.249910
     12 C                    -0.066947
     13 C                     0.224193
     14 C                     0.183296
     15 C                    -0.396551
     16 H                     0.249959
     17 C                    -0.231366
     18 H                     0.255156
     19 C                    -0.344072
     20 H                     0.252163
     21 C                    -0.349250
     22 H                     0.252343
     23 C                    -0.228893
     24 H                     0.254433
     25 B                     0.650588
     26 C                    -0.149013
     27 C                    -0.394748
     28 H                     0.244906
     29 C                     0.100689
     30 C                     0.079154
     31 C                    -0.390673
     32 H                     0.244922
     33 C                    -0.155271
     34 C                     0.179977
     35 C                    -0.387271
     36 H                     0.249566
     37 C                    -0.066760
     38 C                     0.222327
     39 C                     0.182045
     40 C                    -0.397004
     41 H                     0.249431
     42 C                    -0.231513
     43 H                     0.254747
     44 C                    -0.343517
     45 H                     0.252136
     46 C                    -0.348375
     47 H                     0.252204
     48 C                    -0.228712
     49 H                     0.254348
     50 B                     0.664840
     51 C                    -0.257728
     52 C                     0.072381
     53 C                    -0.420712
     54 H                     0.235437
     55 C                     0.388207
     56 O                    -0.453100
     57 C                    -0.468872
     58 H                     0.248033
     59 C                     0.094683
     60 C                    -0.422780
     61 H                     0.256633
     62 H                     0.226035
     63 H                     0.226039
     64 C                    -0.771438
     65 H                     0.249841
     66 H                     0.249142
     67 H                     0.248564
     68 C                    -0.550306
     69 H                     0.252252
     70 H                     0.238315
     71 C                    -0.660781
     72 H                     0.243686
     73 H                     0.225597
     74 H                     0.221034
     75 C                    -0.223742
     76 C                     0.063092
     77 C                    -0.438545
     78 H                     0.252250
     79 C                     0.389161
     80 O                    -0.468932
     81 C                    -0.403433
     82 H                     0.239719
     83 C                     0.044840
     84 C                    -0.426526
     85 H                     0.251690
     86 H                     0.217988
     87 H                     0.217992
     88 C                    -0.771187
     89 H                     0.251505
     90 H                     0.248593
     91 H                     0.247770
     92 C                    -0.548373
     93 H                     0.252056
     94 H                     0.239377
     95 C                    -0.654423
     96 H                     0.235698
     97 H                     0.226952
     98 H                     0.220885
  ----------------------------------------
  Sum of atomic charges =    -0.000000

                    Cartesian Multipole Moments
 -----------------------------------------------------------------
    Charge (ESU x 10^10)
                -0.0000
    Dipole Moment (Debye)
         X      -0.3359      Y       0.0316      Z      -0.2530
       Tot       0.4217
    Quadrupole Moments (Debye-Ang)
        XX    -259.9568     XY      22.8313     YY    -321.9443
        XZ      -1.7959     YZ      11.5153     ZZ    -259.1055

 Total job time:  14067.72s(wall), 47575.12s(cpu)
        *  Thank you very much for using Q-Chem.  Have a nice day.  *
