 Q-Chem 5.1, Q-Chem, Inc., Pleasanton, CA (2018)
 Q-Chem 5.1.1 for Intel X86 EM64T Linux

User input:
--------------------------------------------------------------
$solvent
dielectric      1.0001
dielectric_infi 1.00009
$end

$rem
threads 8
jobtype	sp
method PBEh-3c
basis def2-mSVP
mem_static	1024
mem_total	14000
sym_ignore	true
cis_n_roots             2
cis_singlets            false
cis_triplets		true
rpa                     false
calc_soc 		true
cis_moments             true
cis_relaxed_density	true
solvent_method		pcm
$end

$pcm
StateSpecific   1
ChargeSeparation Excited
$end

$molecule
read ut1opt_vac.mol
$end

--------------------------------------------------------------

   15   -2202.2478925874      7.35e-09  Convergence criterion met
 Total energy in the final basis set =    -2202.2478925874

         TDDFT/TDA Excitation Energies
 ---------------------------------------------------

 Excited state   1: excitation energy (eV) =    2.2061
 Total energy for state  1:                 -2202.16682082 au
    Multiplicity: Triplet
    Trans. Mom.:  0.0000 X   0.0000 Y   0.0000 Z
    Strength   :     0.0000000000
    D(183) --> V(  2) amplitude = -0.2401
    D(187) --> V(  1) amplitude =  0.5604
    D(188) --> V(  1) amplitude =  0.7274

 Excited state   2: excitation energy (eV) =    2.3849
 Total energy for state  2:                 -2202.16024980 au
    Multiplicity: Triplet
    Trans. Mom.:  0.0000 X   0.0000 Y   0.0000 Z
    Strength   :     0.0000000000
    D(190) --> V(  1) amplitude =  0.9247

 ---------------------------------------------------

                    Orbital Energies (a.u.)
 --------------------------------------------------------------

 Alpha MOs
 -- Occupied --
-19.524 -19.522 -10.499 -10.498 -10.492 -10.488 -10.463 -10.463
-10.462 -10.462 -10.462 -10.462 -10.461 -10.460 -10.460 -10.460
-10.460 -10.460 -10.460 -10.460 -10.459 -10.458 -10.458 -10.458
-10.458 -10.457 -10.457 -10.457 -10.451 -10.450 -10.449 -10.448
-10.447 -10.447 -10.445 -10.445 -10.444 -10.444 -10.432 -10.431
-10.430 -10.430 -10.429 -10.429 -10.428 -10.427 -10.426 -10.423
-10.423 -10.421 -10.418 -10.415 -10.414 -10.410  -6.942  -6.934
 -1.189  -1.179  -1.013  -1.012  -0.958  -0.955  -0.950  -0.942
 -0.931  -0.930  -0.904  -0.895  -0.880  -0.879  -0.857  -0.851
 -0.851  -0.847  -0.845  -0.844  -0.820  -0.815  -0.814  -0.810
 -0.809  -0.800  -0.773  -0.768  -0.760  -0.758  -0.732  -0.727
 -0.724  -0.718  -0.706  -0.703  -0.687  -0.679  -0.677  -0.663
 -0.655  -0.645  -0.642  -0.641  -0.633  -0.629  -0.593  -0.590
 -0.589  -0.586  -0.582  -0.580  -0.579  -0.573  -0.573  -0.558
 -0.556  -0.541  -0.541  -0.537  -0.533  -0.533  -0.525  -0.521
 -0.510  -0.504  -0.501  -0.496  -0.496  -0.494  -0.492  -0.490
 -0.487  -0.486  -0.482  -0.481  -0.480  -0.479  -0.477  -0.472
 -0.472  -0.468  -0.465  -0.464  -0.463  -0.461  -0.458  -0.452
 -0.444  -0.441  -0.438  -0.435  -0.432  -0.426  -0.425  -0.422
 -0.420  -0.419  -0.417  -0.412  -0.411  -0.408  -0.403  -0.402
 -0.396  -0.393  -0.392  -0.392  -0.389  -0.389  -0.382  -0.380
 -0.375  -0.369  -0.364  -0.359  -0.357  -0.353  -0.349  -0.346
 -0.338  -0.332  -0.315  -0.310  -0.293  -0.292  -0.278  -0.274
 -0.271  -0.259  -0.253  -0.250  -0.247  -0.231

          Ground-State Mulliken Net Atomic Charges

     Atom                 Charge (a.u.)
  ----------------------------------------
      1 C                    -0.142593
      2 C                    -0.402137
      3 H                     0.237296
      4 C                     0.094960
      5 C                     0.117104
      6 C                    -0.399649
      7 H                     0.237527
      8 C                    -0.152536
      9 C                     0.193625
     10 C                    -0.377038
     11 H                     0.221292
     12 C                    -0.065220
     13 C                     0.253217
     14 C                     0.200675
     15 C                    -0.386974
     16 H                     0.221306
     17 C                    -0.205442
     18 H                     0.226256
     19 C                    -0.331981
     20 H                     0.219862
     21 C                    -0.337627
     22 H                     0.220127
     23 C                    -0.202170
     24 H                     0.225825
     25 B                     0.654691
     26 C                    -0.150947
     27 C                    -0.390692
     28 H                     0.234295
     29 C                     0.115946
     30 C                     0.094101
     31 C                    -0.385747
     32 H                     0.232947
     33 C                    -0.153082
     34 C                     0.195761
     35 C                    -0.377039
     36 H                     0.220976
     37 C                    -0.065155
     38 C                     0.251338
     39 C                     0.199820
     40 C                    -0.387482
     41 H                     0.220464
     42 C                    -0.205544
     43 H                     0.225633
     44 C                    -0.331402
     45 H                     0.219634
     46 C                    -0.336787
     47 H                     0.219792
     48 C                    -0.201891
     49 H                     0.225489
     50 B                     0.670985
     51 C                    -0.251805
     52 C                     0.080197
     53 C                    -0.391448
     54 H                     0.217179
     55 C                     0.400844
     56 O                    -0.444431
     57 C                    -0.446602
     58 H                     0.216544
     59 C                     0.105353
     60 C                    -0.403397
     61 H                     0.242093
     62 H                     0.209117
     63 H                     0.209355
     64 C                    -0.759119
     65 H                     0.235040
     66 H                     0.245422
     67 H                     0.247490
     68 C                    -0.547645
     69 H                     0.254621
     70 H                     0.222675
     71 C                    -0.647991
     72 H                     0.249384
     73 H                     0.216490
     74 H                     0.214797
     75 C                    -0.225598
     76 C                     0.077666
     77 C                    -0.422753
     78 H                     0.221252
     79 C                     0.401144
     80 O                    -0.454240
     81 C                    -0.379079
     82 H                     0.220976
     83 C                     0.057323
     84 C                    -0.405613
     85 H                     0.238633
     86 H                     0.202891
     87 H                     0.202586
     88 C                    -0.759435
     89 H                     0.236859
     90 H                     0.245980
     91 H                     0.244203
     92 C                    -0.547457
     93 H                     0.252815
     94 H                     0.225724
     95 C                    -0.641387
     96 H                     0.240662
     97 H                     0.212785
     98 H                     0.218089
  ----------------------------------------
  Sum of atomic charges =    -0.000000

                    Cartesian Multipole Moments
 -----------------------------------------------------------------
    Charge (ESU x 10^10)
                -0.0000
    Dipole Moment (Debye)
         X      -0.2030      Y       0.0130      Z      -0.2038
       Tot       0.2880
    Quadrupole Moments (Debye-Ang)
        XX    -274.2208     XY      17.5713     YY    -324.9920
        XZ       0.5564     YZ       9.2754     ZZ    -275.4202

 Total job time:  5073.12s(wall), 19722.80s(cpu)
        *  Thank you very much for using Q-Chem.  Have a nice day.  *
 Q-Chem 5.1, Q-Chem, Inc., Pleasanton, CA (2018)
 Q-Chem 5.1.1 for Intel X86 EM64T Linux

User input:
--------------------------------------------------------------
$rem
threads 8
jobtype sp
method PBEh-3c
basis def2-mSVP
mem_static      1024
mem_total       14000
sym_ignore      true
cis_n_roots             6
cis_singlets            true
cis_triplets            true
rpa                     false
calc_soc                true
cis_moments             true
cis_relaxed_density     true
solvent_method          pcm
$end

$molecule
read
$end

$pcm
statespecific           Marcus
$end

$solvent
dielectric      1.0001
dielectric_infi 1.00009
$end

--------------------------------------------------------------

             Standard Nuclear Orientation (Angstroms)
    I     Atom           X                Y                Z
 ----------------------------------------------------------------
    1      C       0.0000000000     0.0000000000     0.0000000000
    2      C       0.0000000000     0.0000000000     1.4044510000
    3      H       0.9500650336     0.0000000000     1.9296172372
    4      C      -1.1785141267     0.0030750036     2.1098022121
    5      C      -2.4305300736     0.0079722555     1.4288795809
    6      C      -2.4557047437     0.0038466391     0.0571417722
    7      H      -3.4131907906     0.0002044190    -0.4576103023
    8      C      -1.2498413452     0.0042218308    -0.6893631884
    9      C      -1.4332800477     0.0029847930     3.5416772252
   10      C      -0.6449071712    -0.0014811643     4.6648603275
   11      H       0.4362998173    -0.0073932700     4.6022745947
   12      C      -2.8329555983     0.0094098445     3.6957532217
   13      C      -3.4768545865     0.0130163804     4.9288212778
   14      C      -3.4857339349     0.0133441968     2.4463542375
   15      C      -4.8561978599     0.0212970976     2.4382435743
   16      H      -5.4217434933     0.0251816906     1.5146861025
   17      C      -1.2737992302     0.0018932145     5.9298009251
   18      H      -0.6523566762    -0.0013608107     6.8163349503
   19      C      -2.6419050627     0.0090803538     6.0736949014
   20      H      -3.0798706601     0.0119741166     7.0642606754
   21      C      -4.8904182685     0.0211619978     4.8869885607
   22      H      -5.4609266890     0.0247287249     5.8076558155
   23      C      -5.5419106796     0.0254405867     3.6753671098
   24      H      -6.6242783862     0.0324966621     3.6644262535
   25      B      -1.2422163370    -0.0104629956    -2.2169615782
   26      C       0.0603114358     0.0138407327    -3.0164812051
   27      C       0.0704734339     0.0478251062    -4.4333832765
   28      H      -0.8675199953     0.0653416943    -4.9822279689
   29      C       1.2563067844     0.0606075920    -5.1232595857
   30      C       2.4869562892     0.0340414446    -4.4056588518
   31      C       2.4981486009     0.0100580662    -3.0337481181
   32      H       3.4409208696    -0.0075591067    -2.4969102406
   33      C       1.2973945173     0.0101189949    -2.3064156447
   34      C       3.5813350520     0.0465508504    -5.3652959808
   35      C       4.9507572465     0.0320988577    -5.2752891464
   36      H       5.4586811125     0.0017992856    -4.3192774883
   37      C       2.9882800750     0.0854476198    -6.6414446485
   38      C       3.7110731830     0.1134809511    -7.8313519960
   39      C       1.5813892727     0.0960967261    -6.5546463655
   40      C       0.8687423323     0.1390016485    -7.7252652491
   41      H      -0.2140292192     0.1534886295    -7.7345189592
   42      C       5.7078226241     0.0583041972    -6.4685022193
   43      H       6.7880423116     0.0467243004    -6.3958952937
   44      C       5.1228210289     0.0984896047    -7.7123466768
   45      H       5.7420189930     0.1180892116    -8.6009247387
   46      C       2.9469183691     0.1557181029    -9.0201608859
   47      H       3.4418163710     0.1802702638    -9.9834654682
   48      C       1.5733517050     0.1676368389    -8.9517473205
   49      H       1.0045172888     0.2018629825    -9.8721259753
   50      B       1.3343877558    -0.0003441629    -0.7679078980
   51      C      -2.5994060964    -0.0281529762    -2.9942489296
   52      C      -3.3316772296     1.1962073502    -3.1702532796
   53      C      -4.5518054713     1.1726337778    -3.7772080127
   54      H      -5.1342145770     2.0759675623    -3.9100069348
   55      C      -5.0894459388    -0.0478684746    -4.2590850417
   56      O      -6.2743045261     0.0483473705    -4.8154202727
   57      C      -4.3669037526    -1.2509684023    -4.1435913349
   58      H      -4.7659629735    -2.1786050431    -4.5326301821
   59      C      -3.1382616178    -1.2491586173    -3.5354124530
   60      C      -6.9269831938    -1.1005897801    -5.3355207473
   61      H      -7.8836790260    -0.7549047073    -5.7148438770
   62      H      -6.3568583133    -1.5452838080    -6.1527164399
   63      H      -7.0974419644    -1.8465165604    -4.5576098472
   64      C      -2.7365794243     2.4708347147    -2.6691796171
   65      H      -3.3433656317     3.3337799504    -2.9393453100
   66      H      -1.7312070956     2.6078968773    -3.0705998991
   67      H      -2.6306213750     2.4462192899    -1.5833106595
   68      C      -2.3701450254    -2.5257981997    -3.3904688127
   69      H      -1.3049278859    -2.3282293164    -3.5215653363
   70      H      -2.6677837691    -3.2178245130    -4.1816727344
   71      C      -2.5958218505    -3.1805423104    -2.0247135734
   72      H      -2.2476866284    -2.5427817530    -1.2141232378
   73      H      -2.0426510109    -4.1173237799    -1.9696675731
   74      H      -3.6506480088    -3.4007144049    -1.8582256051
   75      C       2.7175852384    -0.0388117728    -0.0032156266
   76      C       3.4641810397     1.1160265794     0.2354662408
   77      C       4.6921545696     1.0551448685     0.8969739853
   78      H       5.2376302550     1.9775393924     1.0583079090
   79      C       5.1957304672    -0.1614061346     1.3269035346
   80      O       6.3728103472    -0.3193800018     1.9738125969
   81      C       4.4663083204    -1.3231272596     1.0859451869
   82      H       4.8717581431    -2.2728620427     1.4145431562
   83      C       3.2482780904    -1.2680046392     0.4322565563
   84      C       7.1397684423     0.8209485507     2.2457598129
   85      H       8.0269466773     0.4816626570     2.7772623667
   86      H       6.6089942546     1.5392882833     2.8796695408
   87      H       7.4591135487     1.3371593685     1.3339591047
   88      C       2.4922855822    -2.5405561643     0.1729202073
   89      H       3.0406650431    -3.4142406205     0.5249061777
   90      H       1.5206134214    -2.5342186529     0.6700404549
   91      H       2.3016234951    -2.6746298486    -0.8939799735
   92      C       2.9515132338     2.4753895788    -0.1667810986
   93      H       2.3082423829     2.3917295128    -1.0457704072
   94      H       3.7915829539     3.1084370227    -0.4666717897
   95      C       2.1828485359     3.1581983665     0.9620820592
   96      H       1.3092919505     2.5729657543     1.2493131189
   97      H       2.8079257338     3.2781067463     1.8481350119
   98      H       1.8370435824     4.1478556897     0.6600204379
 ----------------------------------------------------------------
