 Q-Chem 5.1, Q-Chem, Inc., Pleasanton, CA (2018)
 Q-Chem 5.1.1 for Intel X86 EM64T Linux

User input:
--------------------------------------------------------------
$solvent
dielectric      1.0001
dielectric_infi 1.00009
$end

$rem
threads 8
jobtype	sp
method PBEh-3c
basis def2-mSVP
mem_static	1024
mem_total	14000
sym_ignore	true
cis_n_roots             2
cis_singlets            false
cis_triplets		true
rpa                     false
calc_soc 		true
cis_moments             true
cis_relaxed_density	true
solvent_method		pcm
$end

$pcm
StateSpecific   1
ChargeSeparation Excited
$end

$molecule
read utleopt_vac.mol
$end

--------------------------------------------------------------

   24   -2202.1812951246      7.29e-09  Convergence criterion met
 Total energy in the final basis set =    -2202.1812951246

         TDDFT/TDA Excitation Energies
 ---------------------------------------------------

 Excited state   1: excitation energy (eV) =    0.9070
 Total energy for state  1:                 -2202.14796453 au
    <S**2>     :  2.1232
    Trans. Mom.: -0.2315 X   0.0221 Y  -0.0916 Z
    Strength   :     0.0013877389
    D(186) --> S(  1) amplitude =  0.7948 beta
    D(187) --> S(  1) amplitude = -0.5524 beta

 Excited state   2: excitation energy (eV) =    1.2922
 Total energy for state  2:                 -2202.13380889 au
    <S**2>     :  2.2077
    Trans. Mom.:  0.0102 X   0.0079 Y   0.0419 Z
    Strength   :     0.0000607753
    D(189) --> S(  1) amplitude =  0.9812 beta

 ---------------------------------------------------

                    Orbital Energies (a.u.)
 --------------------------------------------------------------

 Alpha MOs
 -- Occupied --
-19.521 -19.521 -10.497 -10.496 -10.487 -10.487 -10.482 -10.482
-10.468 -10.467 -10.465 -10.465 -10.465 -10.465 -10.464 -10.463
-10.461 -10.460 -10.460 -10.460 -10.459 -10.459 -10.459 -10.458
-10.458 -10.458 -10.458 -10.457 -10.456 -10.456 -10.456 -10.448
-10.447 -10.447 -10.446 -10.446 -10.446 -10.445 -10.444 -10.444
-10.431 -10.431 -10.431 -10.430 -10.428 -10.428 -10.424 -10.424
-10.421 -10.421 -10.417 -10.416 -10.410 -10.409  -6.932  -6.930
 -1.179  -1.179  -1.025  -1.012  -0.966  -0.957  -0.949  -0.948
 -0.937  -0.930  -0.912  -0.898  -0.878  -0.878  -0.869  -0.854
 -0.853  -0.850  -0.847  -0.843  -0.823  -0.819  -0.812  -0.812
 -0.809  -0.804  -0.772  -0.770  -0.759  -0.759  -0.743  -0.735
 -0.725  -0.719  -0.704  -0.704  -0.690  -0.687  -0.678  -0.667
 -0.655  -0.645  -0.645  -0.642  -0.632  -0.632  -0.602  -0.592
 -0.591  -0.589  -0.583  -0.581  -0.580  -0.575  -0.575  -0.557
 -0.556  -0.544  -0.542  -0.534  -0.532  -0.532  -0.529  -0.522
 -0.518  -0.506  -0.503  -0.503  -0.500  -0.494  -0.494  -0.493
 -0.492  -0.491  -0.487  -0.483  -0.482  -0.481  -0.477  -0.471
 -0.470  -0.467  -0.465  -0.464  -0.461  -0.459  -0.457  -0.456
 -0.444  -0.444  -0.443  -0.438  -0.436  -0.429  -0.426  -0.424
 -0.419  -0.418  -0.416  -0.411  -0.409  -0.407  -0.405  -0.403
 -0.402  -0.400  -0.397  -0.393  -0.392  -0.387  -0.385  -0.380
 -0.377  -0.376  -0.364  -0.364  -0.360  -0.353  -0.350  -0.350
 -0.340  -0.338  -0.334  -0.313  -0.310  -0.294  -0.290  -0.274
 -0.270  -0.270  -0.262  -0.255  -0.246  -0.244  -0.181

 Beta MOs
 -- Occupied --
-19.521 -19.521 -10.496 -10.496 -10.487 -10.487 -10.476 -10.475
-10.470 -10.468 -10.467 -10.464 -10.463 -10.462 -10.462 -10.461
-10.461 -10.460 -10.460 -10.460 -10.460 -10.460 -10.459 -10.459
-10.458 -10.458 -10.458 -10.457 -10.456 -10.456 -10.456 -10.447
-10.446 -10.446 -10.446 -10.444 -10.444 -10.444 -10.443 -10.442
-10.431 -10.430 -10.430 -10.430 -10.429 -10.428 -10.424 -10.424
-10.421 -10.421 -10.417 -10.416 -10.410 -10.409  -6.931  -6.929
 -1.179  -1.179  -1.017  -1.012  -0.958  -0.955  -0.949  -0.948
 -0.933  -0.930  -0.905  -0.897  -0.878  -0.877  -0.866  -0.854
 -0.850  -0.848  -0.847  -0.843  -0.816  -0.814  -0.812  -0.812
 -0.808  -0.793  -0.771  -0.770  -0.759  -0.758  -0.733  -0.732
 -0.724  -0.717  -0.704  -0.703  -0.687  -0.680  -0.676  -0.664
 -0.655  -0.645  -0.643  -0.641  -0.632  -0.632  -0.598  -0.590
 -0.589  -0.587  -0.582  -0.581  -0.580  -0.574  -0.573  -0.556
 -0.556  -0.541  -0.540  -0.533  -0.532  -0.532  -0.527  -0.521
 -0.515  -0.506  -0.502  -0.501  -0.494  -0.493  -0.492  -0.492
 -0.489  -0.487  -0.482  -0.481  -0.479  -0.478  -0.476  -0.471
 -0.470  -0.467  -0.464  -0.464  -0.460  -0.459  -0.456  -0.454
 -0.443  -0.442  -0.439  -0.434  -0.429  -0.426  -0.423  -0.419
 -0.418  -0.416  -0.411  -0.411  -0.409  -0.406  -0.402  -0.401
 -0.399  -0.394  -0.393  -0.392  -0.391  -0.387  -0.380  -0.380
 -0.373  -0.366  -0.363  -0.360  -0.354  -0.351  -0.350  -0.337
 -0.336  -0.333  -0.326  -0.310  -0.296  -0.291  -0.270  -0.270
 -0.263  -0.259  -0.252  -0.245  -0.243

          Ground-State Mulliken Net Atomic Charges

     Atom                 Charge (a.u.)    Spin (a.u.)
  --------------------------------------------------------
      1 C                    -0.139877       0.018207
      2 C                    -0.402701      -0.009986
      3 H                     0.238001       0.000093
      4 C                     0.094976       0.035439
      5 C                     0.112457       0.029627
      6 C                    -0.405748      -0.004519
      7 H                     0.239206      -0.000207
      8 C                    -0.141696       0.014924
      9 C                     0.194644      -0.019544
     10 C                    -0.380338       0.022501
     11 H                     0.220840      -0.001331
     12 C                    -0.062728       0.017593
     13 C                     0.253368      -0.013275
     14 C                     0.197255      -0.018061
     15 C                    -0.387208       0.020718
     16 H                     0.220839      -0.001227
     17 C                    -0.205433      -0.015467
     18 H                     0.225665       0.000761
     19 C                    -0.333923       0.022026
     20 H                     0.218951      -0.001294
     21 C                    -0.337644       0.020398
     22 H                     0.219235      -0.001194
     23 C                    -0.203410      -0.014730
     24 H                     0.225318       0.000732
     25 B                     0.636504       0.149927
     26 C                    -0.142611       0.386778
     27 C                    -0.364966      -0.275552
     28 H                     0.245466       0.011569
     29 C                     0.087089       0.460009
     30 C                     0.203900      -0.209710
     31 C                    -0.375086       0.301515
     32 H                     0.221475      -0.018038
     33 C                    -0.201345      -0.204841
     34 H                     0.227171       0.009950
     35 C                    -0.342246       0.321805
     36 H                     0.220530      -0.019108
     37 C                     0.256281      -0.199261
     38 C                    -0.068513       0.279353
     39 C                    -0.338691       0.340194
     40 H                     0.221267      -0.020196
     41 C                    -0.202807      -0.208818
     42 H                     0.227873       0.010044
     43 C                    -0.367477       0.312028
     44 H                     0.221617      -0.018718
     45 C                     0.198108      -0.203768
     46 C                     0.080232       0.458092
     47 C                    -0.363560      -0.258985
     48 H                     0.242180       0.010709
     49 C                    -0.143839       0.348835
     50 B                     0.639726       0.151195
     51 C                    -0.220259      -0.015663
     52 C                     0.083186       0.002193
     53 C                    -0.430241      -0.000491
     54 H                     0.220113       0.000179
     55 C                     0.400865       0.000325
     56 O                    -0.453896       0.000075
     57 C                    -0.381385      -0.000253
     58 H                     0.219442       0.000255
     59 C                     0.061177       0.001839
     60 C                    -0.405274      -0.000012
     61 H                     0.238168       0.000003
     62 H                     0.203228       0.000006
     63 H                     0.202268       0.000007
     64 C                    -0.755675       0.000663
     65 H                     0.234825       0.000699
     66 H                     0.246792      -0.000246
     67 H                     0.240028      -0.000564
     68 C                    -0.544403       0.004049
     69 H                     0.223354       0.000212
     70 H                     0.248370      -0.001740
     71 C                    -0.644799      -0.000073
     72 H                     0.246249      -0.000184
     73 H                     0.213541       0.000090
     74 H                     0.216231       0.000000
     75 C                    -0.220734      -0.015841
     76 C                     0.076878       0.002535
     77 C                    -0.423907      -0.000605
     78 H                     0.220174       0.000206
     79 C                     0.401525       0.000532
     80 O                    -0.454048       0.000107
     81 C                    -0.380753      -0.000465
     82 H                     0.219725       0.000230
     83 C                     0.058107       0.002020
     84 C                    -0.405063      -0.000016
     85 H                     0.238337       0.000003
     86 H                     0.203177       0.000009
     87 H                     0.202164       0.000011
     88 C                    -0.755256       0.000608
     89 H                     0.235033       0.000685
     90 H                     0.246599      -0.000238
     91 H                     0.239611      -0.000512
     92 C                    -0.543565       0.003708
     93 H                     0.249258      -0.001553
     94 H                     0.223423       0.000075
     95 C                    -0.640650      -0.000094
     96 H                     0.240943      -0.000100
     97 H                     0.216847      -0.000000
     98 H                     0.211942       0.000136
  --------------------------------------------------------
  Sum of atomic charges =    -0.000000

                    Cartesian Multipole Moments
 -----------------------------------------------------------------
    Charge (ESU x 10^10)
                -0.0000
    Dipole Moment (Debye)
         X       0.7372      Y       0.1316      Z      -1.0318
       Tot       1.2749
    Quadrupole Moments (Debye-Ang)
        XX    -281.3497     XY      17.2184     YY    -325.4815
        XZ      -4.5046     YZ       8.5020     ZZ    -273.6402

 Total job time:  8500.66s(wall), 37560.88s(cpu)
        *  Thank you very much for using Q-Chem.  Have a nice day.  *
 Q-Chem 5.1, Q-Chem, Inc., Pleasanton, CA (2018)
 Q-Chem 5.1.1 for Intel X86 EM64T Linux

User input:
--------------------------------------------------------------
$rem
threads 8
jobtype sp
method PBEh-3c
basis def2-mSVP
mem_static      1024
mem_total       14000
sym_ignore      true
cis_n_roots             6
cis_singlets            true
cis_triplets            true
rpa                     false
calc_soc                true
cis_moments             true
cis_relaxed_density     true
solvent_method          pcm
$end

$molecule
read
$end

$pcm
statespecific           Marcus
$end

$solvent
dielectric      1.0001
dielectric_infi 1.00009
$end

--------------------------------------------------------------

             Standard Nuclear Orientation (Angstroms)
    I     Atom           X                Y                Z
 ----------------------------------------------------------------
    1      C       0.0000000000     0.0000000000     0.0000000000
    2      C       0.0000000000     0.0000000000     1.4037640000
    3      H       0.9457116953     0.0000000000     1.9353637962
    4      C      -1.1871873816     0.0046155801     2.0980191059
    5      C      -2.4296509182     0.0078674812     1.4097466011
    6      C      -2.4485871289    -0.0013933084     0.0336560426
    7      H      -3.3917453179    -0.0104193723    -0.5018425006
    8      C      -1.2436112876    -0.0036337377    -0.6932400644
    9      C      -1.4567922878     0.0094088869     3.5323031383
   10      C      -0.6826985528     0.0067612019     4.6629136850
   11      H       0.3992998175    -0.0018282510     4.6153580757
   12      C      -2.8561268910     0.0184521550     3.6687262434
   13      C      -3.5168057546     0.0274177716     4.8918307215
   14      C      -3.4947365482     0.0178257379     2.4138476986
   15      C      -4.8631855550     0.0277588802     2.3837042390
   16      H      -5.4137254267     0.0288564076     1.4515275457
   17      C      -1.3281132313     0.0148650658     5.9209900262
   18      H      -0.7186145786     0.0126495249     6.8152858680
   19      C      -2.6976699736     0.0253099896     6.0459792900
   20      H      -3.1489067849     0.0315268308     7.0305781787
   21      C      -4.9297428081     0.0372644964     4.8310509046
   22      H      -5.5119795060     0.0449053385     5.7441623786
   23      C      -5.5659590475     0.0376477559     3.6120441360
   24      H      -6.6476160232     0.0460263590     3.5859550223
   25      B      -1.2850325652    -0.0106182388    -2.2372047498
   26      C       0.0372780111     0.0409613216    -3.0223875259
   27      C       0.0140537527     0.1091056908    -4.4088135820
   28      H      -0.9396174667     0.1315716987    -4.9240851583
   29      C       1.1969991365     0.1407443722    -5.1284760536
   30      C       1.4848194425     0.2057167214    -6.5202372143
   31      C       0.7306555199     0.2731353048    -7.6855659042
   32      H      -0.3508328100     0.2851746994    -7.6609689031
   33      C       1.4069090819     0.3283654254    -8.9106424453
   34      H       0.8243681820     0.3810567505    -9.8210943525
   35      C       2.7896895475     0.3205400161    -9.0083035529
   36      H       3.2583690400     0.3665896950    -9.9833068805
   37      C       3.5895474472     0.2546306062    -7.8433397995
   38      C       2.8987858879     0.1985464948    -6.6336502119
   39      C       5.0031241939     0.2412606706    -7.7564305965
   40      H       5.5995017656     0.2829467740    -8.6593156013
   41      C       5.6335251416     0.1749382470    -6.5225307935
   42      H       6.7154260836     0.1657232149    -6.4923159949
   43      C       4.9279527553     0.1196593859    -5.3164079539
   44      H       5.4609607467     0.0689661489    -4.3759913102
   45      C       3.5361774589     0.1316720817    -5.3659336305
   46      C       2.5016908809     0.0949971555    -4.4002669739
   47      C       2.5213105024     0.0402212965    -3.0117264618
   48      H       3.4680380702     0.0166259939    -2.4825476931
   49      C       1.3364706358     0.0274720163    -2.2966150837
   50      B       1.3518972844     0.0026069315    -0.7570301381
   51      C      -2.6506000906    -0.0357102674    -3.0130137210
   52      C      -3.1849905714    -1.2221133700    -3.5144244373
   53      C      -4.4022581219    -1.2218621256    -4.1967909648
   54      H      -4.7853920696    -2.1634714945    -4.5706264068
   55      C      -5.0924588257    -0.0346697530    -4.3906769804
   56      O      -6.2721291980     0.0687999162    -5.0388981930
   57      C      -4.5571256537     1.1565528877    -3.9046422530
   58      H      -5.0975857097     2.0803889249    -4.0741077582
   59      C      -3.3537054335     1.1632752085    -3.2236492243
   60      C      -6.8587529738    -1.0990790966    -5.5448891952
   61      H      -7.7944235915    -0.8004980974    -6.0132408306
   62      H      -7.0811571253    -1.8277481966    -4.7582216425
   63      H      -6.2328978546    -1.5861521226    -6.3002717154
   64      C      -2.7861908728     2.4618751923    -2.7190809956
   65      H      -3.4038756110     3.3121055375    -3.0068004279
   66      H      -2.7034920561     2.4678212457    -1.6303926474
   67      H      -1.7820153632     2.6369883670    -3.1117916538
   68      C      -2.4819035253    -2.5368477293    -3.2921634538
   69      H      -2.6997240269    -3.2138531269    -4.1225517225
   70      H      -1.3982072823    -2.3914298813    -3.3045095371
   71      C      -2.8847568015    -3.2037618291    -1.9787593591
   72      H      -2.6173426972    -2.5859712083    -1.1214514994
   73      H      -3.9609335646    -3.3757213111    -1.9395987399
   74      H      -2.3860352668    -4.1664919017    -1.8600621363
   75      C       2.7197596599    -0.0435500700     0.0243150750
   76      C       3.4574790641     1.1100123561     0.2892868827
   77      C       4.6651872678     1.0427293970     0.9865465611
   78      H       5.2064071315     1.9632605021     1.1706221838
   79      C       5.1531808228    -0.1768451576     1.4258635717
   80      O       6.3073855257    -0.3396765952     2.1073718885
   81      C       4.4293756356    -1.3366744160     1.1573427433
   82      H       4.8224164207    -2.2882869989     1.4950144779
   83      C       3.2314663016    -1.2772737521     0.4688885980
   84      C       7.0613175183     0.7991185735     2.4239535615
   85      H       7.9293138837     0.4534861858     2.9818063110
   86      H       6.5051820952     1.5055147795     3.0491546372
   87      H       7.4117260274     1.3290255859     1.5319074613
   88      C       2.4764511222    -2.5461379354     0.1879656384
   89      H       3.0128698748    -3.4229279261     0.5492558711
   90      H       1.4944198156    -2.5410091023     0.6648594061
   91      H       2.3092528696    -2.6811509896    -0.8828596597
   92      C       2.9548699787     2.4735456460    -0.1122850995
   93      H       2.3061548564     2.3987759416    -0.9886348694
   94      H       3.7985480634     3.0983421286    -0.4187882018
   95      C       2.1986147042     3.1670145060     1.0185895001
   96      H       1.3197040049     2.5932362639     1.3127042974
   97      H       1.8618308286     4.1590400463     0.7154811515
   98      H       2.8290871054     3.2823697122     1.9011058596
 ----------------------------------------------------------------
