 Q-Chem 5.1, Q-Chem, Inc., Pleasanton, CA (2018)
 Q-Chem 5.1.1 for Intel X86 EM64T Linux

User input:
--------------------------------------------------------------
$solvent
dielectric      8.93
dielectric_infi 2.03
$end

$rem
threads 8
jobtype	sp
method PBEh-3c
basis def2-mSVP
mem_static	1024
mem_total	14000
sym_ignore	true
cis_n_roots             2
cis_singlets            false
cis_triplets		true
rpa                     false
calc_soc 		true
cis_moments             true
cis_relaxed_density	true
solvent_method		pcm
$end

$pcm
StateSpecific   1
ChargeSeparation Excited
$end

$molecule
read utleopt_dcm.mol
$end

--------------------------------------------------------------

   15   -2202.2745999697      4.43e-09  Convergence criterion met
 Total energy in the final basis set =    -2202.2745999697
 Total job time:  5075.32s(wall), 19845.04s(cpu)
        *  Thank you very much for using Q-Chem.  Have a nice day.  *
 Q-Chem 5.1, Q-Chem, Inc., Pleasanton, CA (2018)
 Q-Chem 5.1.1 for Intel X86 EM64T Linux

User input:
--------------------------------------------------------------
$rem
threads 8
jobtype sp
method PBEh-3c
basis def2-mSVP
mem_static      1024
mem_total       14000
sym_ignore      true
cis_n_roots             6
cis_singlets            true
cis_triplets            true
rpa                     false
calc_soc                true
cis_moments             true
cis_relaxed_density     true
solvent_method          pcm
$end

$molecule
read
$end

$pcm
statespecific           Marcus
$end

$solvent
dielectric      8.93
dielectric_infi 2.03
$end

--------------------------------------------------------------

             Standard Nuclear Orientation (Angstroms)
    I     Atom           X                Y                Z
 ----------------------------------------------------------------
    1      C       0.0000000000     0.0000000000     0.0000000000
    2      C       0.0000000000     0.0000000000     1.4047340000
    3      H       0.9431333515     0.0000000000     1.9405224214
    4      C      -1.1872607132     0.0053375493     2.1000762396
    5      C      -2.4309119473     0.0085110011     1.4117002232
    6      C      -2.4500982077    -0.0016965671     0.0350737576
    7      H      -3.3961018964    -0.0096848919    -0.4950896190
    8      C      -1.2449859577    -0.0041875948    -0.6934623976
    9      C      -1.4560393781     0.0121750753     3.5348316022
   10      C      -0.6804887599     0.0112776990     4.6659801444
   11      H       0.4017080171     0.0025599072     4.6187498928
   12      C      -2.8561571813     0.0223506243     3.6707979088
   13      C      -3.5169792022     0.0340923667     4.8948903773
   14      C      -3.4962715687     0.0204344046     2.4159174233
   15      C      -4.8659724199     0.0318238085     2.3854502708
   16      H      -5.4174291992     0.0319246760     1.4536047411
   17      C      -1.3268035541     0.0217898428     5.9248345103
   18      H      -0.7168115407     0.0209580389     6.8189330626
   19      C      -2.6977355631     0.0333727564     6.0503113627
   20      H      -3.1498574364     0.0417043472     7.0346150766
   21      C      -4.9310647234     0.0454596219     4.8354235852
   22      H      -5.5120731268     0.0552605288     5.7494078870
   23      C      -5.5682652225     0.0444107079     3.6153404771
   24      H      -6.6500373387     0.0538589196     3.5892892944
   25      B      -1.2872707724    -0.0113235504    -2.2379311855
   26      C       0.0347075440     0.0462209568    -3.0224199985
   27      C       0.0115799075     0.1167278313    -4.4108675838
   28      H      -0.9390225610     0.1343113455    -4.9315981317
   29      C       1.1935187740     0.1591978368    -5.1292723559
   30      C       1.4807734129     0.2303197674    -6.5231806003
   31      C       0.7257713304     0.2926642742    -7.6875786166
   32      H      -0.3560188777     0.2933206087    -7.6632917681
   33      C       1.4031143842     0.3575371502    -8.9141915199
   34      H       0.8199000613     0.4062129616    -9.8245606389
   35      C       2.7862718292     0.3636380695    -9.0113775825
   36      H       3.2562799079     0.4164489773    -9.9855148096
   37      C       3.5857871066     0.3027935668    -7.8443389479
   38      C       2.8950854426     0.2371997675    -6.6353021933
   39      C       5.0007816803     0.3028755979    -7.7575448632
   40      H       5.5962622110     0.3524901701    -8.6607397596
   41      C       5.6315912348     0.2400157598    -6.5228744572
   42      H       6.7136075708     0.2415757923    -6.4919600323
   43      C       4.9254537843     0.1749407816    -5.3155506483
   44      H       5.4582598829     0.1278423697    -4.3745854210
   45      C       3.5336262848     0.1733622849    -5.3668647285
   46      C       2.4984546017     0.1238217061    -4.4013848246
   47      C       2.5197548867     0.0637566508    -3.0132039450
   48      H       3.4702441084     0.0468049777    -2.4908613522
   49      C       1.3349132018     0.0374277144    -2.2964839796
   50      B       1.3520683497     0.0052976503    -0.7577860110
   51      C      -2.6546921501    -0.0431503317    -3.0127975381
   52      C      -3.1851735330    -1.2335629374    -3.5117827003
   53      C      -4.4043080804    -1.2420591459    -4.1927216534
   54      H      -4.7837099053    -2.1860045936    -4.5646205977
   55      C      -5.1012498797    -0.0577690160    -4.3880015015
   56      O      -6.2825372031     0.0369039933    -5.0342550966
   57      C      -4.5702870815     1.1381093457    -3.9045536974
   58      H      -5.1125437745     2.0620467992    -4.0722529127
   59      C      -3.3642253207     1.1520436305    -3.2248681024
   60      C      -6.8670188550    -1.1424387715    -5.5379281232
   61      H      -7.8057859181    -0.8501645040    -6.0031522396
   62      H      -7.0794331967    -1.8672612224    -4.7466472650
   63      H      -6.2383930340    -1.6243722124    -6.2925106540
   64      C      -2.8055858421     2.4557272839    -2.7230413874
   65      H      -3.4255732033     3.3015618683    -3.0188698358
   66      H      -2.7313692751     2.4661301676    -1.6336039687
   67      H      -1.7989161696     2.6329681421    -3.1086084510
   68      C      -2.4760986169    -2.5452971005    -3.2896779087
   69      H      -2.6889186616    -3.2221307357    -4.1210441290
   70      H      -1.3931105384    -2.3942893852    -3.2953349517
   71      C      -2.8820419919    -3.2166520917    -1.9791478502
   72      H      -2.6278429190    -2.5953509331    -1.1198376559
   73      H      -3.9565338597    -3.4018366637    -1.9489182992
   74      H      -2.3728291543    -4.1736203858    -1.8579324916
   75      C       2.7208779099    -0.0429244778     0.0243399584
   76      C       3.4527619717     1.1122398152     0.3030455771
   77      C       4.6618785165     1.0452783853     0.9998783275
   78      H       5.1984351554     1.9663658299     1.1949032612
   79      C       5.1572222856    -0.1772157850     1.4258108764
   80      O       6.3123260636    -0.3392845799     2.1056229622
   81      C       4.4391379236    -1.3393324423     1.1441071718
   82      H       4.8335138261    -2.2951766470     1.4703727866
   83      C       3.2393090159    -1.2787754633     0.4556674724
   84      C       7.0612182434     0.8079648813     2.4382350816
   85      H       7.9303400159     0.4619214557     2.9933270026
   86      H       6.4957373044     1.4998477159     3.0691214295
   87      H       7.4059242282     1.3475418726     1.5513345265
   88      C       2.4913648308    -2.5497767041     0.1642984549
   89      H       3.0346982767    -3.4266241623     0.5151807935
   90      H       1.5112915554    -2.5545239272     0.6456293689
   91      H       2.3194885324    -2.6747235776    -0.9071466006
   92      C       2.9447865056     2.4779530179    -0.0848854326
   93      H       2.2710838467     2.4056740003    -0.9423985200
   94      H       3.7822164827     3.1001812527    -0.4120590294
   95      C       2.2227898305     3.1739994997     1.0669454282
   96      H       1.3558177336     2.5981586197     1.3923853054
   97      H       1.8737670108     4.1633095310     0.7687137036
   98      H       2.8818122400     3.2969771912     1.9274584061
 ----------------------------------------------------------------

   15   -2202.2743953466      5.86e-09  Convergence criterion met
 Total energy in the final basis set =    -2202.2743953466

         TDDFT/TDA Excitation Energies
 ---------------------------------------------------

 Excited state   1: excitation energy (eV) =    1.9103
 Total energy for state  1:                 -2202.20419255 au
    Multiplicity: Triplet
    Trans. Mom.:  0.0000 X   0.0000 Y   0.0000 Z
    Strength   :     0.0000000000
    D(190) --> V(  1) amplitude =  0.9014

 Excited state   2: excitation energy (eV) =    2.2524
 Total energy for state  2:                 -2202.19162038 au
    Multiplicity: Triplet
    Trans. Mom.:  0.0000 X   0.0000 Y   0.0000 Z
    Strength   :     0.0000000000
    D(186) --> V(  1) amplitude = -0.4552
    D(186) --> V(  2) amplitude =  0.3351
    D(187) --> V(  1) amplitude =  0.6889
    D(187) --> V(  2) amplitude = -0.3123

 Excited state   3: excitation energy (eV) =    2.4904
 Total energy for state  3:                 -2202.18287552 au
    Multiplicity: Triplet
    Trans. Mom.:  0.0000 X   0.0000 Y   0.0000 Z
    Strength   :     0.0000000000
    D(186) --> V(  1) amplitude =  0.5430
    D(186) --> V(  2) amplitude =  0.3452
    D(187) --> V(  1) amplitude =  0.4043
    D(187) --> V(  2) amplitude =  0.4358

 Excited state   4: excitation energy (eV) =    2.5694
 Total energy for state  4:                 -2202.17997250 au
    Multiplicity: Triplet
    Trans. Mom.:  0.0000 X   0.0000 Y   0.0000 Z
    Strength   :     0.0000000000
    D(183) --> V(  1) amplitude =  0.5628
    D(184) --> V(  1) amplitude =  0.2958
    D(190) --> V(  2) amplitude = -0.5136

 Excited state   5: excitation energy (eV) =    2.6325
 Total energy for state  5:                 -2202.17765399 au
    Multiplicity: Singlet
    Trans. Mom.: -0.5667 X  -0.0069 Y  -0.0431 Z
    Strength   :     0.0208333176
    D(190) --> V(  1) amplitude =  0.9552

 Excited state   6: excitation energy (eV) =    2.7892
 Total energy for state  6:                 -2202.17189274 au
    Multiplicity: Triplet
    Trans. Mom.:  0.0000 X   0.0000 Y   0.0000 Z
    Strength   :     0.0000000000
    D(189) --> V(  1) amplitude =  0.8918

 Excited state   7: excitation energy (eV) =    2.8438
 Total energy for state  7:                 -2202.16988724 au
    Multiplicity: Singlet
    Trans. Mom.:  0.3367 X  -0.0032 Y   0.3319 Z
    Strength   :     0.0155719823
    D(189) --> V(  1) amplitude =  0.9471

 Excited state   8: excitation energy (eV) =    2.9039
 Total energy for state  8:                 -2202.16768070 au
    Multiplicity: Triplet
    Trans. Mom.:  0.0000 X   0.0000 Y   0.0000 Z
    Strength   :     0.0000000000
    D(188) --> V(  1) amplitude =  0.9275

 Excited state   9: excitation energy (eV) =    2.9319
 Total energy for state  9:                 -2202.16664830 au
    Multiplicity: Singlet
    Trans. Mom.: -0.0966 X   0.0201 Y   0.0749 Z
    Strength   :     0.0011019167
    D(188) --> V(  1) amplitude =  0.9602

 Excited state  10: excitation energy (eV) =    3.0758
 Total energy for state 10:                 -2202.16136335 au
    Multiplicity: Singlet
    Trans. Mom.: -2.0221 X  -0.0949 Y   3.6349 Z
    Strength   :     1.3043987342
    D(187) --> V(  1) amplitude =  0.9454

 Excited state  11: excitation energy (eV) =    3.4027
 Total energy for state 11:                 -2202.14934949 au
    Multiplicity: Singlet
    Trans. Mom.: -0.6126 X  -0.0529 Y  -0.5534 Z
    Strength   :     0.0570475641
    D(183) --> V(  1) amplitude =  0.4570
    D(184) --> V(  1) amplitude =  0.2545
    D(186) --> V(  1) amplitude = -0.4656
    D(190) --> V(  2) amplitude = -0.5910

 Excited state  12: excitation energy (eV) =    3.4171
 Total energy for state 12:                 -2202.14881909 au
    Multiplicity: Singlet
    Trans. Mom.: -0.5698 X   0.0552 Y   0.1851 Z
    Strength   :     0.0303048911
    D(183) --> V(  1) amplitude =  0.2717
    D(186) --> V(  1) amplitude =  0.8001
    D(187) --> V(  2) amplitude =  0.2280
    D(190) --> V(  2) amplitude = -0.3188

 ---------------------------------------------------

                    Orbital Energies (a.u.)
 --------------------------------------------------------------

 Alpha MOs
 -- Occupied --
-19.528 -19.528 -10.506 -10.506 -10.483 -10.482 -10.469 -10.469
-10.469 -10.469 -10.467 -10.467 -10.466 -10.466 -10.466 -10.465
-10.465 -10.465 -10.464 -10.464 -10.463 -10.463 -10.462 -10.462
-10.460 -10.460 -10.459 -10.459 -10.457 -10.456 -10.456 -10.456
-10.456 -10.455 -10.454 -10.453 -10.451 -10.450 -10.439 -10.439
-10.438 -10.438 -10.435 -10.435 -10.435 -10.435 -10.434 -10.434
-10.427 -10.427 -10.422 -10.421 -10.421 -10.419  -6.949  -6.946
 -1.183  -1.183  -1.019  -1.015  -0.964  -0.958  -0.957  -0.954
 -0.935  -0.934  -0.909  -0.899  -0.885  -0.884  -0.865  -0.859
 -0.856  -0.853  -0.850  -0.847  -0.820  -0.818  -0.817  -0.814
 -0.813  -0.798  -0.776  -0.774  -0.765  -0.765  -0.737  -0.734
 -0.729  -0.719  -0.710  -0.710  -0.689  -0.685  -0.679  -0.669
 -0.659  -0.649  -0.647  -0.640  -0.639  -0.638  -0.599  -0.593
 -0.592  -0.588  -0.585  -0.584  -0.583  -0.576  -0.575  -0.563
 -0.562  -0.544  -0.543  -0.537  -0.533  -0.533  -0.527  -0.523
 -0.517  -0.511  -0.503  -0.502  -0.499  -0.497  -0.496  -0.495
 -0.492  -0.491  -0.488  -0.485  -0.483  -0.482  -0.478  -0.474
 -0.474  -0.473  -0.470  -0.465  -0.465  -0.464  -0.460  -0.457
 -0.447  -0.445  -0.443  -0.438  -0.436  -0.431  -0.428  -0.425
 -0.424  -0.424  -0.421  -0.416  -0.414  -0.410  -0.407  -0.405
 -0.399  -0.399  -0.397  -0.395  -0.393  -0.391  -0.386  -0.385
 -0.377  -0.375  -0.369  -0.368  -0.365  -0.361  -0.357  -0.351
 -0.344  -0.340  -0.327  -0.319  -0.300  -0.297  -0.280  -0.280
 -0.279  -0.265  -0.258  -0.255  -0.253  -0.250

          Ground-State Mulliken Net Atomic Charges

     Atom                 Charge (a.u.)
  ----------------------------------------
      1 C                    -0.153105
      2 C                    -0.399389
      3 H                     0.250716
      4 C                     0.074719
      5 C                     0.091422
      6 C                    -0.402915
      7 H                     0.252185
      8 C                    -0.152694
      9 C                     0.175842
     10 C                    -0.391268
     11 H                     0.254653
     12 C                    -0.066936
     13 C                     0.218326
     14 C                     0.178218
     15 C                    -0.397560
     16 H                     0.254778
     17 C                    -0.236572
     18 H                     0.260039
     19 C                    -0.347276
     20 H                     0.257412
     21 C                    -0.350584
     22 H                     0.257659
     23 C                    -0.234873
     24 H                     0.259537
     25 B                     0.656845
     26 C                    -0.157312
     27 C                    -0.373931
     28 H                     0.249301
     29 C                     0.052684
     30 C                     0.188942
     31 C                    -0.375051
     32 H                     0.257872
     33 C                    -0.234929
     34 H                     0.261048
     35 C                    -0.345908
     36 H                     0.259458
     37 C                     0.218047
     38 C                    -0.088824
     39 C                    -0.343944
     40 H                     0.259519
     41 C                    -0.235180
     42 H                     0.261544
     43 C                    -0.367891
     44 H                     0.258055
     45 C                     0.182326
     46 C                     0.047625
     47 C                    -0.376114
     48 H                     0.247355
     49 C                    -0.155640
     50 B                     0.662602
     51 C                    -0.222253
     52 C                     0.068591
     53 C                    -0.449255
     54 H                     0.257584
     55 C                     0.387343
     56 O                    -0.470866
     57 C                    -0.409649
     58 H                     0.241897
     59 C                     0.049505
     60 C                    -0.429978
     61 H                     0.253854
     62 H                     0.221103
     63 H                     0.221088
     64 C                    -0.773236
     65 H                     0.253671
     66 H                     0.248520
     67 H                     0.249385
     68 C                    -0.551254
     69 H                     0.242300
     70 H                     0.253209
     71 C                    -0.659772
     72 H                     0.237151
     73 H                     0.222337
     74 H                     0.228508
     75 C                    -0.224481
     76 C                     0.064508
     77 C                    -0.442222
     78 H                     0.257966
     79 C                     0.388116
     80 O                    -0.471040
     81 C                    -0.409455
     82 H                     0.242359
     83 C                     0.045108
     84 C                    -0.430009
     85 H                     0.253994
     86 H                     0.221173
     87 H                     0.221343
     88 C                    -0.772902
     89 H                     0.254140
     90 H                     0.248055
     91 H                     0.249094
     92 C                    -0.549113
     93 H                     0.252615
     94 H                     0.242104
     95 C                    -0.656061
     96 H                     0.232886
     97 H                     0.228646
     98 H                     0.222566
  ----------------------------------------
  Sum of atomic charges =    -0.000000

                    Cartesian Multipole Moments
 -----------------------------------------------------------------
    Charge (ESU x 10^10)
                -0.0000
    Dipole Moment (Debye)
         X       0.8162      Y       0.2368      Z      -0.9940
       Tot       1.3078
    Quadrupole Moments (Debye-Ang)
        XX    -262.7895     XY      23.2626     YY    -321.4626
        XZ      -7.1338     YZ      11.1482     ZZ    -250.7689

 Total job time:  10796.76s(wall), 37511.51s(cpu)
        *  Thank you very much for using Q-Chem.  Have a nice day.  *
