 Q-Chem 5.1, Q-Chem, Inc., Pleasanton, CA (2018)
 Q-Chem 5.1.1 for Intel X86 EM64T Linux

User input:
--------------------------------------------------------------
$solvent
dielectric      8.93
dielectric_infi 2.03
$end

$rem
threads 8
jobtype	sp
method PBEh-3c
basis def2-mSVP
mem_static	1024
mem_total	14000
sym_ignore	true
cis_n_roots             2
cis_singlets            false
cis_triplets		true
rpa                     false
calc_soc 		true
cis_moments             true
cis_relaxed_density	true
solvent_method		pcm
$end

$pcm
StateSpecific   1
ChargeSeparation Excited
$end

$molecule
read utleopt_dcm.mol
$end

--------------------------------------------------------------

   23   -2202.2083096014      5.15e-09  Convergence criterion met
 Total energy in the final basis set =    -2202.2083096014
 Total job time:  8776.46s(wall), 37012.08s(cpu)
        *  Thank you very much for using Q-Chem.  Have a nice day.  *
 Q-Chem 5.1, Q-Chem, Inc., Pleasanton, CA (2018)
 Q-Chem 5.1.1 for Intel X86 EM64T Linux

User input:
--------------------------------------------------------------
$rem
threads 8
jobtype sp
method PBEh-3c
basis def2-mSVP
mem_static      1024
mem_total       14000
sym_ignore      true
cis_n_roots             6
cis_singlets            true
cis_triplets            true
rpa                     false
calc_soc                true
cis_moments             true
cis_relaxed_density     true
solvent_method          pcm
$end

$molecule
read
$end

$pcm
statespecific           Marcus
$end

$solvent
dielectric      8.93
dielectric_infi 2.03
$end

--------------------------------------------------------------

             Standard Nuclear Orientation (Angstroms)
    I     Atom           X                Y                Z
 ----------------------------------------------------------------
    1      C       0.0000000000     0.0000000000     0.0000000000
    2      C       0.0000000000     0.0000000000     1.4047340000
    3      H       0.9431333515     0.0000000000     1.9405224214
    4      C      -1.1872607132     0.0053375493     2.1000762396
    5      C      -2.4309119473     0.0085110011     1.4117002232
    6      C      -2.4500982077    -0.0016965671     0.0350737576
    7      H      -3.3961018964    -0.0096848919    -0.4950896190
    8      C      -1.2449859577    -0.0041875948    -0.6934623976
    9      C      -1.4560393781     0.0121750753     3.5348316022
   10      C      -0.6804887599     0.0112776990     4.6659801444
   11      H       0.4017080171     0.0025599072     4.6187498928
   12      C      -2.8561571813     0.0223506243     3.6707979088
   13      C      -3.5169792022     0.0340923667     4.8948903773
   14      C      -3.4962715687     0.0204344046     2.4159174233
   15      C      -4.8659724199     0.0318238085     2.3854502708
   16      H      -5.4174291992     0.0319246760     1.4536047411
   17      C      -1.3268035541     0.0217898428     5.9248345103
   18      H      -0.7168115407     0.0209580389     6.8189330626
   19      C      -2.6977355631     0.0333727564     6.0503113627
   20      H      -3.1498574364     0.0417043472     7.0346150766
   21      C      -4.9310647234     0.0454596219     4.8354235852
   22      H      -5.5120731268     0.0552605288     5.7494078870
   23      C      -5.5682652225     0.0444107079     3.6153404771
   24      H      -6.6500373387     0.0538589196     3.5892892944
   25      B      -1.2872707724    -0.0113235504    -2.2379311855
   26      C       0.0347075440     0.0462209568    -3.0224199985
   27      C       0.0115799075     0.1167278313    -4.4108675838
   28      H      -0.9390225610     0.1343113455    -4.9315981317
   29      C       1.1935187740     0.1591978368    -5.1292723559
   30      C       1.4807734129     0.2303197674    -6.5231806003
   31      C       0.7257713304     0.2926642742    -7.6875786166
   32      H      -0.3560188777     0.2933206087    -7.6632917681
   33      C       1.4031143842     0.3575371502    -8.9141915199
   34      H       0.8199000613     0.4062129616    -9.8245606389
   35      C       2.7862718292     0.3636380695    -9.0113775825
   36      H       3.2562799079     0.4164489773    -9.9855148096
   37      C       3.5857871066     0.3027935668    -7.8443389479
   38      C       2.8950854426     0.2371997675    -6.6353021933
   39      C       5.0007816803     0.3028755979    -7.7575448632
   40      H       5.5962622110     0.3524901701    -8.6607397596
   41      C       5.6315912348     0.2400157598    -6.5228744572
   42      H       6.7136075708     0.2415757923    -6.4919600323
   43      C       4.9254537843     0.1749407816    -5.3155506483
   44      H       5.4582598829     0.1278423697    -4.3745854210
   45      C       3.5336262848     0.1733622849    -5.3668647285
   46      C       2.4984546017     0.1238217061    -4.4013848246
   47      C       2.5197548867     0.0637566508    -3.0132039450
   48      H       3.4702441084     0.0468049777    -2.4908613522
   49      C       1.3349132018     0.0374277144    -2.2964839796
   50      B       1.3520683497     0.0052976503    -0.7577860110
   51      C      -2.6546921501    -0.0431503317    -3.0127975381
   52      C      -3.1851735330    -1.2335629374    -3.5117827003
   53      C      -4.4043080804    -1.2420591459    -4.1927216534
   54      H      -4.7837099053    -2.1860045936    -4.5646205977
   55      C      -5.1012498797    -0.0577690160    -4.3880015015
   56      O      -6.2825372031     0.0369039933    -5.0342550966
   57      C      -4.5702870815     1.1381093457    -3.9045536974
   58      H      -5.1125437745     2.0620467992    -4.0722529127
   59      C      -3.3642253207     1.1520436305    -3.2248681024
   60      C      -6.8670188550    -1.1424387715    -5.5379281232
   61      H      -7.8057859181    -0.8501645040    -6.0031522396
   62      H      -7.0794331967    -1.8672612224    -4.7466472650
   63      H      -6.2383930340    -1.6243722124    -6.2925106540
   64      C      -2.8055858421     2.4557272839    -2.7230413874
   65      H      -3.4255732033     3.3015618683    -3.0188698358
   66      H      -2.7313692751     2.4661301676    -1.6336039687
   67      H      -1.7989161696     2.6329681421    -3.1086084510
   68      C      -2.4760986169    -2.5452971005    -3.2896779087
   69      H      -2.6889186616    -3.2221307357    -4.1210441290
   70      H      -1.3931105384    -2.3942893852    -3.2953349517
   71      C      -2.8820419919    -3.2166520917    -1.9791478502
   72      H      -2.6278429190    -2.5953509331    -1.1198376559
   73      H      -3.9565338597    -3.4018366637    -1.9489182992
   74      H      -2.3728291543    -4.1736203858    -1.8579324916
   75      C       2.7208779099    -0.0429244778     0.0243399584
   76      C       3.4527619717     1.1122398152     0.3030455771
   77      C       4.6618785165     1.0452783853     0.9998783275
   78      H       5.1984351554     1.9663658299     1.1949032612
   79      C       5.1572222856    -0.1772157850     1.4258108764
   80      O       6.3123260636    -0.3392845799     2.1056229622
   81      C       4.4391379236    -1.3393324423     1.1441071718
   82      H       4.8335138261    -2.2951766470     1.4703727866
   83      C       3.2393090159    -1.2787754633     0.4556674724
   84      C       7.0612182434     0.8079648813     2.4382350816
   85      H       7.9303400159     0.4619214557     2.9933270026
   86      H       6.4957373044     1.4998477159     3.0691214295
   87      H       7.4059242282     1.3475418726     1.5513345265
   88      C       2.4913648308    -2.5497767041     0.1642984549
   89      H       3.0346982767    -3.4266241623     0.5151807935
   90      H       1.5112915554    -2.5545239272     0.6456293689
   91      H       2.3194885324    -2.6747235776    -0.9071466006
   92      C       2.9447865056     2.4779530179    -0.0848854326
   93      H       2.2710838467     2.4056740003    -0.9423985200
   94      H       3.7822164827     3.1001812527    -0.4120590294
   95      C       2.2227898305     3.1739994997     1.0669454282
   96      H       1.3558177336     2.5981586197     1.3923853054
   97      H       1.8737670108     4.1633095310     0.7687137036
   98      H       2.8818122400     3.2969771912     1.9274584061
 ----------------------------------------------------------------

   23   -2202.2074276382      7.12e-09  Convergence criterion met
 Total energy in the final basis set =    -2202.2074276382

         TDDFT/TDA Excitation Energies
 ---------------------------------------------------

 Excited state   1: excitation energy (eV) =    0.8003
 Total energy for state  1:                 -2202.17801538 au
    <S**2>     :  2.1167
    Trans. Mom.: -0.3303 X   0.0178 Y  -0.0900 Z
    Strength   :     0.0023038356
    D(186) --> S(  1) amplitude = -0.5627 beta
    D(187) --> S(  1) amplitude =  0.7946 beta

 Excited state   2: excitation energy (eV) =    1.3398
 Total energy for state  2:                 -2202.15819167 au
    <S**2>     :  2.2011
    Trans. Mom.: -0.0196 X  -0.0089 Y  -0.0245 Z
    Strength   :     0.0000349686
    D(189) --> S(  1) amplitude =  0.9816 beta

 Excited state   3: excitation energy (eV) =    1.4418
 Total energy for state  3:                 -2202.15444105 au
    <S**2>     :  2.1997
    Trans. Mom.: -0.2042 X  -0.0070 Y  -0.0873 Z
    Strength   :     0.0017443785
    D(188) --> S(  1) amplitude =  0.9841 beta

 Excited state   4: excitation energy (eV) =    1.5277
 Total energy for state  4:                 -2202.15128386 au
    <S**2>     :  2.1629
    Trans. Mom.: -1.3085 X  -0.0828 Y   2.3586 Z
    Strength   :     0.2725590989
    S(  2) --> V(  1) amplitude =  0.8730 alpha
    S(  2) --> V(  3) amplitude = -0.2062 alpha
    D(185) --> S(  1) amplitude =  0.3724 beta

 Excited state   5: excitation energy (eV) =    1.8430
 Total energy for state  5:                 -2202.13969768 au
    <S**2>     :  2.2296
    Trans. Mom.:  0.1407 X   0.0130 Y  -0.3803 Z
    Strength   :     0.0074304047
    D(180) --> S(  1) amplitude =  0.1790 beta
    D(186) --> S(  1) amplitude =  0.7942 beta
    D(187) --> S(  1) amplitude =  0.5580 beta

 Excited state   6: excitation energy (eV) =    2.0242
 Total energy for state  6:                 -2202.13304143 au
    <S**2>     :  2.2225
    Trans. Mom.:  1.9966 X   0.0939 Y  -3.5805 Z
    Strength   :     0.8338689902
    S(  2) --> V(  1) amplitude = -0.3299 alpha
    D(182) --> S(  1) amplitude = -0.2353 beta
    D(185) --> S(  1) amplitude =  0.8790 beta

 ---------------------------------------------------

                    Orbital Energies (a.u.)
 --------------------------------------------------------------

 Alpha MOs
 -- Occupied --
-19.528 -19.528 -10.505 -10.505 -10.488 -10.488 -10.483 -10.483
-10.471 -10.469 -10.468 -10.468 -10.468 -10.468 -10.467 -10.466
-10.466 -10.465 -10.465 -10.464 -10.464 -10.464 -10.464 -10.463
-10.463 -10.463 -10.462 -10.460 -10.460 -10.458 -10.456 -10.456
-10.455 -10.455 -10.455 -10.454 -10.453 -10.452 -10.452 -10.452
-10.440 -10.439 -10.435 -10.435 -10.435 -10.434 -10.433 -10.433
-10.427 -10.427 -10.422 -10.422 -10.419 -10.417  -6.938  -6.936
 -1.183  -1.183  -1.029  -1.020  -0.969  -0.964  -0.957  -0.956
 -0.937  -0.936  -0.916  -0.905  -0.885  -0.884  -0.873  -0.861
 -0.856  -0.853  -0.852  -0.849  -0.828  -0.821  -0.817  -0.817
 -0.815  -0.809  -0.775  -0.774  -0.765  -0.764  -0.743  -0.738
 -0.730  -0.723  -0.710  -0.710  -0.692  -0.690  -0.682  -0.672
 -0.660  -0.649  -0.649  -0.647  -0.639  -0.638  -0.602  -0.596
 -0.593  -0.590  -0.585  -0.585  -0.584  -0.578  -0.578  -0.562
 -0.562  -0.547  -0.545  -0.538  -0.533  -0.533  -0.530  -0.525
 -0.521  -0.512  -0.506  -0.505  -0.505  -0.499  -0.498  -0.497
 -0.496  -0.495  -0.492  -0.490  -0.486  -0.484  -0.480  -0.475
 -0.474  -0.474  -0.471  -0.467  -0.465  -0.464  -0.462  -0.458
 -0.449  -0.448  -0.445  -0.443  -0.441  -0.434  -0.432  -0.429
 -0.426  -0.424  -0.422  -0.416  -0.415  -0.411  -0.408  -0.407
 -0.406  -0.400  -0.399  -0.398  -0.397  -0.392  -0.390  -0.386
 -0.383  -0.382  -0.370  -0.370  -0.366  -0.360  -0.358  -0.357
 -0.345  -0.344  -0.341  -0.322  -0.311  -0.300  -0.297  -0.280
 -0.279  -0.277  -0.270  -0.262  -0.254  -0.252  -0.185

 Beta MOs
 -- Occupied --
-19.528 -19.528 -10.505 -10.505 -10.483 -10.483 -10.482 -10.481
-10.472 -10.471 -10.471 -10.468 -10.468 -10.467 -10.467 -10.466
-10.466 -10.466 -10.465 -10.465 -10.464 -10.462 -10.462 -10.461
-10.460 -10.460 -10.460 -10.460 -10.459 -10.459 -10.458 -10.456
-10.455 -10.455 -10.455 -10.452 -10.452 -10.452 -10.450 -10.448
-10.439 -10.439 -10.435 -10.435 -10.435 -10.434 -10.433 -10.433
-10.427 -10.427 -10.422 -10.422 -10.419 -10.417  -6.936  -6.934
 -1.183  -1.183  -1.021  -1.020  -0.964  -0.960  -0.956  -0.955
 -0.935  -0.933  -0.910  -0.903  -0.884  -0.884  -0.870  -0.860
 -0.856  -0.853  -0.848  -0.848  -0.820  -0.819  -0.817  -0.815
 -0.814  -0.798  -0.775  -0.773  -0.765  -0.764  -0.736  -0.734
 -0.729  -0.721  -0.710  -0.710  -0.690  -0.684  -0.680  -0.669
 -0.659  -0.649  -0.648  -0.645  -0.638  -0.638  -0.599  -0.593
 -0.592  -0.587  -0.585  -0.584  -0.584  -0.577  -0.576  -0.562
 -0.561  -0.545  -0.543  -0.536  -0.533  -0.533  -0.529  -0.524
 -0.519  -0.512  -0.505  -0.504  -0.499  -0.498  -0.497  -0.495
 -0.493  -0.492  -0.489  -0.484  -0.483  -0.482  -0.479  -0.474
 -0.474  -0.473  -0.470  -0.466  -0.464  -0.464  -0.461  -0.455
 -0.448  -0.445  -0.443  -0.439  -0.435  -0.431  -0.429  -0.425
 -0.424  -0.422  -0.416  -0.416  -0.414  -0.410  -0.406  -0.406
 -0.400  -0.398  -0.396  -0.396  -0.395  -0.392  -0.386  -0.385
 -0.379  -0.372  -0.369  -0.367  -0.362  -0.358  -0.357  -0.343
 -0.342  -0.340  -0.331  -0.319  -0.298  -0.297  -0.279  -0.279
 -0.273  -0.264  -0.258  -0.254  -0.252

          Ground-State Mulliken Net Atomic Charges

     Atom                 Charge (a.u.)    Spin (a.u.)
  --------------------------------------------------------
      1 C                    -0.143842       0.017107
      2 C                    -0.404248      -0.010555
      3 H                     0.248177       0.000071
      4 C                     0.072848       0.037663
      5 C                     0.089554       0.030297
      6 C                    -0.407791      -0.003584
      7 H                     0.249658      -0.000311
      8 C                    -0.143599       0.012338
      9 C                     0.174408      -0.021742
     10 C                    -0.393757       0.026158
     11 H                     0.253886      -0.001513
     12 C                    -0.067673       0.017326
     13 C                     0.218052      -0.014669
     14 C                     0.176695      -0.019887
     15 C                    -0.400023       0.023940
     16 H                     0.253951      -0.001386
     17 C                    -0.236430      -0.017692
     18 H                     0.259814       0.000847
     19 C                    -0.349417       0.025230
     20 H                     0.256828      -0.001441
     21 C                    -0.352648       0.023182
     22 H                     0.257102      -0.001319
     23 C                    -0.234714      -0.016771
     24 H                     0.259320       0.000811
     25 B                     0.612935       0.176971
     26 C                    -0.142035       0.379427
     27 C                    -0.368726      -0.267341
     28 H                     0.259559       0.010982
     29 C                     0.071909       0.452789
     30 C                     0.191276      -0.211601
     31 C                    -0.385687       0.286469
     32 H                     0.255830      -0.016741
     33 C                    -0.229416      -0.199736
     34 H                     0.263230       0.009492
     35 C                    -0.349376       0.307053
     36 H                     0.261353      -0.017597
     37 C                     0.224617      -0.192970
     38 C                    -0.064949       0.282389
     39 C                    -0.345070       0.332208
     40 H                     0.262551      -0.019029
     41 C                    -0.230291      -0.204283
     42 H                     0.264437       0.009562
     43 C                    -0.377672       0.299153
     44 H                     0.256885      -0.017554
     45 C                     0.186114      -0.200944
     46 C                     0.063793       0.447809
     47 C                    -0.367370      -0.244116
     48 H                     0.257959       0.009769
     49 C                    -0.144414       0.328296
     50 B                     0.615186       0.177185
     51 C                    -0.215042      -0.018530
     52 C                     0.065932       0.002567
     53 C                    -0.449977      -0.000597
     54 H                     0.256531       0.000205
     55 C                     0.386407       0.000410
     56 O                    -0.471086       0.000085
     57 C                    -0.410375      -0.000330
     58 H                     0.240704       0.000285
     59 C                     0.048086       0.002298
     60 C                    -0.429738      -0.000013
     61 H                     0.253742       0.000003
     62 H                     0.220533       0.000007
     63 H                     0.221129       0.000008
     64 C                    -0.768590       0.000582
     65 H                     0.252018       0.000795
     66 H                     0.246324      -0.000270
     67 H                     0.245463      -0.000678
     68 C                    -0.545302       0.004239
     69 H                     0.240957       0.000241
     70 H                     0.247877      -0.002000
     71 C                    -0.660291      -0.000095
     72 H                     0.236303      -0.000219
     73 H                     0.222422       0.000078
     74 H                     0.227555       0.000001
     75 C                    -0.216423      -0.018483
     76 C                     0.061378       0.002795
     77 C                    -0.442981      -0.000678
     78 H                     0.256791       0.000232
     79 C                     0.386991       0.000558
     80 O                    -0.471328       0.000105
     81 C                    -0.410329      -0.000525
     82 H                     0.240981       0.000251
     83 C                     0.043401       0.002409
     84 C                    -0.429683      -0.000016
     85 H                     0.253765       0.000003
     86 H                     0.220612       0.000009
     87 H                     0.221264       0.000010
     88 C                    -0.768160       0.000532
     89 H                     0.252260       0.000794
     90 H                     0.245721      -0.000283
     91 H                     0.245157      -0.000610
     92 C                    -0.543660       0.003939
     93 H                     0.248382      -0.001847
     94 H                     0.240270       0.000083
     95 C                    -0.656599      -0.000133
     96 H                     0.231688      -0.000101
     97 H                     0.227587       0.000002
     98 H                     0.222553       0.000142
  --------------------------------------------------------
  Sum of atomic charges =    -0.000000

                    Cartesian Multipole Moments
 -----------------------------------------------------------------
    Charge (ESU x 10^10)
                -0.0000
    Dipole Moment (Debye)
         X       2.2601      Y       0.3195      Z      -3.5559
       Tot       4.2254
    Quadrupole Moments (Debye-Ang)
        XX    -264.0389     XY      23.4886     YY    -322.2468
        XZ     -14.8436     YZ      10.6340     ZZ    -238.9723

 Total job time:  13618.13s(wall), 51438.32s(cpu)
        *  Thank you very much for using Q-Chem.  Have a nice day.  *
