 Q-Chem 5.1, Q-Chem, Inc., Pleasanton, CA (2018)
 Q-Chem 5.1.1 for Intel X86 EM64T Linux

User input:
--------------------------------------------------------------
$solvent
dielectric      2.03
dielectric_infi 2.02
$end

$rem
threads 8
jobtype	sp
method PBEh-3c
basis def2-mSVP
mem_static	1024
mem_total	14000
sym_ignore	true
cis_n_roots             2
cis_singlets            false
cis_triplets		true
rpa                     false
calc_soc 		true
cis_moments             true
cis_relaxed_density	true
solvent_method		pcm
$end

$pcm
StateSpecific   1
ChargeSeparation Excited
$end

$molecule
read utleopt_chx.mol
$end

--------------------------------------------------------------

   23   -2202.1957706566      7.44e-09  Convergence criterion met
 Total energy in the final basis set =    -2202.1957706566
 Total job time:  10361.77s(wall), 41729.93s(cpu)
        *  Thank you very much for using Q-Chem.  Have a nice day.  *
 Q-Chem 5.1, Q-Chem, Inc., Pleasanton, CA (2018)
 Q-Chem 5.1.1 for Intel X86 EM64T Linux

User input:
--------------------------------------------------------------
$rem
threads 8
jobtype sp
method PBEh-3c
basis def2-mSVP
mem_static      1024
mem_total       14000
sym_ignore      true
cis_n_roots             6
cis_singlets            true
cis_triplets            true
rpa                     false
calc_soc                true
cis_moments             true
cis_relaxed_density     true
solvent_method          pcm
$end

$molecule
read
$end

$pcm
statespecific           Marcus
$end

$solvent
dielectric      2.03
dielectric_infi 2.02
$end

--------------------------------------------------------------

             Standard Nuclear Orientation (Angstroms)
    I     Atom           X                Y                Z
 ----------------------------------------------------------------
    1      C       0.0000000000     0.0000000000     0.0000000000
    2      C       0.0000000000     0.0000000000     1.4040830000
    3      H       0.9445581717     0.0000000000     1.9375711242
    4      C      -1.1872407492     0.0050075501     2.0987511777
    5      C      -2.4301267859     0.0088074699     1.4104022090
    6      C      -2.4491606164    -0.0008322054     0.0340745704
    7      H      -3.3936000095    -0.0091589909    -0.4990443367
    8      C      -1.2441881230    -0.0035961297    -0.6934271853
    9      C      -1.4565338869     0.0103376005     3.5331814226
   10      C      -0.6818183332     0.0069856303     4.6639835859
   11      H       0.4002783833    -0.0026586385     4.6165905740
   12      C      -2.8561793167     0.0208461273     3.6693719830
   13      C      -3.5169407355     0.0309088588     4.8928336401
   14      C      -3.4953526071     0.0202281838     2.4144729248
   15      C      -4.8643015723     0.0314827898     2.3840152791
   16      H      -5.4151814930     0.0324979101     1.4519290544
   17      C      -1.3276364584     0.0160527798     5.9223656188
   18      H      -0.7179105346     0.0133576814     6.8165923529
   19      C      -2.6977699396     0.0281529040     6.0475320132
   20      H      -3.1492990343     0.0351754086     7.0320783942
   21      C      -4.9303566967     0.0422903288     4.8324735095
   22      H      -5.5122572919     0.0509882343     5.7458715703
   23      C      -5.5669234616     0.0427153289     3.6129774111
   24      H      -6.6486479912     0.0522221795     3.5868409107
   25      B      -1.2857100506    -0.0110362344    -2.2375751091
   26      C       0.0365281954     0.0387443344    -3.0226959864
   27      C       0.0136321640     0.1044012623    -4.4100054761
   28      H      -0.9385408429     0.1262748628    -4.9278920014
   29      C       1.1964922535     0.1354426758    -5.1292278601
   30      C       1.4842269881     0.1977890199    -6.5219107821
   31      C       0.7297479363     0.2617597383    -7.6871237196
   32      H      -0.3518735727     0.2724261665    -7.6625588528
   33      C       1.4065735059     0.3155626923    -8.9129127688
   34      H       0.8239294431     0.3656492273    -9.8235324401
   35      C       2.7896236922     0.3093294440    -9.0104037269
   36      H       3.2587892245     0.3541130839    -9.9853111159
   37      C       3.5892555578     0.2467380401    -7.8444657832
   38      C       2.8983846842     0.1922675289    -6.6348121391
   39      C       5.0033965834     0.2353440743    -7.7575390204
   40      H       5.5997333201     0.2758682810    -8.6605758437
   41      C       5.6337956184     0.1725931027    -6.5230434349
   42      H       6.7157734170     0.1648713816    -6.4925839081
   43      C       4.9279105857     0.1189644492    -5.3162498794
   44      H       5.4608122089     0.0711950639    -4.3754853129
   45      C       3.5360130332     0.1289608104    -5.3665501099
   46      C       2.5010705343     0.0929539133    -4.4009832479
   47      C       2.5209725695     0.0406427327    -3.0122866646
   48      H       3.4691286450     0.0198834017    -2.4857232543
   49      C       1.3359746003     0.0269556836    -2.2967714471
   50      B       1.3518234624     0.0035532110    -0.7574159046
   51      C      -2.6524499273    -0.0352664762    -3.0126589526
   52      C      -3.1889047974    -1.2212368532    -3.5141295049
   53      C      -4.4074606967    -1.2202314699    -4.1950882264
   54      H      -4.7921621298    -2.1612174561    -4.5689646771
   55      C      -5.0973898438    -0.0320751276    -4.3875360747
   56      O      -6.2779345467     0.0717904654    -5.0341877935
   57      C      -4.5603333674     1.1588946902    -3.9010739751
   58      H      -5.0989934874     2.0845545462    -4.0683698179
   59      C      -3.3552191223     1.1643506409    -3.2215700849
   60      C      -6.8645976584    -1.0979903328    -5.5454301417
   61      H      -7.7992305825    -0.7983434345    -6.0147770040
   62      H      -7.0874623548    -1.8270398652    -4.7599979165
   63      H      -6.2359077082    -1.5814547526    -6.2999573586
   64      C      -2.7887414908     2.4626032845    -2.7145344028
   65      H      -3.3963957817     3.3147011162    -3.0178760130
   66      H      -2.7264499764     2.4733278962    -1.6244313754
   67      H      -1.7763204855     2.6298263500    -3.0890677538
   68      C      -2.4868214443    -2.5369512477    -3.2939829220
   69      H      -2.7049874578    -3.2123602164    -4.1254455169
   70      H      -1.4030179609    -2.3923056337    -3.3042110269
   71      C      -2.8918501410    -3.2061166524    -1.9822032787
   72      H      -2.6273739336    -2.5888094547    -1.1234958329
   73      H      -3.9678944992    -3.3803484038    -1.9459343626
   74      H      -2.3913301901    -4.1680108610    -1.8640155961
   75      C       2.7202704024    -0.0384666917     0.0244684542
   76      C       3.4524448418     1.1184573952     0.2922910369
   77      C       4.6607378948     1.0562516717     0.9898880025
   78      H       5.1974187323     1.9789177512     1.1767666541
   79      C       5.1550856878    -0.1621338322     1.4268093727
   80      O       6.3097167365    -0.3197151562     2.1088393788
   81      C       4.4370068248    -1.3255613879     1.1551256679
   82      H       4.8332086070    -2.2771126502     1.4903067417
   83      C       3.2381283091    -1.2705942395     0.4664653042
   84      C       7.0617545308     0.8251530720     2.4236650847
   85      H       7.9328130725     0.4829504233     2.9785098094
   86      H       6.5034371514     1.5276450170     3.0503766361
   87      H       7.4055403467     1.3549633888     1.5296973489
   88      C       2.4895257808    -2.5429898857     0.1838399162
   89      H       3.0312674219    -3.4176982024     0.5423831413
   90      H       1.5083717780    -2.5436137833     0.6627181564
   91      H       2.3204898102    -2.6761898808    -0.8869739038
   92      C       2.9443115037     2.4804407702    -0.1081011490
   93      H       2.2889326867     2.4027051606    -0.9792153560
   94      H       3.7846179593     3.1063329214    -0.4212240991
   95      C       2.1950126123     3.1747228358     1.0270562976
   96      H       1.3202255284     2.5989526023     1.3299272416
   97      H       1.8527876645     4.1646120725     0.7229518033
   98      H       2.8324208054     3.2952704795     1.9039999935
 ----------------------------------------------------------------

   23   -2202.1957665556      7.45e-09  Convergence criterion met
 Total energy in the final basis set =    -2202.1957665556

         TDDFT/TDA Excitation Energies
 ---------------------------------------------------

 Excited state   1: excitation energy (eV) =    0.8754
 Total energy for state  1:                 -2202.16359695 au
    <S**2>     :  2.1213
    Trans. Mom.: -0.2956 X   0.0214 Y  -0.1025 Z
    Strength   :     0.0021091519
    D(186) --> S(  1) amplitude =  0.7785 beta
    D(187) --> S(  1) amplitude = -0.5811 beta

 Excited state   2: excitation energy (eV) =    1.3142
 Total energy for state  2:                 -2202.14746954 au
    <S**2>     :  2.2057
    Trans. Mom.:  0.0155 X   0.0079 Y   0.0423 Z
    Strength   :     0.0000673855
    D(189) --> S(  1) amplitude =  0.9811 beta

 Excited state   3: excitation energy (eV) =    1.4169
 Total energy for state  3:                 -2202.14369802 au
    <S**2>     :  2.2044
    Trans. Mom.:  0.2070 X   0.0073 Y   0.1090 Z
    Strength   :     0.0019026116
    D(188) --> S(  1) amplitude =  0.9833 beta

 Excited state   4: excitation energy (eV) =    1.5492
 Total energy for state  4:                 -2202.13883323 au
    <S**2>     :  2.1675
    Trans. Mom.: -1.1350 X  -0.0627 Y   2.0399 Z
    Strength   :     0.2069826046
    S(  2) --> V(  1) amplitude =  0.8494 alpha
    S(  2) --> V(  2) amplitude =  0.2071 alpha
    D(185) --> S(  1) amplitude = -0.4185 beta

 Excited state   5: excitation energy (eV) =    1.8027
 Total energy for state  5:                 -2202.12951952 au
    <S**2>     :  2.2334
    Trans. Mom.: -0.1386 X  -0.0113 Y   0.3737 Z
    Strength   :     0.0070213225
    D(180) --> S(  1) amplitude =  0.1784 beta
    D(186) --> S(  1) amplitude =  0.5801 beta
    D(187) --> S(  1) amplitude =  0.7770 beta

 Excited state   6: excitation energy (eV) =    1.9829
 Total energy for state  6:                 -2202.12289558 au
    <S**2>     :  2.2273
    Trans. Mom.: -2.1102 X  -0.0809 Y   3.7742 Z
    Strength   :     0.9086580362
    S(  2) --> V(  1) amplitude =  0.3880 alpha
    S(  2) --> V(  2) amplitude =  0.1565 alpha
    D(185) --> S(  1) amplitude =  0.8781 beta

 ---------------------------------------------------

                    Orbital Energies (a.u.)
 --------------------------------------------------------------

 Alpha MOs
 -- Occupied --
-19.524 -19.524 -10.500 -10.500 -10.485 -10.485 -10.484 -10.484
-10.470 -10.469 -10.467 -10.467 -10.466 -10.465 -10.464 -10.464
-10.463 -10.463 -10.462 -10.462 -10.461 -10.461 -10.460 -10.460
-10.460 -10.459 -10.459 -10.459 -10.459 -10.457 -10.457 -10.451
-10.450 -10.450 -10.450 -10.449 -10.449 -10.448 -10.448 -10.447
-10.434 -10.434 -10.432 -10.431 -10.431 -10.431 -10.428 -10.428
-10.423 -10.423 -10.419 -10.418 -10.414 -10.412  -6.934  -6.933
 -1.180  -1.180  -1.027  -1.015  -0.968  -0.959  -0.952  -0.951
 -0.938  -0.932  -0.913  -0.901  -0.881  -0.880  -0.871  -0.857
 -0.853  -0.852  -0.849  -0.845  -0.825  -0.820  -0.814  -0.814
 -0.811  -0.806  -0.773  -0.771  -0.761  -0.761  -0.743  -0.736
 -0.726  -0.721  -0.706  -0.706  -0.691  -0.688  -0.680  -0.669
 -0.657  -0.647  -0.646  -0.644  -0.635  -0.634  -0.602  -0.593
 -0.592  -0.589  -0.584  -0.582  -0.581  -0.576  -0.576  -0.559
 -0.558  -0.545  -0.543  -0.536  -0.532  -0.532  -0.529  -0.523
 -0.519  -0.508  -0.504  -0.504  -0.503  -0.496  -0.495  -0.494
 -0.493  -0.492  -0.489  -0.484  -0.484  -0.483  -0.477  -0.472
 -0.471  -0.470  -0.467  -0.465  -0.462  -0.461  -0.459  -0.457
 -0.446  -0.445  -0.444  -0.440  -0.438  -0.431  -0.429  -0.426
 -0.422  -0.420  -0.418  -0.413  -0.411  -0.409  -0.407  -0.405
 -0.404  -0.401  -0.398  -0.394  -0.394  -0.389  -0.387  -0.382
 -0.379  -0.378  -0.366  -0.366  -0.363  -0.356  -0.353  -0.353
 -0.342  -0.341  -0.337  -0.316  -0.312  -0.296  -0.293  -0.276
 -0.274  -0.274  -0.265  -0.257  -0.249  -0.248  -0.183

 Beta MOs
 -- Occupied --
-19.524 -19.524 -10.500 -10.500 -10.484 -10.484 -10.478 -10.478
-10.472 -10.470 -10.470 -10.466 -10.464 -10.463 -10.463 -10.463
-10.462 -10.462 -10.461 -10.461 -10.461 -10.461 -10.460 -10.460
-10.460 -10.459 -10.459 -10.459 -10.459 -10.457 -10.457 -10.450
-10.450 -10.449 -10.449 -10.448 -10.447 -10.446 -10.446 -10.445
-10.434 -10.433 -10.432 -10.431 -10.431 -10.431 -10.428 -10.428
-10.423 -10.423 -10.419 -10.418 -10.414 -10.412  -6.933  -6.931
 -1.180  -1.180  -1.019  -1.015  -0.960  -0.957  -0.952  -0.951
 -0.934  -0.931  -0.907  -0.899  -0.880  -0.880  -0.868  -0.856
 -0.852  -0.849  -0.849  -0.844  -0.817  -0.816  -0.813  -0.813
 -0.810  -0.795  -0.772  -0.771  -0.761  -0.761  -0.734  -0.733
 -0.725  -0.718  -0.706  -0.706  -0.688  -0.682  -0.678  -0.666
 -0.656  -0.646  -0.644  -0.643  -0.634  -0.634  -0.599  -0.591
 -0.590  -0.587  -0.583  -0.582  -0.581  -0.575  -0.574  -0.558
 -0.558  -0.543  -0.541  -0.534  -0.532  -0.532  -0.528  -0.522
 -0.517  -0.508  -0.503  -0.503  -0.495  -0.495  -0.494  -0.493
 -0.490  -0.488  -0.483  -0.483  -0.482  -0.480  -0.477  -0.472
 -0.471  -0.469  -0.466  -0.465  -0.462  -0.461  -0.458  -0.454
 -0.444  -0.443  -0.441  -0.436  -0.431  -0.428  -0.425  -0.421
 -0.420  -0.418  -0.414  -0.413  -0.411  -0.407  -0.403  -0.403
 -0.399  -0.395  -0.394  -0.394  -0.393  -0.388  -0.382  -0.382
 -0.375  -0.368  -0.365  -0.363  -0.357  -0.354  -0.353  -0.340
 -0.339  -0.336  -0.329  -0.313  -0.298  -0.293  -0.274  -0.274
 -0.267  -0.261  -0.255  -0.249  -0.247

          Ground-State Mulliken Net Atomic Charges

     Atom                 Charge (a.u.)    Spin (a.u.)
  --------------------------------------------------------
      1 C                    -0.142141       0.017660
      2 C                    -0.402745      -0.009857
      3 H                     0.244449       0.000075
      4 C                     0.084389       0.035722
      5 C                     0.101604       0.029489
      6 C                    -0.406194      -0.003988
      7 H                     0.245697      -0.000245
      8 C                    -0.142937       0.013957
      9 C                     0.184717      -0.019850
     10 C                    -0.387567       0.023125
     11 H                     0.239048      -0.001352
     12 C                    -0.064637       0.017358
     13 C                     0.235336      -0.013470
     14 C                     0.187132      -0.018273
     15 C                    -0.394157       0.021229
     16 H                     0.239099      -0.001242
     17 C                    -0.222345      -0.015821
     18 H                     0.243760       0.000767
     19 C                    -0.342753       0.022577
     20 H                     0.239020      -0.001307
     21 C                    -0.346230       0.020836
     22 H                     0.239293      -0.001202
     23 C                    -0.220481      -0.015036
     24 H                     0.243331       0.000736
     25 B                     0.631724       0.156012
     26 C                    -0.141229       0.386920
     27 C                    -0.367493      -0.274616
     28 H                     0.252450       0.011458
     29 C                     0.080928       0.459021
     30 C                     0.196065      -0.210425
     31 C                    -0.383067       0.297723
     32 H                     0.239746      -0.017588
     33 C                    -0.218088      -0.203056
     34 H                     0.245254       0.009743
     35 C                    -0.350444       0.317254
     36 H                     0.240558      -0.018555
     37 C                     0.239551      -0.197046
     38 C                    -0.067926       0.278986
     39 C                    -0.346628       0.337747
     40 H                     0.241473      -0.019747
     41 C                    -0.219172      -0.207373
     42 H                     0.246209       0.009837
     43 C                    -0.375363       0.309158
     44 H                     0.240330      -0.018316
     45 C                     0.190652      -0.203449
     46 C                     0.073835       0.456778
     47 C                    -0.366475      -0.256086
     48 H                     0.250053       0.010490
     49 C                    -0.142747       0.344562
     50 B                     0.634281       0.156939
     51 C                    -0.218436      -0.016323
     52 C                     0.074306       0.002291
     53 C                    -0.441358      -0.000524
     54 H                     0.239179       0.000185
     55 C                     0.393287       0.000354
     56 O                    -0.462983       0.000079
     57 C                    -0.397163      -0.000273
     58 H                     0.231366       0.000258
     59 C                     0.054220       0.001952
     60 C                    -0.418416      -0.000012
     61 H                     0.246523       0.000003
     62 H                     0.212418       0.000007
     63 H                     0.211721       0.000007
     64 C                    -0.763504       0.000712
     65 H                     0.243779       0.000703
     66 H                     0.247925      -0.000240
     67 H                     0.243842      -0.000627
     68 C                    -0.545701       0.004087
     69 H                     0.231693       0.000219
     70 H                     0.249626      -0.001799
     71 C                    -0.653270      -0.000078
     72 H                     0.242723      -0.000192
     73 H                     0.217765       0.000087
     74 H                     0.222056       0.000000
     75 C                    -0.219431      -0.016383
     76 C                     0.068807       0.002515
     77 C                    -0.435113      -0.000590
     78 H                     0.239261       0.000208
     79 C                     0.393909       0.000490
     80 O                    -0.463149       0.000098
     81 C                    -0.396620      -0.000453
     82 H                     0.231679       0.000233
     83 C                     0.050672       0.002077
     84 C                    -0.418315      -0.000015
     85 H                     0.246659       0.000003
     86 H                     0.212408       0.000008
     87 H                     0.211762       0.000009
     88 C                    -0.763068       0.000588
     89 H                     0.243984       0.000710
     90 H                     0.247649      -0.000249
     91 H                     0.243250      -0.000536
     92 C                    -0.544624       0.003787
     93 H                     0.250370      -0.001646
     94 H                     0.231421       0.000079
     95 C                    -0.649609      -0.000107
     96 H                     0.238077      -0.000099
     97 H                     0.222379      -0.000000
     98 H                     0.216881       0.000141
  --------------------------------------------------------
  Sum of atomic charges =    -0.000000

                    Cartesian Multipole Moments
 -----------------------------------------------------------------
    Charge (ESU x 10^10)
                -0.0000
    Dipole Moment (Debye)
         X       1.0485      Y       0.1729      Z      -1.5202
       Tot       1.8548
    Quadrupole Moments (Debye-Ang)
        XX    -274.3156     XY      20.0008     YY    -323.7926
        XZ      -7.0063     YZ       9.9215     ZZ    -262.7532

 Total job time:  15532.57s(wall), 54735.74s(cpu)
        *  Thank you very much for using Q-Chem.  Have a nice day.  *
