 Q-Chem 5.1, Q-Chem, Inc., Pleasanton, CA (2018)
 Q-Chem 5.1.1 for Intel X86 EM64T Linux

User input:
--------------------------------------------------------------
$solvent
dielectric      2.38
dielectric_infi 2.25
$end

$rem
threads 8
jobtype	sp
method PBEh-3c
basis def2-mSVP
mem_static	1024
mem_total	14000
sym_ignore	true
cis_n_roots             2
cis_singlets            false
cis_triplets		true
rpa                     false
calc_soc 		true
cis_moments             true
cis_relaxed_density	true
solvent_method		pcm
$end

$pcm
StateSpecific   1
ChargeSeparation Excited
$end

$molecule
read utleopt_tol.mol
$end

--------------------------------------------------------------

   23   -2202.1980298197      7.17e-09  Convergence criterion met
 Total energy in the final basis set =    -2202.1980298197
 Total job time:  8626.89s(wall), 37458.93s(cpu)
        *  Thank you very much for using Q-Chem.  Have a nice day.  *
 Q-Chem 5.1, Q-Chem, Inc., Pleasanton, CA (2018)
 Q-Chem 5.1.1 for Intel X86 EM64T Linux

User input:
--------------------------------------------------------------
$rem
threads 8
jobtype sp
method PBEh-3c
basis def2-mSVP
mem_static      1024
mem_total       14000
sym_ignore      true
cis_n_roots             6
cis_singlets            true
cis_triplets            true
rpa                     false
calc_soc                true
cis_moments             true
cis_relaxed_density     true
solvent_method          pcm
$end

$molecule
read
$end

$pcm
statespecific           Marcus
$end

$solvent
dielectric      2.38
dielectric_infi 2.25
$end

--------------------------------------------------------------

             Standard Nuclear Orientation (Angstroms)
    I     Atom           X                Y                Z
 ----------------------------------------------------------------
    1      C       0.0000000000     0.0000000000     0.0000000000
    2      C       0.0000000000     0.0000000000     1.4041600000
    3      H       0.9443363793     0.0000000000     1.9380101450
    4      C      -1.1872460455     0.0050997220     2.0989174589
    5      C      -2.4302289008     0.0089770505     1.4105621042
    6      C      -2.4492845406    -0.0007860261     0.0341896316
    7      H      -3.3939637057    -0.0089971045    -0.4984775793
    8      C      -1.2443016792    -0.0036599175    -0.6934454304
    9      C      -1.4564658285     0.0106444026     3.5333871137
   10      C      -0.6816231048     0.0073593480     4.6642308367
   11      H       0.4004884968    -0.0024251131     4.6168636033
   12      C      -2.8561760523     0.0214030864     3.6695427756
   13      C      -3.5169450899     0.0317993546     4.8930884531
   14      C      -3.4954767625     0.0207051461     2.4146424524
   15      C      -4.8645288479     0.0322332598     2.3841563316
   16      H      -5.4154900124     0.0331938895     1.4521006457
   17      C      -1.3275121123     0.0167125361     5.9226811808
   18      H      -0.7177395797     0.0140694333     6.8168871818
   19      C      -2.6977595367     0.0290801981     6.0478932447
   20      H      -3.1493548341     0.0363481186     7.0324184823
   21      C      -4.9304584305     0.0434761837     4.8328384593
   22      H      -5.5122596609     0.0524523240     5.7463066086
   23      C      -5.5671082083     0.0438155196     3.6132503017
   24      H      -6.6488418151     0.0535429845     3.5871152482
   25      B      -1.2858999573    -0.0112763566    -2.2376364568
   26      C       0.0363078080     0.0387624499    -3.0227217029
   27      C       0.0134275445     0.1042912910    -4.4102067201
   28      H      -0.9384813881     0.1257312817    -4.9285652158
   29      C       1.1962163844     0.1359498820    -5.1293422534
   30      C       1.4838998436     0.1984420032    -6.5222121895
   31      C       0.7293395023     0.2618103849    -7.6873600822
   32      H      -0.3523091298     0.2716522183    -7.6628084252
   33      C       1.4062508223     0.3160956527    -8.9132954347
   34      H       0.8235461614     0.3657177743    -9.8239124530
   35      C       2.7893407848     0.3108659996    -9.0107646468
   36      H       3.2586065015     0.3559719448    -9.9856189541
   37      C       3.5889542779     0.2488636281    -7.8446479102
   38      C       2.8980940924     0.1939210821    -6.6350233397
   39      C       5.0032190885     0.2384843806    -7.7577497084
   40      H       5.5994812103     0.2794194202    -8.6608268649
   41      C       5.6336582059     0.1762485994    -6.5231821967
   42      H       6.7156481196     0.1693361348    -6.4926743652
   43      C       4.9277297242     0.1221353357    -5.3162629422
   44      H       5.4606313126     0.0748385056    -4.3754537731
   45      C       3.5358239584     0.1311051147    -5.3666954027
   46      C       2.5008159856     0.0943585203    -4.4011210067
   47      C       2.5208486772     0.0419707177    -3.0124432019
   48      H       3.4693171537     0.0218403302    -2.4864471352
   49      C       1.3358420404     0.0274499132    -2.2967827222
   50      B       1.3518336520     0.0038287828    -0.7574860051
   51      C      -2.6527962048    -0.0360694894    -3.0126497666
   52      C      -3.1889942006    -1.2223830208    -3.5138336496
   53      C      -4.4076836554    -1.2220821892    -4.1947200852
   54      H      -4.7921482149    -2.1632678056    -4.5683492095
   55      C      -5.0980822287    -0.0341316219    -4.3874250726
   56      O      -6.2787248541     0.0690211700    -5.0339828767
   57      C      -4.5613265579     1.1572316502    -3.9012534456
   58      H      -5.1000614537     2.0829293625    -4.0684942850
   59      C      -3.3560115580     1.1632620622    -3.2218091363
   60      C      -6.8652396503    -1.1017192460    -5.5450349427
   61      H      -7.8000458401    -0.8025663154    -6.0142753419
   62      H      -7.0874377939    -1.8303680994    -4.7591870901
   63      H      -6.2362501630    -1.5848516533    -6.2993713815
   64      C      -2.7902132184     2.4619491867    -2.7150862006
   65      H      -3.3980388855     3.3136828181    -3.0191244561
   66      H      -2.7286027628     2.4730926105    -1.6249366500
   67      H      -1.7775923761     2.6293071526    -3.0890419405
   68      C      -2.4865189197    -2.5378747447    -3.2935245391
   69      H      -2.7043565733    -3.2133827310    -4.1249559731
   70      H      -1.4027603786    -2.3928656284    -3.3032483472
   71      C      -2.8918170537    -3.2071594967    -1.9818575714
   72      H      -2.6283556103    -2.5894402441    -1.1230938782
   73      H      -3.9677397239    -3.3824034440    -1.9462599359
   74      H      -2.3904829860    -4.1685912474    -1.8633211405
   75      C       2.7204010934    -0.0378611775     0.0244309555
   76      C       3.4519061883     1.1194350854     0.2929217517
   77      C       4.6604148486     1.0577232829     0.9903512513
   78      H       5.1965615255     1.9805976232     1.1777630311
   79      C       5.1556662609    -0.1606686414     1.4265129796
   80      O       6.3104787024    -0.3177316868     2.1083276754
   81      C       4.4382619514    -1.3245154081     1.1541918482
   82      H       4.8347943956    -2.2762399620     1.4886864508
   83      C       3.2391164608    -1.2699162932     0.4656656422
   84      C       7.0619143483     0.8281131361     2.4240422337
   85      H       7.9331833678     0.4862383295     2.9786938461
   86      H       6.5027329446     1.5294877409     3.0510514683
   87      H       7.4050406346     1.3584900877     1.5302893601
   88      C       2.4913517889    -2.5427409160     0.1826424262
   89      H       3.0338333699    -3.4172170448     0.5406541267
   90      H       1.5103537689    -2.5441966455     0.6618679344
   91      H       2.3219612360    -2.6755301657    -0.8881775960
   92      C       2.9429883810     2.4813629020    -0.1067339636
   93      H       2.2860395524     2.4034947435    -0.9766541627
   94      H       3.7827133786     3.1073466118    -0.4211438103
   95      C       2.1955967642     3.1756549151     1.0297049758
   96      H       1.3218143489     2.5994151201     1.3346944102
   97      H       1.8521502897     4.1651611786     0.7257204749
   98      H       2.8348266195     3.2971402663     1.9052082867
 ----------------------------------------------------------------

   23   -2202.1979855698      7.11e-09  Convergence criterion met
 Total energy in the final basis set =    -2202.1979855698

         TDDFT/TDA Excitation Energies
 ---------------------------------------------------

 Excited state   1: excitation energy (eV) =    0.8680
 Total energy for state  1:                 -2202.16608853 au
    <S**2>     :  2.1209
    Trans. Mom.: -0.3052 X   0.0211 Y  -0.1031 Z
    Strength   :     0.0022161484
    D(186) --> S(  1) amplitude =  0.7690 beta
    D(187) --> S(  1) amplitude = -0.5947 beta

 Excited state   2: excitation energy (eV) =    1.3176
 Total energy for state  2:                 -2202.14956617 au
    <S**2>     :  2.2053
    Trans. Mom.:  0.0167 X   0.0080 Y   0.0406 Z
    Strength   :     0.0000643353
    D(189) --> S(  1) amplitude =  0.9811 beta

 Excited state   3: excitation energy (eV) =    1.4201
 Total energy for state  3:                 -2202.14579702 au
    <S**2>     :  2.2040
    Trans. Mom.:  0.2082 X   0.0071 Y   0.1089 Z
    Strength   :     0.0019216850
    D(188) --> S(  1) amplitude =  0.9834 beta

 Excited state   4: excitation energy (eV) =    1.5431
 Total energy for state  4:                 -2202.14127706 au
    <S**2>     :  2.1660
    Trans. Mom.: -1.2000 X  -0.0659 Y   2.1564 Z
    Strength   :     0.2304009998
    S(  2) --> V(  1) amplitude =  0.8584 alpha
    S(  2) --> V(  2) amplitude =  0.2053 alpha
    D(185) --> S(  1) amplitude = -0.4009 beta

 Excited state   5: excitation energy (eV) =    1.8045
 Total energy for state  5:                 -2202.13167031 au
    <S**2>     :  2.2330
    Trans. Mom.: -0.1498 X  -0.0118 Y   0.3963 Z
    Strength   :     0.0079406132
    D(180) --> S(  1) amplitude =  0.1781 beta
    D(186) --> S(  1) amplitude =  0.5941 beta
    D(187) --> S(  1) amplitude =  0.7665 beta

 Excited state   6: excitation energy (eV) =    1.9754
 Total energy for state  6:                 -2202.12539104 au
    <S**2>     :  2.2273
    Trans. Mom.: -2.1195 X  -0.0816 Y   3.7890 Z
    Strength   :     0.9125246130
    S(  2) --> V(  1) amplitude =  0.3725 alpha
    D(185) --> S(  1) amplitude =  0.8868 beta

 ---------------------------------------------------

                    Orbital Energies (a.u.)
 --------------------------------------------------------------

 Alpha MOs
 -- Occupied --
-19.525 -19.524 -10.501 -10.501 -10.485 -10.485 -10.484 -10.484
-10.471 -10.469 -10.468 -10.467 -10.466 -10.465 -10.465 -10.464
-10.464 -10.463 -10.462 -10.462 -10.462 -10.461 -10.461 -10.460
-10.460 -10.460 -10.459 -10.459 -10.459 -10.457 -10.457 -10.452
-10.451 -10.450 -10.450 -10.450 -10.450 -10.449 -10.448 -10.447
-10.435 -10.435 -10.432 -10.432 -10.432 -10.431 -10.429 -10.429
-10.423 -10.423 -10.419 -10.418 -10.414 -10.413  -6.935  -6.933
 -1.181  -1.181  -1.027  -1.016  -0.968  -0.960  -0.953  -0.952
 -0.938  -0.932  -0.914  -0.901  -0.881  -0.881  -0.871  -0.857
 -0.854  -0.853  -0.850  -0.845  -0.825  -0.820  -0.814  -0.814
 -0.811  -0.806  -0.773  -0.772  -0.761  -0.761  -0.744  -0.736
 -0.726  -0.721  -0.707  -0.707  -0.691  -0.689  -0.680  -0.669
 -0.657  -0.647  -0.647  -0.644  -0.635  -0.635  -0.602  -0.593
 -0.592  -0.589  -0.584  -0.582  -0.582  -0.576  -0.576  -0.559
 -0.559  -0.545  -0.543  -0.536  -0.532  -0.532  -0.529  -0.523
 -0.519  -0.508  -0.505  -0.504  -0.503  -0.496  -0.495  -0.494
 -0.494  -0.493  -0.489  -0.485  -0.484  -0.484  -0.478  -0.472
 -0.471  -0.470  -0.467  -0.465  -0.463  -0.461  -0.460  -0.457
 -0.446  -0.446  -0.445  -0.440  -0.438  -0.431  -0.429  -0.426
 -0.422  -0.421  -0.419  -0.413  -0.412  -0.409  -0.407  -0.405
 -0.404  -0.401  -0.398  -0.395  -0.395  -0.389  -0.388  -0.383
 -0.380  -0.378  -0.367  -0.366  -0.363  -0.356  -0.354  -0.354
 -0.342  -0.341  -0.338  -0.317  -0.312  -0.297  -0.293  -0.277
 -0.275  -0.274  -0.266  -0.258  -0.250  -0.248  -0.183

 Beta MOs
 -- Occupied --
-19.525 -19.524 -10.501 -10.501 -10.484 -10.484 -10.479 -10.478
-10.472 -10.470 -10.470 -10.466 -10.465 -10.464 -10.464 -10.463
-10.463 -10.462 -10.462 -10.462 -10.461 -10.461 -10.461 -10.460
-10.460 -10.460 -10.459 -10.459 -10.459 -10.457 -10.457 -10.451
-10.450 -10.450 -10.450 -10.448 -10.448 -10.447 -10.447 -10.445
-10.435 -10.434 -10.432 -10.432 -10.432 -10.431 -10.429 -10.429
-10.423 -10.423 -10.419 -10.418 -10.415 -10.413  -6.934  -6.932
 -1.181  -1.181  -1.020  -1.015  -0.961  -0.957  -0.953  -0.952
 -0.934  -0.932  -0.908  -0.900  -0.881  -0.880  -0.868  -0.857
 -0.853  -0.849  -0.849  -0.845  -0.817  -0.816  -0.814  -0.814
 -0.811  -0.796  -0.773  -0.771  -0.761  -0.761  -0.734  -0.734
 -0.726  -0.719  -0.707  -0.706  -0.689  -0.682  -0.678  -0.667
 -0.656  -0.646  -0.645  -0.643  -0.635  -0.635  -0.599  -0.591
 -0.590  -0.587  -0.583  -0.582  -0.581  -0.575  -0.575  -0.559
 -0.558  -0.543  -0.541  -0.534  -0.532  -0.532  -0.528  -0.522
 -0.517  -0.508  -0.503  -0.503  -0.496  -0.495  -0.494  -0.493
 -0.491  -0.489  -0.484  -0.483  -0.482  -0.481  -0.477  -0.472
 -0.471  -0.470  -0.467  -0.465  -0.462  -0.461  -0.459  -0.454
 -0.444  -0.444  -0.441  -0.436  -0.431  -0.428  -0.425  -0.421
 -0.420  -0.418  -0.414  -0.413  -0.411  -0.408  -0.404  -0.403
 -0.399  -0.396  -0.395  -0.394  -0.394  -0.388  -0.383  -0.382
 -0.376  -0.369  -0.366  -0.363  -0.358  -0.355  -0.353  -0.340
 -0.339  -0.336  -0.329  -0.314  -0.298  -0.294  -0.275  -0.274
 -0.267  -0.262  -0.255  -0.250  -0.248

          Ground-State Mulliken Net Atomic Charges

     Atom                 Charge (a.u.)    Spin (a.u.)
  --------------------------------------------------------
      1 C                    -0.142473       0.017552
      2 C                    -0.402848      -0.009866
      3 H                     0.245340       0.000072
      4 C                     0.082584       0.035843
      5 C                     0.099748       0.029508
      6 C                    -0.406328      -0.003898
      7 H                     0.246603      -0.000253
      8 C                    -0.143130       0.013750
      9 C                     0.183029      -0.019977
     10 C                    -0.388633       0.023346
     11 H                     0.241808      -0.001362
     12 C                    -0.065051       0.017327
     13 C                     0.232372      -0.013552
     14 C                     0.185420      -0.018376
     15 C                    -0.395173       0.021422
     16 H                     0.241867      -0.001251
     17 C                    -0.224911      -0.015955
     18 H                     0.246601       0.000772
     19 C                    -0.344005       0.022772
     20 H                     0.242181      -0.001316
     21 C                    -0.347443       0.021003
     22 H                     0.242453      -0.001208
     23 C                    -0.223074      -0.015158
     24 H                     0.246160       0.000741
     25 B                     0.630167       0.157813
     26 C                    -0.141129       0.386616
     27 C                    -0.367803      -0.274191
     28 H                     0.253576       0.011423
     29 C                     0.079740       0.458643
     30 C                     0.194936      -0.210645
     31 C                    -0.384042       0.296759
     32 H                     0.242585      -0.017496
     33 C                    -0.220497      -0.202726
     34 H                     0.248186       0.009709
     35 C                    -0.351234       0.316215
     36 H                     0.243858      -0.018443
     37 C                     0.236841      -0.196591
     38 C                    -0.067752       0.279124
     39 C                    -0.347362       0.337167
     40 H                     0.244806      -0.019659
     41 C                    -0.221523      -0.207094
     42 H                     0.249186       0.009802
     43 C                    -0.376300       0.308359
     44 H                     0.243245      -0.018234
     45 C                     0.189577      -0.203385
     46 C                     0.072578       0.456240
     47 C                    -0.366803      -0.255218
     48 H                     0.251323       0.010431
     49 C                    -0.142733       0.343334
     50 B                     0.632634       0.158673
     51 C                    -0.218072      -0.016514
     52 C                     0.072883       0.002316
     53 C                    -0.442981      -0.000531
     54 H                     0.242230       0.000187
     55 C                     0.392063       0.000360
     56 O                    -0.464429       0.000080
     57 C                    -0.399580      -0.000278
     58 H                     0.233106       0.000260
     59 C                     0.053129       0.001982
     60 C                    -0.420447      -0.000012
     61 H                     0.247798       0.000003
     62 H                     0.213890       0.000007
     63 H                     0.213284       0.000007
     64 C                    -0.764584       0.000707
     65 H                     0.245195       0.000710
     66 H                     0.247943      -0.000242
     67 H                     0.244305      -0.000635
     68 C                    -0.545802       0.004101
     69 H                     0.233147       0.000221
     70 H                     0.249633      -0.001817
     71 C                    -0.654529      -0.000080
     72 H                     0.241922      -0.000195
     73 H                     0.218492       0.000087
     74 H                     0.222998       0.000000
     75 C                    -0.219126      -0.016559
     76 C                     0.067505       0.002530
     77 C                    -0.436700      -0.000594
     78 H                     0.242324       0.000210
     79 C                     0.392679       0.000490
     80 O                    -0.464603       0.000097
     81 C                    -0.399080      -0.000456
     82 H                     0.233421       0.000234
     83 C                     0.049468       0.002103
     84 C                    -0.420360      -0.000015
     85 H                     0.247925       0.000003
     86 H                     0.213892       0.000008
     87 H                     0.213345       0.000009
     88 C                    -0.764141       0.000582
     89 H                     0.245400       0.000717
     90 H                     0.247626      -0.000252
     91 H                     0.243728      -0.000543
     92 C                    -0.544662       0.003804
     93 H                     0.250343      -0.001667
     94 H                     0.232810       0.000080
     95 C                    -0.650919      -0.000110
     96 H                     0.237346      -0.000100
     97 H                     0.223272       0.000000
     98 H                     0.217751       0.000142
  --------------------------------------------------------
  Sum of atomic charges =    -0.000000

                    Cartesian Multipole Moments
 -----------------------------------------------------------------
    Charge (ESU x 10^10)
                -0.0000
    Dipole Moment (Debye)
         X       1.1467      Y       0.1847      Z      -1.6806
       Tot       2.0429
    Quadrupole Moments (Debye-Ang)
        XX    -272.9656     XY      20.5127     YY    -323.5114
        XZ      -7.7144     YZ      10.1369     ZZ    -260.2492

 Total job time:  13054.64s(wall), 49084.15s(cpu)
        *  Thank you very much for using Q-Chem.  Have a nice day.  *
