 Q-Chem 5.1, Q-Chem, Inc., Pleasanton, CA (2018)
 Q-Chem 5.1.1 for Intel X86 EM64T Linux

User input:
--------------------------------------------------------------
$solvent
dielectric      4.33
dielectric_infi 1.83
$end

$rem
threads 8
jobtype	sp
method PBEh-3c
basis def2-mSVP
mem_static	1024
mem_total	14000
sym_ignore	true
cis_n_roots             2
cis_singlets            false
cis_triplets		true
rpa                     false
calc_soc 		true
cis_moments             true
cis_relaxed_density	true
solvent_method		pcm
$end

$pcm
StateSpecific   1
ChargeSeparation Excited
$end

$molecule
read utleopt_eth.mol
$end

--------------------------------------------------------------

   23   -2202.2041963953      5.61e-09  Convergence criterion met
 Total energy in the final basis set =    -2202.2041963953
 Total job time:  8519.58s(wall), 37051.40s(cpu)
        *  Thank you very much for using Q-Chem.  Have a nice day.  *
 Q-Chem 5.1, Q-Chem, Inc., Pleasanton, CA (2018)
 Q-Chem 5.1.1 for Intel X86 EM64T Linux

User input:
--------------------------------------------------------------
$rem
threads 8
jobtype sp
method PBEh-3c
basis def2-mSVP
mem_static      1024
mem_total       14000
sym_ignore      true
cis_n_roots             6
cis_singlets            true
cis_triplets            true
rpa                     false
calc_soc                true
cis_moments             true
cis_relaxed_density     true
solvent_method          pcm
$end

$molecule
read
$end

$pcm
statespecific           Marcus
$end

$solvent
dielectric      4.33
dielectric_infi 1.83
$end

--------------------------------------------------------------

             Standard Nuclear Orientation (Angstroms)
    I     Atom           X                Y                Z
 ----------------------------------------------------------------
    1      C       0.0000000000     0.0000000000     0.0000000000
    2      C       0.0000000000     0.0000000000     1.4044700000
    3      H       0.9436489158     0.0000000000     1.9394147604
    4      C      -1.1872554266     0.0054485330     2.0995096942
    5      C      -2.4305947195     0.0092188431     1.4112049999
    6      C      -2.4497279780    -0.0014191006     0.0347080712
    7      H      -3.3950918680    -0.0098202876    -0.4966318216
    8      C      -1.2446550741    -0.0044798734    -0.6933960819
    9      C      -1.4561550763     0.0123551553     3.5341555749
   10      C      -0.6808138584     0.0106251075     4.6650757036
   11      H       0.4013370366     0.0007600720     4.6176852623
   12      C      -2.8560551278     0.0236737868     3.6702872160
   13      C      -3.5167473052     0.0361474591     4.8941663810
   14      C      -3.4958578943     0.0221303435     2.4154358814
   15      C      -4.8652408739     0.0348600887     2.3850145571
   16      H      -5.4165383209     0.0354141162     1.4531086082
   17      C      -1.3268291789     0.0216845024     5.9237992093
   18      H      -0.7168580094     0.0201420599     6.8179013539
   19      C      -2.6974300390     0.0346588547     6.0492469418
   20      H      -3.1492083068     0.0434281131     7.0336991091
   21      C      -4.9305714124     0.0489261137     4.8344115419
   22      H      -5.5119246810     0.0594545267     5.7481648771
   23      C      -5.5675846116     0.0483748848     3.6145856610
   24      H      -6.6493357964     0.0590052152     3.5885362474
   25      B      -1.2866643910    -0.0129801664    -2.2376954161
   26      C       0.0352940392     0.0422202234    -3.0225586595
   27      C       0.0121983145     0.1102533749    -4.4105624263
   28      H      -0.9390611208     0.1284164701    -4.9301512186
   29      C       1.1944596129     0.1490596786    -5.1293469550
   30      C       1.4818430262     0.2170275709    -6.5227553128
   31      C       0.7269375305     0.2795423788    -7.6874454063
   32      H      -0.3548084880     0.2832155195    -7.6630632751
   33      C       1.4040141875     0.3409081446    -8.9137569846
   34      H       0.8209132275     0.3898424858    -9.8241777267
   35      C       2.7871467011     0.3433684633    -9.0111156568
   36      H       3.2567362807     0.3936560430    -9.9855815180
   37      C       3.5868079202     0.2823028994    -7.8445283319
   38      C       2.8961151293     0.2202747779    -6.6352268618
   39      C       5.0014948832     0.2790957413    -7.7577439258
   40      H       5.5972565816     0.3257560631    -8.6609024614
   41      C       5.6322454400     0.2166950935    -6.5231943187
   42      H       6.7142644257     0.2155168335    -6.4924613032
   43      C       4.9262559430     0.1553756225    -5.3160257335
   44      H       5.4592303769     0.1083304536    -4.3751888417
   45      C       3.5344138212     0.1571288832    -5.3669359400
   46      C       2.4993521089     0.1120591699    -4.4013171278
   47      C       2.5201862082     0.0555012592    -3.0129798600
   48      H       3.4697738024     0.0378428943    -2.4889715372
   49      C       1.3352881395     0.0335762934    -2.2966261839
   50      B       1.3519218674     0.0057079657    -0.7576713666
   51      C      -2.6537865676    -0.0442421917    -3.0126643737
   52      C      -3.1854752764    -1.2344152544    -3.5101815507
   53      C      -4.4044695206    -1.2417625037    -4.1910077274
   54      H      -4.7851034719    -2.1856532095    -4.5617498377
   55      C      -5.0998932431    -0.0570537081    -4.3874933819
   56      O      -6.2810702284     0.0386779634    -5.0340203187
   57      C      -4.5676502161     1.1383935506    -3.9052946297
   58      H      -5.1095255607     2.0621310062    -4.0744234525
   59      C      -3.3618256230     1.1515642372    -3.2258838629
   60      C      -6.8658626546    -1.1388710334    -5.5370687256
   61      H      -7.8038216635    -0.8457995371    -6.0035970315
   62      H      -7.0807636351    -1.8634888079    -4.7459372643
   63      H      -6.2375556749    -1.6225840078    -6.2911433867
   64      C      -2.8008477313     2.4547017993    -2.7253689996
   65      H      -3.4200860119     3.3012756309    -3.0206586901
   66      H      -2.7246496804     2.4656856259    -1.6361141803
   67      H      -1.7946575782     2.6305711779    -3.1127378707
   68      C      -2.4778503661    -2.5465958674    -3.2862867277
   69      H      -2.6916866728    -3.2244720079    -4.1166894863
   70      H      -1.3946972661    -2.3969699118    -3.2935508697
   71      C      -2.8831371503    -3.2152404558    -1.9742199578
   72      H      -2.6254796789    -2.5938665494    -1.1161569713
   73      H      -3.9581217772    -3.3969471234    -1.9413823438
   74      H      -2.3764728083    -4.1734929630    -1.8525167853
   75      C       2.7206344219    -0.0375307869     0.0244761527
   76      C       3.4504963130     1.1197317020     0.2986621103
   77      C       4.6590010798     1.0570645848     0.9965517733
   78      H       5.1940133749     1.9797558172     1.1881356738
   79      C       5.1558025304    -0.1627287198     1.4278164813
   80      O       6.3106060800    -0.3205646690     2.1093270841
   81      C       4.4399968826    -1.3267703669     1.1500260343
   82      H       4.8365039346    -2.2801006518     1.4805673050
   83      C       3.2408066490    -1.2708259096     0.4607654804
   84      C       7.0558876295     0.8278787383     2.4391602978
   85      H       7.9250345800     0.4854258770     2.9965796732
   86      H       6.4886953164     1.5210338680     3.0675388350
   87      H       7.4015173559     1.3659812939     1.5514056149
   88      C       2.4949766830    -2.5437736248     0.1728820722
   89      H       3.0386163097    -3.4186789270     0.5281112691
   90      H       1.5138484538    -2.5480755308     0.6519514802
   91      H       2.3257760385    -2.6729593312    -0.8984545521
   92      C       2.9404845587     2.4828949980    -0.0954848259
   93      H       2.2755861528     2.4069459039    -0.9595099807
   94      H       3.7784880107     3.1079907086    -0.4159322971
   95      C       2.2042486651     3.1773105166     1.0482273440
   96      H       1.3342859370     2.6002743584     1.3629332397
   97      H       1.8569598523     4.1662229472     0.7466784246
   98      H       2.8527148686     3.3004933658     1.9166951812
 ----------------------------------------------------------------

   23   -2202.2035589735      7.50e-09  Convergence criterion met
 Total energy in the final basis set =    -2202.2035589735

         TDDFT/TDA Excitation Energies
 ---------------------------------------------------

 Excited state   1: excitation energy (eV) =    0.8258
 Total energy for state  1:                 -2202.17321097 au
    <S**2>     :  2.1184
    Trans. Mom.:  0.3101 X  -0.0192 Y   0.0948 Z
    Strength   :     0.0021344429
    D(186) --> S(  1) amplitude = -0.6458 beta
    D(187) --> S(  1) amplitude =  0.7285 beta

 Excited state   2: excitation energy (eV) =    1.3314
 Total energy for state  2:                 -2202.15463226 au
    <S**2>     :  2.2031
    Trans. Mom.:  0.0165 X   0.0085 Y   0.0302 Z
    Strength   :     0.0000409618
    D(189) --> S(  1) amplitude =  0.9815 beta

 Excited state   3: excitation energy (eV) =    1.4335
 Total energy for state  3:                 -2202.15088053 au
    <S**2>     :  2.2017
    Trans. Mom.:  0.2007 X   0.0074 Y   0.0954 Z
    Strength   :     0.0017368509
    D(188) --> S(  1) amplitude =  0.9842 beta

 Excited state   4: excitation energy (eV) =    1.5399
 Total energy for state  4:                 -2202.14696808 au
    <S**2>     :  2.1651
    Trans. Mom.: -1.2065 X  -0.0728 Y   2.1738 Z
    Strength   :     0.2333928761
    S(  2) --> V(  1) amplitude =  0.8597 alpha
    S(  2) --> V(  3) amplitude = -0.1943 alpha
    D(185) --> S(  1) amplitude = -0.3997 beta

 Excited state   5: excitation energy (eV) =    1.8297
 Total energy for state  5:                 -2202.13631876 au
    <S**2>     :  2.2314
    Trans. Mom.: -0.1287 X  -0.0119 Y   0.3549 Z
    Strength   :     0.0063937890
    D(180) --> S(  1) amplitude =  0.1786 beta
    D(186) --> S(  1) amplitude =  0.7279 beta
    D(187) --> S(  1) amplitude =  0.6417 beta

 Excited state   6: excitation energy (eV) =    2.0229
 Total energy for state  6:                 -2202.12921929 au
    <S**2>     :  2.2257
    Trans. Mom.: -2.0366 X  -0.0886 Y   3.6497 Z
    Strength   :     0.8661106407
    S(  2) --> V(  1) amplitude =  0.3631 alpha
    D(185) --> S(  1) amplitude =  0.8822 beta

 ---------------------------------------------------

                    Orbital Energies (a.u.)
 --------------------------------------------------------------

 Alpha MOs
 -- Occupied --
-19.527 -19.526 -10.504 -10.503 -10.487 -10.487 -10.483 -10.483
-10.471 -10.468 -10.468 -10.467 -10.466 -10.466 -10.465 -10.465
-10.465 -10.464 -10.464 -10.464 -10.463 -10.463 -10.463 -10.462
-10.462 -10.462 -10.461 -10.459 -10.459 -10.458 -10.457 -10.454
-10.454 -10.453 -10.453 -10.453 -10.452 -10.451 -10.451 -10.450
-10.438 -10.437 -10.434 -10.434 -10.434 -10.433 -10.431 -10.431
-10.426 -10.425 -10.421 -10.421 -10.417 -10.416  -6.936  -6.935
 -1.182  -1.182  -1.028  -1.019  -0.969  -0.962  -0.955  -0.954
 -0.937  -0.934  -0.915  -0.903  -0.883  -0.883  -0.873  -0.860
 -0.855  -0.852  -0.852  -0.847  -0.827  -0.820  -0.816  -0.816
 -0.813  -0.808  -0.775  -0.773  -0.764  -0.763  -0.743  -0.738
 -0.729  -0.722  -0.709  -0.709  -0.692  -0.690  -0.682  -0.671
 -0.659  -0.648  -0.648  -0.646  -0.637  -0.637  -0.602  -0.595
 -0.593  -0.590  -0.585  -0.584  -0.583  -0.578  -0.577  -0.561
 -0.561  -0.546  -0.544  -0.537  -0.533  -0.533  -0.530  -0.524
 -0.520  -0.511  -0.506  -0.505  -0.504  -0.498  -0.497  -0.496
 -0.495  -0.494  -0.491  -0.488  -0.485  -0.484  -0.479  -0.474
 -0.473  -0.472  -0.469  -0.466  -0.464  -0.463  -0.461  -0.457
 -0.448  -0.447  -0.445  -0.442  -0.440  -0.433  -0.431  -0.428
 -0.425  -0.423  -0.421  -0.415  -0.413  -0.410  -0.407  -0.406
 -0.405  -0.400  -0.398  -0.397  -0.396  -0.391  -0.389  -0.385
 -0.382  -0.381  -0.369  -0.368  -0.365  -0.358  -0.356  -0.356
 -0.344  -0.343  -0.340  -0.320  -0.311  -0.299  -0.295  -0.278
 -0.277  -0.277  -0.269  -0.261  -0.252  -0.251  -0.184

 Beta MOs
 -- Occupied --
-19.527 -19.526 -10.503 -10.503 -10.483 -10.483 -10.480 -10.480
-10.471 -10.471 -10.470 -10.467 -10.466 -10.466 -10.466 -10.465
-10.464 -10.464 -10.464 -10.464 -10.462 -10.461 -10.461 -10.461
-10.461 -10.460 -10.460 -10.460 -10.459 -10.459 -10.458 -10.454
-10.453 -10.453 -10.453 -10.451 -10.451 -10.450 -10.449 -10.447
-10.437 -10.437 -10.434 -10.434 -10.434 -10.433 -10.431 -10.431
-10.426 -10.425 -10.421 -10.421 -10.417 -10.416  -6.935  -6.933
 -1.182  -1.182  -1.020  -1.018  -0.963  -0.959  -0.955  -0.954
 -0.934  -0.934  -0.909  -0.902  -0.883  -0.883  -0.869  -0.859
 -0.855  -0.851  -0.848  -0.847  -0.819  -0.818  -0.816  -0.815
 -0.813  -0.797  -0.774  -0.773  -0.763  -0.763  -0.735  -0.734
 -0.728  -0.720  -0.709  -0.708  -0.689  -0.683  -0.679  -0.668
 -0.658  -0.648  -0.647  -0.644  -0.637  -0.636  -0.599  -0.592
 -0.591  -0.587  -0.584  -0.583  -0.583  -0.576  -0.576  -0.561
 -0.560  -0.544  -0.542  -0.536  -0.533  -0.533  -0.528  -0.523
 -0.518  -0.510  -0.504  -0.504  -0.498  -0.497  -0.496  -0.495
 -0.492  -0.491  -0.487  -0.484  -0.483  -0.481  -0.479  -0.473
 -0.473  -0.472  -0.469  -0.466  -0.463  -0.463  -0.460  -0.455
 -0.446  -0.444  -0.443  -0.438  -0.433  -0.430  -0.427  -0.424
 -0.422  -0.420  -0.415  -0.415  -0.413  -0.409  -0.405  -0.405
 -0.399  -0.397  -0.396  -0.396  -0.394  -0.390  -0.384  -0.384
 -0.378  -0.371  -0.368  -0.365  -0.360  -0.357  -0.356  -0.342
 -0.341  -0.338  -0.330  -0.317  -0.297  -0.297  -0.278  -0.277
 -0.271  -0.263  -0.257  -0.252  -0.250

          Ground-State Mulliken Net Atomic Charges

     Atom                 Charge (a.u.)    Spin (a.u.)
  --------------------------------------------------------
      1 C                    -0.143128       0.017137
      2 C                    -0.403614      -0.010200
      3 H                     0.247162       0.000067
      4 C                     0.076678       0.036876
      5 C                     0.093736       0.030008
      6 C                    -0.407138      -0.003708
      7 H                     0.248498      -0.000288
      8 C                    -0.143344       0.012836
      9 C                     0.177896      -0.021040
     10 C                    -0.391823       0.025050
     11 H                     0.249128      -0.001454
     12 C                    -0.066605       0.017297
     13 C                     0.223874      -0.014223
     14 C                     0.180222      -0.019303
     15 C                    -0.398216       0.022970
     16 H                     0.249195      -0.001335
     17 C                    -0.231905      -0.017005
     18 H                     0.254531       0.000818
     19 C                    -0.347471       0.024249
     20 H                     0.250933      -0.001392
     21 C                    -0.350791       0.022332
     22 H                     0.251209      -0.001276
     23 C                    -0.230129      -0.016142
     24 H                     0.254062       0.000784
     25 B                     0.619212       0.169791
     26 C                    -0.142142       0.381648
     27 C                    -0.367944      -0.269834
     28 H                     0.257428       0.011141
     29 C                     0.074179       0.455232
     30 C                     0.192919      -0.211637
     31 C                    -0.384875       0.290824
     32 H                     0.250734      -0.017054
     33 C                    -0.225656      -0.201242
     34 H                     0.257490       0.009593
     35 C                    -0.349799       0.311057
     36 H                     0.254604      -0.017946
     37 C                     0.229538      -0.194527
     38 C                    -0.066048       0.281542
     39 C                    -0.345761       0.334060
     40 H                     0.255652      -0.019266
     41 C                    -0.226664      -0.205628
     42 H                     0.258555       0.009670
     43 C                    -0.377073       0.302858
     44 H                     0.251581      -0.017823
     45 C                     0.187612      -0.202527
     46 C                     0.066435       0.451320
     47 C                    -0.366769      -0.248727
     48 H                     0.255549       0.010039
     49 C                    -0.144152       0.334614
     50 B                     0.621729       0.170350
     51 C                    -0.216206      -0.017764
     52 C                     0.068840       0.002454
     53 C                    -0.447391      -0.000564
     54 H                     0.250734       0.000197
     55 C                     0.388680       0.000380
     56 O                    -0.468402       0.000081
     57 C                    -0.406090      -0.000306
     58 H                     0.237730       0.000276
     59 C                     0.050299       0.002173
     60 C                    -0.426072      -0.000012
     61 H                     0.251406       0.000003
     62 H                     0.217835       0.000007
     63 H                     0.217950       0.000007
     64 C                    -0.767118       0.000604
     65 H                     0.249286       0.000770
     66 H                     0.247070      -0.000264
     67 H                     0.244905      -0.000650
     68 C                    -0.545504       0.004192
     69 H                     0.237767       0.000234
     70 H                     0.248499      -0.001934
     71 C                    -0.658053      -0.000091
     72 H                     0.238723      -0.000209
     73 H                     0.220786       0.000082
     74 H                     0.225707       0.000001
     75 C                    -0.217416      -0.017775
     76 C                     0.063928       0.002694
     77 C                    -0.440668      -0.000645
     78 H                     0.250904       0.000223
     79 C                     0.389271       0.000531
     80 O                    -0.468619       0.000102
     81 C                    -0.405845      -0.000497
     82 H                     0.238031       0.000246
     83 C                     0.045979       0.002295
     84 C                    -0.425993      -0.000016
     85 H                     0.251469       0.000003
     86 H                     0.217889       0.000009
     87 H                     0.218035       0.000010
     88 C                    -0.766657       0.000547
     89 H                     0.249519       0.000767
     90 H                     0.246558      -0.000272
     91 H                     0.244566      -0.000583
     92 C                    -0.544049       0.003885
     93 H                     0.249122      -0.001777
     94 H                     0.237226       0.000085
     95 C                    -0.654428      -0.000125
     96 H                     0.234152      -0.000102
     97 H                     0.225851       0.000001
     98 H                     0.220506       0.000140
  --------------------------------------------------------
  Sum of atomic charges =    -0.000000

                    Cartesian Multipole Moments
 -----------------------------------------------------------------
    Charge (ESU x 10^10)
                -0.0000
    Dipole Moment (Debye)
         X       1.8483      Y       0.2677      Z      -2.8774
       Tot       3.4303
    Quadrupole Moments (Debye-Ang)
        XX    -267.6365     XY      22.2579     YY    -322.6976
        XZ     -12.2277     YZ      10.4211     ZZ    -246.9106

 Total job time:  13362.29s(wall), 50416.28s(cpu)
        *  Thank you very much for using Q-Chem.  Have a nice day.  *
