 Q-Chem 5.1, Q-Chem, Inc., Pleasanton, CA (2018)
 Q-Chem 5.1.1 for Intel X86 EM64T Linux

User input:
--------------------------------------------------------------
$solvent
dielectric      2.38
dielectric_infi 2.25
$end

$rem
threads 8
jobtype	sp
method PBEh-3c
basis def2-mSVP
mem_static	1024
mem_total	14000
sym_ignore	true
cis_n_roots             2
cis_singlets            false
cis_triplets		true
rpa                     false
calc_soc 		true
cis_moments             true
cis_relaxed_density	true
solvent_method		pcm
$end

$pcm
StateSpecific   1
ChargeSeparation Excited
$end

$molecule
read utleopt_tol.mol
$end

--------------------------------------------------------------

   15   -2202.2637040201      5.85e-09  Convergence criterion met
 Total energy in the final basis set =    -2202.2637040201
 Total job time:  5995.64s(wall), 24272.04s(cpu)
        *  Thank you very much for using Q-Chem.  Have a nice day.  *
 Q-Chem 5.1, Q-Chem, Inc., Pleasanton, CA (2018)
 Q-Chem 5.1.1 for Intel X86 EM64T Linux

User input:
--------------------------------------------------------------
$rem
threads 8
jobtype sp
method PBEh-3c
basis def2-mSVP
mem_static      1024
mem_total       14000
sym_ignore      true
cis_n_roots             6
cis_singlets            true
cis_triplets            true
rpa                     false
calc_soc                true
cis_moments             true
cis_relaxed_density     true
solvent_method          pcm
$end

$molecule
read
$end

$pcm
statespecific           Marcus
$end

$solvent
dielectric      2.38
dielectric_infi 2.25
$end

--------------------------------------------------------------

             Standard Nuclear Orientation (Angstroms)
    I     Atom           X                Y                Z
 ----------------------------------------------------------------
    1      C       0.0000000000     0.0000000000     0.0000000000
    2      C       0.0000000000     0.0000000000     1.4041600000
    3      H       0.9443363793     0.0000000000     1.9380101450
    4      C      -1.1872460455     0.0050997220     2.0989174589
    5      C      -2.4302289008     0.0089770505     1.4105621042
    6      C      -2.4492845406    -0.0007860261     0.0341896316
    7      H      -3.3939637057    -0.0089971045    -0.4984775793
    8      C      -1.2443016792    -0.0036599175    -0.6934454304
    9      C      -1.4564658285     0.0106444026     3.5333871137
   10      C      -0.6816231048     0.0073593480     4.6642308367
   11      H       0.4004884968    -0.0024251131     4.6168636033
   12      C      -2.8561760523     0.0214030864     3.6695427756
   13      C      -3.5169450899     0.0317993546     4.8930884531
   14      C      -3.4954767625     0.0207051461     2.4146424524
   15      C      -4.8645288479     0.0322332598     2.3841563316
   16      H      -5.4154900124     0.0331938895     1.4521006457
   17      C      -1.3275121123     0.0167125361     5.9226811808
   18      H      -0.7177395797     0.0140694333     6.8168871818
   19      C      -2.6977595367     0.0290801981     6.0478932447
   20      H      -3.1493548341     0.0363481186     7.0324184823
   21      C      -4.9304584305     0.0434761837     4.8328384593
   22      H      -5.5122596609     0.0524523240     5.7463066086
   23      C      -5.5671082083     0.0438155196     3.6132503017
   24      H      -6.6488418151     0.0535429845     3.5871152482
   25      B      -1.2858999573    -0.0112763566    -2.2376364568
   26      C       0.0363078080     0.0387624499    -3.0227217029
   27      C       0.0134275445     0.1042912910    -4.4102067201
   28      H      -0.9384813881     0.1257312817    -4.9285652158
   29      C       1.1962163844     0.1359498820    -5.1293422534
   30      C       1.4838998436     0.1984420032    -6.5222121895
   31      C       0.7293395023     0.2618103849    -7.6873600822
   32      H      -0.3523091298     0.2716522183    -7.6628084252
   33      C       1.4062508223     0.3160956527    -8.9132954347
   34      H       0.8235461614     0.3657177743    -9.8239124530
   35      C       2.7893407848     0.3108659996    -9.0107646468
   36      H       3.2586065015     0.3559719448    -9.9856189541
   37      C       3.5889542779     0.2488636281    -7.8446479102
   38      C       2.8980940924     0.1939210821    -6.6350233397
   39      C       5.0032190885     0.2384843806    -7.7577497084
   40      H       5.5994812103     0.2794194202    -8.6608268649
   41      C       5.6336582059     0.1762485994    -6.5231821967
   42      H       6.7156481196     0.1693361348    -6.4926743652
   43      C       4.9277297242     0.1221353357    -5.3162629422
   44      H       5.4606313126     0.0748385056    -4.3754537731
   45      C       3.5358239584     0.1311051147    -5.3666954027
   46      C       2.5008159856     0.0943585203    -4.4011210067
   47      C       2.5208486772     0.0419707177    -3.0124432019
   48      H       3.4693171537     0.0218403302    -2.4864471352
   49      C       1.3358420404     0.0274499132    -2.2967827222
   50      B       1.3518336520     0.0038287828    -0.7574860051
   51      C      -2.6527962048    -0.0360694894    -3.0126497666
   52      C      -3.1889942006    -1.2223830208    -3.5138336496
   53      C      -4.4076836554    -1.2220821892    -4.1947200852
   54      H      -4.7921482149    -2.1632678056    -4.5683492095
   55      C      -5.0980822287    -0.0341316219    -4.3874250726
   56      O      -6.2787248541     0.0690211700    -5.0339828767
   57      C      -4.5613265579     1.1572316502    -3.9012534456
   58      H      -5.1000614537     2.0829293625    -4.0684942850
   59      C      -3.3560115580     1.1632620622    -3.2218091363
   60      C      -6.8652396503    -1.1017192460    -5.5450349427
   61      H      -7.8000458401    -0.8025663154    -6.0142753419
   62      H      -7.0874377939    -1.8303680994    -4.7591870901
   63      H      -6.2362501630    -1.5848516533    -6.2993713815
   64      C      -2.7902132184     2.4619491867    -2.7150862006
   65      H      -3.3980388855     3.3136828181    -3.0191244561
   66      H      -2.7286027628     2.4730926105    -1.6249366500
   67      H      -1.7775923761     2.6293071526    -3.0890419405
   68      C      -2.4865189197    -2.5378747447    -3.2935245391
   69      H      -2.7043565733    -3.2133827310    -4.1249559731
   70      H      -1.4027603786    -2.3928656284    -3.3032483472
   71      C      -2.8918170537    -3.2071594967    -1.9818575714
   72      H      -2.6283556103    -2.5894402441    -1.1230938782
   73      H      -3.9677397239    -3.3824034440    -1.9462599359
   74      H      -2.3904829860    -4.1685912474    -1.8633211405
   75      C       2.7204010934    -0.0378611775     0.0244309555
   76      C       3.4519061883     1.1194350854     0.2929217517
   77      C       4.6604148486     1.0577232829     0.9903512513
   78      H       5.1965615255     1.9805976232     1.1777630311
   79      C       5.1556662609    -0.1606686414     1.4265129796
   80      O       6.3104787024    -0.3177316868     2.1083276754
   81      C       4.4382619514    -1.3245154081     1.1541918482
   82      H       4.8347943956    -2.2762399620     1.4886864508
   83      C       3.2391164608    -1.2699162932     0.4656656422
   84      C       7.0619143483     0.8281131361     2.4240422337
   85      H       7.9331833678     0.4862383295     2.9786938461
   86      H       6.5027329446     1.5294877409     3.0510514683
   87      H       7.4050406346     1.3584900877     1.5302893601
   88      C       2.4913517889    -2.5427409160     0.1826424262
   89      H       3.0338333699    -3.4172170448     0.5406541267
   90      H       1.5103537689    -2.5441966455     0.6618679344
   91      H       2.3219612360    -2.6755301657    -0.8881775960
   92      C       2.9429883810     2.4813629020    -0.1067339636
   93      H       2.2860395524     2.4034947435    -0.9766541627
   94      H       3.7827133786     3.1073466118    -0.4211438103
   95      C       2.1955967642     3.1756549151     1.0297049758
   96      H       1.3218143489     2.5994151201     1.3346944102
   97      H       1.8521502897     4.1651611786     0.7257204749
   98      H       2.8348266195     3.2971402663     1.9052082867
 ----------------------------------------------------------------

   15   -2202.2636918727      5.90e-09  Convergence criterion met
 Total energy in the final basis set =    -2202.2636918727

         TDDFT/TDA Excitation Energies
 ---------------------------------------------------

 Excited state   1: excitation energy (eV) =    1.9006
 Total energy for state  1:                 -2202.19384556 au
    Multiplicity: Triplet
    Trans. Mom.:  0.0000 X   0.0000 Y   0.0000 Z
    Strength   :     0.0000000000
    D(189) --> V(  1) amplitude =  0.2203
    D(190) --> V(  1) amplitude =  0.8875

 Excited state   2: excitation energy (eV) =    2.2511
 Total energy for state  2:                 -2202.18096643 au
    Multiplicity: Triplet
    Trans. Mom.:  0.0000 X   0.0000 Y   0.0000 Z
    Strength   :     0.0000000000
    D(186) --> V(  1) amplitude =  0.5184
    D(186) --> V(  2) amplitude = -0.3567
    D(187) --> V(  1) amplitude =  0.6482
    D(187) --> V(  2) amplitude = -0.2802

 Excited state   3: excitation energy (eV) =    2.4916
 Total energy for state  3:                 -2202.17212788 au
    Multiplicity: Triplet
    Trans. Mom.:  0.0000 X   0.0000 Y   0.0000 Z
    Strength   :     0.0000000000
    D(186) --> V(  1) amplitude =  0.4960
    D(186) --> V(  2) amplitude =  0.3147
    D(187) --> V(  1) amplitude = -0.4414
    D(187) --> V(  2) amplitude = -0.4677

 Excited state   4: excitation energy (eV) =    2.5541
 Total energy for state  4:                 -2202.16982866 au
    Multiplicity: Triplet
    Trans. Mom.:  0.0000 X   0.0000 Y   0.0000 Z
    Strength   :     0.0000000000
    D(183) --> V(  1) amplitude =  0.5973
    D(189) --> V(  1) amplitude = -0.2142
    D(190) --> V(  2) amplitude = -0.5085

 Excited state   5: excitation energy (eV) =    2.6243
 Total energy for state  5:                 -2202.16725089 au
    Multiplicity: Singlet
    Trans. Mom.: -0.5559 X  -0.0022 Y  -0.0730 Z
    Strength   :     0.0202102338
    D(190) --> V(  1) amplitude =  0.9446

 Excited state   6: excitation energy (eV) =    2.7753
 Total energy for state  6:                 -2202.16170167 au
    Multiplicity: Triplet
    Trans. Mom.:  0.0000 X   0.0000 Y   0.0000 Z
    Strength   :     0.0000000000
    D(189) --> V(  1) amplitude =  0.8743
    D(190) --> V(  1) amplitude = -0.2700

 Excited state   7: excitation energy (eV) =    2.8290
 Total energy for state  7:                 -2202.15972785 au
    Multiplicity: Singlet
    Trans. Mom.:  0.3582 X  -0.0024 Y   0.3195 Z
    Strength   :     0.0159677105
    D(189) --> V(  1) amplitude =  0.9348

 Excited state   8: excitation energy (eV) =    2.8895
 Total energy for state  8:                 -2202.15750363 au
    Multiplicity: Triplet
    Trans. Mom.:  0.0000 X   0.0000 Y   0.0000 Z
    Strength   :     0.0000000000
    D(188) --> V(  1) amplitude =  0.9267

 Excited state   9: excitation energy (eV) =    2.9174
 Total energy for state  9:                 -2202.15647970 au
    Multiplicity: Singlet
    Trans. Mom.: -0.1150 X   0.0162 Y   0.0902 Z
    Strength   :     0.0015454726
    D(188) --> V(  1) amplitude =  0.9593

 Excited state  10: excitation energy (eV) =    3.0797
 Total energy for state 10:                 -2202.15051662 au
    Multiplicity: Singlet
    Trans. Mom.: -2.0435 X  -0.0776 Y   3.6788 Z
    Strength   :     1.3366623847
    D(187) --> V(  1) amplitude =  0.9374

 Excited state  11: excitation energy (eV) =    3.3822
 Total energy for state 11:                 -2202.13939993 au
    Multiplicity: Singlet
    Trans. Mom.: -0.7914 X  -0.0286 Y  -0.4504 Z
    Strength   :     0.0687715156
    D(183) --> V(  1) amplitude =  0.5587
    D(190) --> V(  2) amplitude = -0.6598

 Excited state  12: excitation energy (eV) =    3.4145
 Total energy for state 12:                 -2202.13821023 au
    Multiplicity: Singlet
    Trans. Mom.:  0.2994 X  -0.0612 Y  -0.2736 Z
    Strength   :     0.0140769486
    D(186) --> V(  1) amplitude =  0.8973
    D(187) --> V(  2) amplitude = -0.2452

 ---------------------------------------------------

                    Orbital Energies (a.u.)
 --------------------------------------------------------------

 Alpha MOs
 -- Occupied --
-19.526 -19.525 -10.502 -10.502 -10.484 -10.484 -10.469 -10.468
-10.467 -10.467 -10.466 -10.466 -10.466 -10.464 -10.463 -10.463
-10.463 -10.463 -10.462 -10.462 -10.461 -10.461 -10.460 -10.460
-10.460 -10.460 -10.458 -10.458 -10.453 -10.453 -10.453 -10.453
-10.452 -10.452 -10.451 -10.450 -10.449 -10.447 -10.436 -10.436
-10.434 -10.434 -10.434 -10.433 -10.433 -10.433 -10.430 -10.430
-10.424 -10.424 -10.420 -10.419 -10.417 -10.415  -6.946  -6.943
 -1.181  -1.181  -1.016  -1.014  -0.961  -0.955  -0.954  -0.952
 -0.934  -0.933  -0.906  -0.897  -0.882  -0.882  -0.863  -0.857
 -0.854  -0.850  -0.850  -0.846  -0.818  -0.816  -0.815  -0.813
 -0.812  -0.796  -0.774  -0.773  -0.763  -0.762  -0.736  -0.732
 -0.727  -0.717  -0.708  -0.708  -0.688  -0.683  -0.677  -0.667
 -0.657  -0.647  -0.645  -0.638  -0.636  -0.636  -0.599  -0.591
 -0.590  -0.588  -0.583  -0.583  -0.582  -0.575  -0.574  -0.560
 -0.560  -0.542  -0.541  -0.536  -0.533  -0.532  -0.527  -0.522
 -0.515  -0.509  -0.501  -0.500  -0.496  -0.495  -0.494  -0.494
 -0.490  -0.489  -0.485  -0.484  -0.482  -0.481  -0.478  -0.473
 -0.472  -0.471  -0.468  -0.464  -0.462  -0.462  -0.458  -0.456
 -0.445  -0.444  -0.442  -0.436  -0.434  -0.429  -0.426  -0.423
 -0.422  -0.421  -0.419  -0.414  -0.412  -0.408  -0.405  -0.404
 -0.398  -0.398  -0.395  -0.394  -0.392  -0.389  -0.384  -0.383
 -0.374  -0.372  -0.367  -0.365  -0.362  -0.358  -0.355  -0.349
 -0.341  -0.337  -0.324  -0.315  -0.299  -0.295  -0.277  -0.276
 -0.276  -0.263  -0.255  -0.251  -0.249  -0.247

          Ground-State Mulliken Net Atomic Charges

     Atom                 Charge (a.u.)
  ----------------------------------------
      1 C                    -0.151446
      2 C                    -0.399128
      3 H                     0.246764
      4 C                     0.082057
      5 C                     0.099143
      6 C                    -0.402581
      7 H                     0.247941
      8 C                    -0.151980
      9 C                     0.183571
     10 C                    -0.387249
     11 H                     0.242314
     12 C                    -0.065474
     13 C                     0.232157
     14 C                     0.186065
     15 C                    -0.393777
     16 H                     0.242412
     17 C                    -0.225257
     18 H                     0.247036
     19 C                    -0.342781
     20 H                     0.242779
     21 C                    -0.346245
     22 H                     0.243041
     23 C                    -0.223414
     24 H                     0.246601
     25 B                     0.662177
     26 C                    -0.157447
     27 C                    -0.372115
     28 H                     0.244735
     29 C                     0.057298
     30 C                     0.195492
     31 C                    -0.370107
     32 H                     0.246073
     33 C                    -0.223307
     34 H                     0.248671
     35 C                    -0.341673
     36 H                     0.245374
     37 C                     0.231241
     38 C                    -0.089678
     39 C                    -0.339941
     40 H                     0.245282
     41 C                    -0.224123
     42 H                     0.248839
     43 C                    -0.363626
     44 H                     0.245851
     45 C                     0.188978
     46 C                     0.051958
     47 C                    -0.373703
     48 H                     0.242106
     49 C                    -0.155799
     50 B                     0.667912
     51 C                    -0.223412
     52 C                     0.075376
     53 C                    -0.442353
     54 H                     0.243345
     55 C                     0.392957
     56 O                    -0.464189
     57 C                    -0.398904
     58 H                     0.234321
     59 C                     0.054302
     60 C                    -0.420830
     61 H                     0.248150
     62 H                     0.214096
     63 H                     0.213742
     64 C                    -0.768586
     65 H                     0.247201
     66 H                     0.248401
     67 H                     0.247665
     68 C                    -0.550572
     69 H                     0.235182
     70 H                     0.253376
     71 C                    -0.654324
     72 H                     0.241225
     73 H                     0.218711
     74 H                     0.224119
     75 C                    -0.225251
     76 C                     0.070346
     77 C                    -0.436017
     78 H                     0.243574
     79 C                     0.393723
     80 O                    -0.464312
     81 C                    -0.398290
     82 H                     0.234774
     83 C                     0.050847
     84 C                    -0.420800
     85 H                     0.248345
     86 H                     0.214114
     87 H                     0.213873
     88 C                    -0.768192
     89 H                     0.247552
     90 H                     0.248155
     91 H                     0.247148
     92 C                    -0.549110
     93 H                     0.253270
     94 H                     0.235333
     95 C                    -0.650609
     96 H                     0.236914
     97 H                     0.224470
     98 H                     0.218122
  ----------------------------------------
  Sum of atomic charges =    -0.000000

                    Cartesian Multipole Moments
 -----------------------------------------------------------------
    Charge (ESU x 10^10)
                -0.0000
    Dipole Moment (Debye)
         X       0.6447      Y       0.1720      Z      -0.8349
       Tot       1.0688
    Quadrupole Moments (Debye-Ang)
        XX    -268.8136     XY      20.5521     YY    -322.8610
        XZ      -5.1121     YZ      10.1367     ZZ    -259.5104

 Total job time:  16133.33s(wall), 46306.14s(cpu)
        *  Thank you very much for using Q-Chem.  Have a nice day.  *
