 Q-Chem 5.1, Q-Chem, Inc., Pleasanton, CA (2018)
 Q-Chem 5.1.1 for Intel X86 EM64T Linux

User input:
--------------------------------------------------------------
$solvent
dielectric      4.33
dielectric_infi 1.83
$end

$rem
threads 8
jobtype	sp
method PBEh-3c
basis def2-mSVP
mem_static	1024
mem_total	14000
sym_ignore	true
cis_n_roots             2
cis_singlets            false
cis_triplets		true
rpa                     false
calc_soc 		true
cis_moments             true
cis_relaxed_density	true
solvent_method		pcm
$end

$pcm
StateSpecific   1
ChargeSeparation Excited
$end

$molecule
read utleopt_eth.mol
$end

--------------------------------------------------------------

   15   -2202.2702303780      5.15e-09  Convergence criterion met
 Total energy in the final basis set =    -2202.2702303780
 Total job time:  5168.08s(wall), 20157.16s(cpu)
        *  Thank you very much for using Q-Chem.  Have a nice day.  *
 Q-Chem 5.1, Q-Chem, Inc., Pleasanton, CA (2018)
 Q-Chem 5.1.1 for Intel X86 EM64T Linux

User input:
--------------------------------------------------------------
$rem
threads 8
jobtype sp
method PBEh-3c
basis def2-mSVP
mem_static      1024
mem_total       14000
sym_ignore      true
cis_n_roots             6
cis_singlets            true
cis_triplets            true
rpa                     false
calc_soc                true
cis_moments             true
cis_relaxed_density     true
solvent_method          pcm
$end

$molecule
read
$end

$pcm
statespecific           Marcus
$end

$solvent
dielectric      4.33
dielectric_infi 1.83
$end

--------------------------------------------------------------

             Standard Nuclear Orientation (Angstroms)
    I     Atom           X                Y                Z
 ----------------------------------------------------------------
    1      C       0.0000000000     0.0000000000     0.0000000000
    2      C       0.0000000000     0.0000000000     1.4044700000
    3      H       0.9436489158     0.0000000000     1.9394147604
    4      C      -1.1872554266     0.0054485330     2.0995096942
    5      C      -2.4305947195     0.0092188431     1.4112049999
    6      C      -2.4497279780    -0.0014191006     0.0347080712
    7      H      -3.3950918680    -0.0098202876    -0.4966318216
    8      C      -1.2446550741    -0.0044798734    -0.6933960819
    9      C      -1.4561550763     0.0123551553     3.5341555749
   10      C      -0.6808138584     0.0106251075     4.6650757036
   11      H       0.4013370366     0.0007600720     4.6176852623
   12      C      -2.8560551278     0.0236737868     3.6702872160
   13      C      -3.5167473052     0.0361474591     4.8941663810
   14      C      -3.4958578943     0.0221303435     2.4154358814
   15      C      -4.8652408739     0.0348600887     2.3850145571
   16      H      -5.4165383209     0.0354141162     1.4531086082
   17      C      -1.3268291789     0.0216845024     5.9237992093
   18      H      -0.7168580094     0.0201420599     6.8179013539
   19      C      -2.6974300390     0.0346588547     6.0492469418
   20      H      -3.1492083068     0.0434281131     7.0336991091
   21      C      -4.9305714124     0.0489261137     4.8344115419
   22      H      -5.5119246810     0.0594545267     5.7481648771
   23      C      -5.5675846116     0.0483748848     3.6145856610
   24      H      -6.6493357964     0.0590052152     3.5885362474
   25      B      -1.2866643910    -0.0129801664    -2.2376954161
   26      C       0.0352940392     0.0422202234    -3.0225586595
   27      C       0.0121983145     0.1102533749    -4.4105624263
   28      H      -0.9390611208     0.1284164701    -4.9301512186
   29      C       1.1944596129     0.1490596786    -5.1293469550
   30      C       1.4818430262     0.2170275709    -6.5227553128
   31      C       0.7269375305     0.2795423788    -7.6874454063
   32      H      -0.3548084880     0.2832155195    -7.6630632751
   33      C       1.4040141875     0.3409081446    -8.9137569846
   34      H       0.8209132275     0.3898424858    -9.8241777267
   35      C       2.7871467011     0.3433684633    -9.0111156568
   36      H       3.2567362807     0.3936560430    -9.9855815180
   37      C       3.5868079202     0.2823028994    -7.8445283319
   38      C       2.8961151293     0.2202747779    -6.6352268618
   39      C       5.0014948832     0.2790957413    -7.7577439258
   40      H       5.5972565816     0.3257560631    -8.6609024614
   41      C       5.6322454400     0.2166950935    -6.5231943187
   42      H       6.7142644257     0.2155168335    -6.4924613032
   43      C       4.9262559430     0.1553756225    -5.3160257335
   44      H       5.4592303769     0.1083304536    -4.3751888417
   45      C       3.5344138212     0.1571288832    -5.3669359400
   46      C       2.4993521089     0.1120591699    -4.4013171278
   47      C       2.5201862082     0.0555012592    -3.0129798600
   48      H       3.4697738024     0.0378428943    -2.4889715372
   49      C       1.3352881395     0.0335762934    -2.2966261839
   50      B       1.3519218674     0.0057079657    -0.7576713666
   51      C      -2.6537865676    -0.0442421917    -3.0126643737
   52      C      -3.1854752764    -1.2344152544    -3.5101815507
   53      C      -4.4044695206    -1.2417625037    -4.1910077274
   54      H      -4.7851034719    -2.1856532095    -4.5617498377
   55      C      -5.0998932431    -0.0570537081    -4.3874933819
   56      O      -6.2810702284     0.0386779634    -5.0340203187
   57      C      -4.5676502161     1.1383935506    -3.9052946297
   58      H      -5.1095255607     2.0621310062    -4.0744234525
   59      C      -3.3618256230     1.1515642372    -3.2258838629
   60      C      -6.8658626546    -1.1388710334    -5.5370687256
   61      H      -7.8038216635    -0.8457995371    -6.0035970315
   62      H      -7.0807636351    -1.8634888079    -4.7459372643
   63      H      -6.2375556749    -1.6225840078    -6.2911433867
   64      C      -2.8008477313     2.4547017993    -2.7253689996
   65      H      -3.4200860119     3.3012756309    -3.0206586901
   66      H      -2.7246496804     2.4656856259    -1.6361141803
   67      H      -1.7946575782     2.6305711779    -3.1127378707
   68      C      -2.4778503661    -2.5465958674    -3.2862867277
   69      H      -2.6916866728    -3.2244720079    -4.1166894863
   70      H      -1.3946972661    -2.3969699118    -3.2935508697
   71      C      -2.8831371503    -3.2152404558    -1.9742199578
   72      H      -2.6254796789    -2.5938665494    -1.1161569713
   73      H      -3.9581217772    -3.3969471234    -1.9413823438
   74      H      -2.3764728083    -4.1734929630    -1.8525167853
   75      C       2.7206344219    -0.0375307869     0.0244761527
   76      C       3.4504963130     1.1197317020     0.2986621103
   77      C       4.6590010798     1.0570645848     0.9965517733
   78      H       5.1940133749     1.9797558172     1.1881356738
   79      C       5.1558025304    -0.1627287198     1.4278164813
   80      O       6.3106060800    -0.3205646690     2.1093270841
   81      C       4.4399968826    -1.3267703669     1.1500260343
   82      H       4.8365039346    -2.2801006518     1.4805673050
   83      C       3.2408066490    -1.2708259096     0.4607654804
   84      C       7.0558876295     0.8278787383     2.4391602978
   85      H       7.9250345800     0.4854258770     2.9965796732
   86      H       6.4886953164     1.5210338680     3.0675388350
   87      H       7.4015173559     1.3659812939     1.5514056149
   88      C       2.4949766830    -2.5437736248     0.1728820722
   89      H       3.0386163097    -3.4186789270     0.5281112691
   90      H       1.5138484538    -2.5480755308     0.6519514802
   91      H       2.3257760385    -2.6729593312    -0.8984545521
   92      C       2.9404845587     2.4828949980    -0.0954848259
   93      H       2.2755861528     2.4069459039    -0.9595099807
   94      H       3.7784880107     3.1079907086    -0.4159322971
   95      C       2.2042486651     3.1773105166     1.0482273440
   96      H       1.3342859370     2.6002743584     1.3629332397
   97      H       1.8569598523     4.1662229472     0.7466784246
   98      H       2.8527148686     3.3004933658     1.9166951812
 ----------------------------------------------------------------

   15   -2202.2700683526      5.88e-09  Convergence criterion met
 Total energy in the final basis set =    -2202.2700683526

         TDDFT/TDA Excitation Energies
 ---------------------------------------------------

 Excited state   1: excitation energy (eV) =    1.9043
 Total energy for state  1:                 -2202.20008622 au
    Multiplicity: Triplet
    Trans. Mom.:  0.0000 X   0.0000 Y   0.0000 Z
    Strength   :     0.0000000000
    D(190) --> V(  1) amplitude =  0.9006

 Excited state   2: excitation energy (eV) =    2.2516
 Total energy for state  2:                 -2202.18732414 au
    Multiplicity: Triplet
    Trans. Mom.:  0.0000 X   0.0000 Y   0.0000 Z
    Strength   :     0.0000000000
    D(186) --> V(  1) amplitude = -0.4757
    D(186) --> V(  2) amplitude =  0.3420
    D(187) --> V(  1) amplitude =  0.6768
    D(187) --> V(  2) amplitude = -0.3034

 Excited state   3: excitation energy (eV) =    2.4917
 Total energy for state  3:                 -2202.17850115 au
    Multiplicity: Triplet
    Trans. Mom.:  0.0000 X   0.0000 Y   0.0000 Z
    Strength   :     0.0000000000
    D(186) --> V(  1) amplitude =  0.5276
    D(186) --> V(  2) amplitude =  0.3370
    D(187) --> V(  1) amplitude =  0.4154
    D(187) --> V(  2) amplitude =  0.4459

 Excited state   4: excitation energy (eV) =    2.5631
 Total energy for state  4:                 -2202.17587503 au
    Multiplicity: Triplet
    Trans. Mom.:  0.0000 X   0.0000 Y   0.0000 Z
    Strength   :     0.0000000000
    D(183) --> V(  1) amplitude =  0.5692
    D(184) --> V(  1) amplitude =  0.2699
    D(190) --> V(  2) amplitude = -0.5159

 Excited state   5: excitation energy (eV) =    2.6302
 Total energy for state  5:                 -2202.17341153 au
    Multiplicity: Singlet
    Trans. Mom.: -0.5438 X  -0.0058 Y  -0.0591 Z
    Strength   :     0.0192803582
    D(190) --> V(  1) amplitude =  0.9546

 Excited state   6: excitation energy (eV) =    2.7871
 Total energy for state  6:                 -2202.16764599 au
    Multiplicity: Triplet
    Trans. Mom.:  0.0000 X   0.0000 Y   0.0000 Z
    Strength   :     0.0000000000
    D(189) --> V(  1) amplitude =  0.8909

 Excited state   7: excitation energy (eV) =    2.8419
 Total energy for state  7:                 -2202.16563226 au
    Multiplicity: Singlet
    Trans. Mom.:  0.3381 X  -0.0016 Y   0.3171 Z
    Strength   :     0.0149584828
    D(189) --> V(  1) amplitude =  0.9459

 Excited state   8: excitation energy (eV) =    2.9021
 Total energy for state  8:                 -2202.16341939 au
    Multiplicity: Triplet
    Trans. Mom.:  0.0000 X   0.0000 Y   0.0000 Z
    Strength   :     0.0000000000
    D(188) --> V(  1) amplitude =  0.9264

 Excited state   9: excitation energy (eV) =    2.9305
 Total energy for state  9:                 -2202.16237627 au
    Multiplicity: Singlet
    Trans. Mom.: -0.1062 X   0.0181 Y   0.0847 Z
    Strength   :     0.0013485699
    D(188) --> V(  1) amplitude =  0.9594

 Excited state  10: excitation energy (eV) =    3.0903
 Total energy for state 10:                 -2202.15650195 au
    Multiplicity: Singlet
    Trans. Mom.: -1.9846 X  -0.0855 Y   3.5699 Z
    Strength   :     1.2636071076
    D(187) --> V(  1) amplitude =  0.9427

 Excited state  11: excitation energy (eV) =    3.3972
 Total energy for state 11:                 -2202.14522535 au
    Multiplicity: Singlet
    Trans. Mom.: -0.7395 X  -0.0331 Y  -0.4483 Z
    Strength   :     0.0623334730
    D(183) --> V(  1) amplitude =  0.5210
    D(184) --> V(  1) amplitude =  0.2564
    D(190) --> V(  2) amplitude = -0.6652

 Excited state  12: excitation energy (eV) =    3.4265
 Total energy for state 12:                 -2202.14414516 au
    Multiplicity: Singlet
    Trans. Mom.: -0.3337 X   0.0644 Y   0.3098 Z
    Strength   :     0.0177526156
    D(186) --> V(  1) amplitude =  0.9002
    D(187) --> V(  2) amplitude =  0.2281

 ---------------------------------------------------

                    Orbital Energies (a.u.)
 --------------------------------------------------------------

 Alpha MOs
 -- Occupied --
-19.527 -19.527 -10.504 -10.504 -10.483 -10.483 -10.469 -10.468
-10.468 -10.467 -10.467 -10.466 -10.465 -10.465 -10.465 -10.464
-10.464 -10.464 -10.463 -10.463 -10.462 -10.461 -10.461 -10.461
-10.460 -10.460 -10.458 -10.458 -10.455 -10.455 -10.454 -10.454
-10.454 -10.454 -10.453 -10.452 -10.450 -10.448 -10.438 -10.437
-10.436 -10.436 -10.435 -10.434 -10.434 -10.434 -10.432 -10.432
-10.426 -10.426 -10.421 -10.420 -10.419 -10.417  -6.947  -6.945
 -1.182  -1.182  -1.017  -1.014  -0.962  -0.957  -0.956  -0.953
 -0.934  -0.934  -0.907  -0.898  -0.884  -0.883  -0.864  -0.858
 -0.855  -0.852  -0.850  -0.847  -0.819  -0.818  -0.816  -0.814
 -0.813  -0.797  -0.775  -0.773  -0.764  -0.764  -0.736  -0.733
 -0.728  -0.718  -0.709  -0.709  -0.689  -0.684  -0.678  -0.668
 -0.658  -0.648  -0.646  -0.639  -0.638  -0.637  -0.599  -0.592
 -0.592  -0.588  -0.584  -0.583  -0.583  -0.576  -0.575  -0.562
 -0.561  -0.543  -0.542  -0.536  -0.533  -0.533  -0.527  -0.523
 -0.516  -0.510  -0.502  -0.501  -0.498  -0.496  -0.495  -0.495
 -0.491  -0.490  -0.487  -0.484  -0.483  -0.482  -0.478  -0.474
 -0.473  -0.472  -0.469  -0.465  -0.464  -0.463  -0.459  -0.456
 -0.446  -0.445  -0.443  -0.437  -0.435  -0.430  -0.428  -0.424
 -0.423  -0.423  -0.420  -0.415  -0.414  -0.409  -0.406  -0.404
 -0.398  -0.398  -0.396  -0.394  -0.393  -0.390  -0.385  -0.384
 -0.376  -0.374  -0.368  -0.367  -0.363  -0.359  -0.356  -0.350
 -0.342  -0.338  -0.326  -0.317  -0.300  -0.296  -0.279  -0.278
 -0.278  -0.264  -0.257  -0.253  -0.251  -0.249

          Ground-State Mulliken Net Atomic Charges

     Atom                 Charge (a.u.)
  ----------------------------------------
      1 C                    -0.152253
      2 C                    -0.399303
      3 H                     0.249122
      4 C                     0.077743
      5 C                     0.094755
      6 C                    -0.402793
      7 H                     0.250445
      8 C                    -0.152319
      9 C                     0.179026
     10 C                    -0.389810
     11 H                     0.249718
     12 C                    -0.066228
     13 C                     0.224000
     14 C                     0.181445
     15 C                    -0.396215
     16 H                     0.249847
     17 C                    -0.232104
     18 H                     0.254814
     19 C                    -0.345677
     20 H                     0.251510
     21 C                    -0.349059
     22 H                     0.251763
     23 C                    -0.230338
     24 H                     0.254342
     25 B                     0.659106
     26 C                    -0.157011
     27 C                    -0.373119
     28 H                     0.247342
     29 C                     0.055005
     30 C                     0.191911
     31 C                    -0.373449
     32 H                     0.253064
     33 C                    -0.230350
     34 H                     0.255985
     35 C                    -0.344576
     36 H                     0.253638
     37 C                     0.223556
     38 C                    -0.088794
     39 C                    -0.342637
     40 H                     0.253654
     41 C                    -0.230810
     42 H                     0.256372
     43 C                    -0.366543
     44 H                     0.253093
     45 C                     0.185414
     46 C                     0.049853
     47 C                    -0.375039
     48 H                     0.245136
     49 C                    -0.155478
     50 B                     0.664835
     51 C                    -0.222700
     52 C                     0.071359
     53 C                    -0.446741
     54 H                     0.251782
     55 C                     0.389552
     56 O                    -0.468187
     57 C                    -0.405433
     58 H                     0.238882
     59 C                     0.051537
     60 C                    -0.426351
     61 H                     0.251598
     62 H                     0.218253
     63 H                     0.218082
     64 C                    -0.771584
     65 H                     0.250983
     66 H                     0.248547
     67 H                     0.248874
     68 C                    -0.551197
     69 H                     0.239299
     70 H                     0.253673
     71 C                    -0.657697
     72 H                     0.238999
     73 H                     0.220757
     74 H                     0.226726
     75 C                    -0.224688
     76 C                     0.066875
     77 C                    -0.439975
     78 H                     0.252074
     79 C                     0.390315
     80 O                    -0.468342
     81 C                    -0.405053
     82 H                     0.239352
     83 C                     0.047459
     84 C                    -0.426351
     85 H                     0.251767
     86 H                     0.218306
     87 H                     0.218272
     88 C                    -0.771193
     89 H                     0.251417
     90 H                     0.248159
     91 H                     0.248532
     92 C                    -0.549293
     93 H                     0.253225
     94 H                     0.239253
     95 C                    -0.654014
     96 H                     0.234715
     97 H                     0.226979
     98 H                     0.220605
  ----------------------------------------
  Sum of atomic charges =    -0.000000

                    Cartesian Multipole Moments
 -----------------------------------------------------------------
    Charge (ESU x 10^10)
                -0.0000
    Dipole Moment (Debye)
         X       0.7428      Y       0.2121      Z      -0.9215
       Tot       1.2025
    Quadrupole Moments (Debye-Ang)
        XX    -265.5787     XY      22.1357     YY    -321.9669
        XZ      -6.2704     YZ      10.7499     ZZ    -254.6864

 Total job time:  10672.49s(wall), 36896.97s(cpu)
        *  Thank you very much for using Q-Chem.  Have a nice day.  *
