 Q-Chem 5.1, Q-Chem, Inc., Pleasanton, CA (2018)
 Q-Chem 5.1.1 for Intel X86 EM64T Linux

User input:
--------------------------------------------------------------
$solvent
dielectric      1.0001
dielectric_infi 1.00009
$end

$rem
threads 8
jobtype	sp
method PBEh-3c
basis def2-mSVP
mem_static	1024
mem_total	14000
sym_ignore	true
cis_n_roots             2
cis_singlets            false
cis_triplets		true
rpa                     false
calc_soc 		true
cis_moments             true
cis_relaxed_density	true
solvent_method		pcm
$end

$pcm
StateSpecific   1
ChargeSeparation Excited
$end

$molecule
read utleopt_vac.mol
$end

--------------------------------------------------------------

   15   -2202.2460856857      6.92e-09  Convergence criterion met
 Total energy in the final basis set =    -2202.2460856857

         TDDFT/TDA Excitation Energies
 ---------------------------------------------------

 Excited state   1: excitation energy (eV) =    1.8714
 Total energy for state  1:                 -2202.17731313 au
    Multiplicity: Triplet
    Trans. Mom.:  0.0000 X   0.0000 Y   0.0000 Z
    Strength   :     0.0000000000
    D(190) --> V(  1) amplitude =  0.8921

 Excited state   2: excitation energy (eV) =    2.2447
 Total energy for state  2:                 -2202.16359534 au
    Multiplicity: Triplet
    Trans. Mom.:  0.0000 X   0.0000 Y   0.0000 Z
    Strength   :     0.0000000000
    D(186) --> V(  1) amplitude = -0.5372
    D(186) --> V(  2) amplitude =  0.3590
    D(187) --> V(  1) amplitude =  0.6331
    D(187) --> V(  2) amplitude = -0.2727

 ---------------------------------------------------

                    Orbital Energies (a.u.)
 --------------------------------------------------------------

 Alpha MOs
 -- Occupied --
-19.522 -19.522 -10.498 -10.497 -10.488 -10.488 -10.467 -10.467
-10.465 -10.465 -10.464 -10.463 -10.462 -10.461 -10.461 -10.461
-10.460 -10.460 -10.460 -10.459 -10.459 -10.459 -10.459 -10.458
-10.458 -10.457 -10.457 -10.457 -10.449 -10.449 -10.449 -10.448
-10.448 -10.447 -10.446 -10.446 -10.446 -10.443 -10.432 -10.432
-10.431 -10.430 -10.430 -10.430 -10.429 -10.429 -10.426 -10.425
-10.422 -10.422 -10.418 -10.416 -10.413 -10.411  -6.941  -6.938
 -1.180  -1.179  -1.012  -1.011  -0.957  -0.952  -0.950  -0.948
 -0.933  -0.931  -0.903  -0.894  -0.879  -0.878  -0.860  -0.854
 -0.851  -0.849  -0.848  -0.844  -0.815  -0.814  -0.813  -0.811
 -0.809  -0.793  -0.773  -0.771  -0.760  -0.760  -0.735  -0.730
 -0.725  -0.715  -0.705  -0.704  -0.686  -0.680  -0.675  -0.664
 -0.655  -0.645  -0.642  -0.636  -0.633  -0.633  -0.597  -0.591
 -0.588  -0.587  -0.582  -0.581  -0.581  -0.574  -0.572  -0.558
 -0.557  -0.540  -0.539  -0.533  -0.533  -0.532  -0.526  -0.521
 -0.513  -0.506  -0.499  -0.498  -0.495  -0.494  -0.493  -0.491
 -0.488  -0.487  -0.481  -0.480  -0.480  -0.479  -0.477  -0.472
 -0.471  -0.468  -0.465  -0.463  -0.460  -0.460  -0.456  -0.455
 -0.443  -0.442  -0.440  -0.433  -0.430  -0.426  -0.424  -0.420
 -0.419  -0.418  -0.417  -0.412  -0.410  -0.406  -0.403  -0.402
 -0.397  -0.395  -0.393  -0.392  -0.390  -0.387  -0.382  -0.380
 -0.370  -0.369  -0.364  -0.362  -0.358  -0.354  -0.351  -0.344
 -0.336  -0.332  -0.320  -0.311  -0.297  -0.292  -0.272  -0.271
 -0.271  -0.259  -0.252  -0.247  -0.245  -0.243

          Ground-State Mulliken Net Atomic Charges

     Atom                 Charge (a.u.)
  ----------------------------------------
      1 C                    -0.148680
      2 C                    -0.399804
      3 H                     0.238278
      4 C                     0.093993
      5 C                     0.111330
      6 C                    -0.402792
      7 H                     0.239474
      8 C                    -0.150394
      9 C                     0.195160
     10 C                    -0.379583
     11 H                     0.220865
     12 C                    -0.063294
     13 C                     0.253184
     14 C                     0.197872
     15 C                    -0.386436
     16 H                     0.220936
     17 C                    -0.205754
     18 H                     0.225848
     19 C                    -0.333164
     20 H                     0.219252
     21 C                    -0.336906
     22 H                     0.219526
     23 C                    -0.203722
     24 H                     0.225513
     25 B                     0.666414
     26 C                    -0.155791
     27 C                    -0.368791
     28 H                     0.235576
     29 C                     0.068333
     30 C                     0.208100
     31 C                    -0.363306
     32 H                     0.224387
     33 C                    -0.203680
     34 H                     0.227246
     35 C                    -0.333148
     36 H                     0.221467
     37 C                     0.252295
     38 C                    -0.088061
     39 C                    -0.331182
     40 H                     0.221356
     41 C                    -0.204756
     42 H                     0.227326
     43 C                    -0.356636
     44 H                     0.223844
     45 C                     0.201741
     46 C                     0.063098
     47 C                    -0.369413
     48 H                     0.232021
     49 C                    -0.154698
     50 B                     0.672114
     51 C                    -0.224665
     52 C                     0.085503
     53 C                    -0.429963
     54 H                     0.220858
     55 C                     0.401374
     56 O                    -0.453781
     57 C                    -0.381071
     58 H                     0.220225
     59 C                     0.062064
     60 C                    -0.405584
     61 H                     0.238483
     62 H                     0.203321
     63 H                     0.202642
     64 C                    -0.759934
     65 H                     0.236223
     66 H                     0.246640
     67 H                     0.244559
     68 C                    -0.549728
     69 H                     0.224818
     70 H                     0.254007
     71 C                    -0.644904
     72 H                     0.245399
     73 H                     0.213447
     74 H                     0.217273
     75 C                    -0.225751
     76 C                     0.079591
     77 C                    -0.423585
     78 H                     0.221024
     79 C                     0.402172
     80 O                    -0.453883
     81 C                    -0.380332
     82 H                     0.220646
     83 C                     0.059098
     84 C                    -0.405437
     85 H                     0.238739
     86 H                     0.203278
     87 H                     0.202613
     88 C                    -0.759529
     89 H                     0.236584
     90 H                     0.246577
     91 H                     0.244055
     92 C                    -0.548467
     93 H                     0.253771
     94 H                     0.225399
     95 C                    -0.640618
     96 H                     0.240253
     97 H                     0.218020
     98 H                     0.212017
  ----------------------------------------
  Sum of atomic charges =    -0.000000

                    Cartesian Multipole Moments
 -----------------------------------------------------------------
    Charge (ESU x 10^10)
                -0.0000
    Dipole Moment (Debye)
         X       0.5120      Y       0.1283      Z      -0.6504
       Tot       0.8377
    Quadrupole Moments (Debye-Ang)
        XX    -277.9133     XY      17.2610     YY    -324.9578
        XZ      -2.9083     YZ       8.4478     ZZ    -271.9143

 Total job time:  6036.85s(wall), 24434.23s(cpu)
        *  Thank you very much for using Q-Chem.  Have a nice day.  *
 Q-Chem 5.1, Q-Chem, Inc., Pleasanton, CA (2018)
 Q-Chem 5.1.1 for Intel X86 EM64T Linux

User input:
--------------------------------------------------------------
$rem
threads 8
jobtype sp
method PBEh-3c
basis def2-mSVP
mem_static      1024
mem_total       14000
sym_ignore      true
cis_n_roots             6
cis_singlets            true
cis_triplets            true
rpa                     false
calc_soc                true
cis_moments             true
cis_relaxed_density     true
solvent_method          pcm
$end

$molecule
read
$end

$pcm
statespecific           Marcus
$end

$solvent
dielectric      1.0001
dielectric_infi 1.00009
$end

--------------------------------------------------------------

             Standard Nuclear Orientation (Angstroms)
    I     Atom           X                Y                Z
 ----------------------------------------------------------------
    1      C       0.0000000000     0.0000000000     0.0000000000
    2      C       0.0000000000     0.0000000000     1.4037640000
    3      H       0.9457116953     0.0000000000     1.9353637962
    4      C      -1.1871873816     0.0046155801     2.0980191059
    5      C      -2.4296509182     0.0078674812     1.4097466011
    6      C      -2.4485871289    -0.0013933084     0.0336560426
    7      H      -3.3917453179    -0.0104193723    -0.5018425006
    8      C      -1.2436112876    -0.0036337377    -0.6932400644
    9      C      -1.4567922878     0.0094088869     3.5323031383
   10      C      -0.6826985528     0.0067612019     4.6629136850
   11      H       0.3992998175    -0.0018282510     4.6153580757
   12      C      -2.8561268910     0.0184521550     3.6687262434
   13      C      -3.5168057546     0.0274177716     4.8918307215
   14      C      -3.4947365482     0.0178257379     2.4138476986
   15      C      -4.8631855550     0.0277588802     2.3837042390
   16      H      -5.4137254267     0.0288564076     1.4515275457
   17      C      -1.3281132313     0.0148650658     5.9209900262
   18      H      -0.7186145786     0.0126495249     6.8152858680
   19      C      -2.6976699736     0.0253099896     6.0459792900
   20      H      -3.1489067849     0.0315268308     7.0305781787
   21      C      -4.9297428081     0.0372644964     4.8310509046
   22      H      -5.5119795060     0.0449053385     5.7441623786
   23      C      -5.5659590475     0.0376477559     3.6120441360
   24      H      -6.6476160232     0.0460263590     3.5859550223
   25      B      -1.2850325652    -0.0106182388    -2.2372047498
   26      C       0.0372780111     0.0409613216    -3.0223875259
   27      C       0.0140537527     0.1091056908    -4.4088135820
   28      H      -0.9396174667     0.1315716987    -4.9240851583
   29      C       1.1969991365     0.1407443722    -5.1284760536
   30      C       1.4848194425     0.2057167214    -6.5202372143
   31      C       0.7306555199     0.2731353048    -7.6855659042
   32      H      -0.3508328100     0.2851746994    -7.6609689031
   33      C       1.4069090819     0.3283654254    -8.9106424453
   34      H       0.8243681820     0.3810567505    -9.8210943525
   35      C       2.7896895475     0.3205400161    -9.0083035529
   36      H       3.2583690400     0.3665896950    -9.9833068805
   37      C       3.5895474472     0.2546306062    -7.8433397995
   38      C       2.8987858879     0.1985464948    -6.6336502119
   39      C       5.0031241939     0.2412606706    -7.7564305965
   40      H       5.5995017656     0.2829467740    -8.6593156013
   41      C       5.6335251416     0.1749382470    -6.5225307935
   42      H       6.7154260836     0.1657232149    -6.4923159949
   43      C       4.9279527553     0.1196593859    -5.3164079539
   44      H       5.4609607467     0.0689661489    -4.3759913102
   45      C       3.5361774589     0.1316720817    -5.3659336305
   46      C       2.5016908809     0.0949971555    -4.4002669739
   47      C       2.5213105024     0.0402212965    -3.0117264618
   48      H       3.4680380702     0.0166259939    -2.4825476931
   49      C       1.3364706358     0.0274720163    -2.2966150837
   50      B       1.3518972844     0.0026069315    -0.7570301381
   51      C      -2.6506000906    -0.0357102674    -3.0130137210
   52      C      -3.1849905714    -1.2221133700    -3.5144244373
   53      C      -4.4022581219    -1.2218621256    -4.1967909648
   54      H      -4.7853920696    -2.1634714945    -4.5706264068
   55      C      -5.0924588257    -0.0346697530    -4.3906769804
   56      O      -6.2721291980     0.0687999162    -5.0388981930
   57      C      -4.5571256537     1.1565528877    -3.9046422530
   58      H      -5.0975857097     2.0803889249    -4.0741077582
   59      C      -3.3537054335     1.1632752085    -3.2236492243
   60      C      -6.8587529738    -1.0990790966    -5.5448891952
   61      H      -7.7944235915    -0.8004980974    -6.0132408306
   62      H      -7.0811571253    -1.8277481966    -4.7582216425
   63      H      -6.2328978546    -1.5861521226    -6.3002717154
   64      C      -2.7861908728     2.4618751923    -2.7190809956
   65      H      -3.4038756110     3.3121055375    -3.0068004279
   66      H      -2.7034920561     2.4678212457    -1.6303926474
   67      H      -1.7820153632     2.6369883670    -3.1117916538
   68      C      -2.4819035253    -2.5368477293    -3.2921634538
   69      H      -2.6997240269    -3.2138531269    -4.1225517225
   70      H      -1.3982072823    -2.3914298813    -3.3045095371
   71      C      -2.8847568015    -3.2037618291    -1.9787593591
   72      H      -2.6173426972    -2.5859712083    -1.1214514994
   73      H      -3.9609335646    -3.3757213111    -1.9395987399
   74      H      -2.3860352668    -4.1664919017    -1.8600621363
   75      C       2.7197596599    -0.0435500700     0.0243150750
   76      C       3.4574790641     1.1100123561     0.2892868827
   77      C       4.6651872678     1.0427293970     0.9865465611
   78      H       5.2064071315     1.9632605021     1.1706221838
   79      C       5.1531808228    -0.1768451576     1.4258635717
   80      O       6.3073855257    -0.3396765952     2.1073718885
   81      C       4.4293756356    -1.3366744160     1.1573427433
   82      H       4.8224164207    -2.2882869989     1.4950144779
   83      C       3.2314663016    -1.2772737521     0.4688885980
   84      C       7.0613175183     0.7991185735     2.4239535615
   85      H       7.9293138837     0.4534861858     2.9818063110
   86      H       6.5051820952     1.5055147795     3.0491546372
   87      H       7.4117260274     1.3290255859     1.5319074613
   88      C       2.4764511222    -2.5461379354     0.1879656384
   89      H       3.0128698748    -3.4229279261     0.5492558711
   90      H       1.4944198156    -2.5410091023     0.6648594061
   91      H       2.3092528696    -2.6811509896    -0.8828596597
   92      C       2.9548699787     2.4735456460    -0.1122850995
   93      H       2.3061548564     2.3987759416    -0.9886348694
   94      H       3.7985480634     3.0983421286    -0.4187882018
   95      C       2.1986147042     3.1670145060     1.0185895001
   96      H       1.3197040049     2.5932362639     1.3127042974
   97      H       1.8618308286     4.1590400463     0.7154811515
   98      H       2.8290871054     3.2823697122     1.9011058596
 ----------------------------------------------------------------
