 Q-Chem 5.1, Q-Chem, Inc., Pleasanton, CA (2018)
 Q-Chem 5.1.1 for Intel X86 EM64T Linux

User input:
--------------------------------------------------------------
$solvent
dielectric      2.03
dielectric_infi 2.02
$end

$rem
threads 8
jobtype	sp
method PBEh-3c
basis def2-mSVP
mem_static	1024
mem_total	14000
sym_ignore	true
cis_n_roots             2
cis_singlets            false
cis_triplets		true
rpa                     false
calc_soc 		true
cis_moments             true
cis_relaxed_density	true
solvent_method		pcm
$end

$pcm
StateSpecific   1
ChargeSeparation Excited
$end

$molecule
read utleopt_chx.mol
$end

--------------------------------------------------------------

   15   -2202.2613171986      6.00e-09  Convergence criterion met
 Total energy in the final basis set =    -2202.2613171986
 Total job time:  4796.09s(wall), 19393.31s(cpu)
        *  Thank you very much for using Q-Chem.  Have a nice day.  *
 Q-Chem 5.1, Q-Chem, Inc., Pleasanton, CA (2018)
 Q-Chem 5.1.1 for Intel X86 EM64T Linux

User input:
--------------------------------------------------------------
$rem
threads 8
jobtype sp
method PBEh-3c
basis def2-mSVP
mem_static      1024
mem_total       14000
sym_ignore      true
cis_n_roots             6
cis_singlets            true
cis_triplets            true
rpa                     false
calc_soc                true
cis_moments             true
cis_relaxed_density     true
solvent_method          pcm
$end

$molecule
read
$end

$pcm
statespecific           Marcus
$end

$solvent
dielectric      2.03
dielectric_infi 2.02
$end

--------------------------------------------------------------

             Standard Nuclear Orientation (Angstroms)
    I     Atom           X                Y                Z
 ----------------------------------------------------------------
    1      C       0.0000000000     0.0000000000     0.0000000000
    2      C       0.0000000000     0.0000000000     1.4040830000
    3      H       0.9445581717     0.0000000000     1.9375711242
    4      C      -1.1872407492     0.0050075501     2.0987511777
    5      C      -2.4301267859     0.0088074699     1.4104022090
    6      C      -2.4491606164    -0.0008322054     0.0340745704
    7      H      -3.3936000095    -0.0091589909    -0.4990443367
    8      C      -1.2441881230    -0.0035961297    -0.6934271853
    9      C      -1.4565338869     0.0103376005     3.5331814226
   10      C      -0.6818183332     0.0069856303     4.6639835859
   11      H       0.4002783833    -0.0026586385     4.6165905740
   12      C      -2.8561793167     0.0208461273     3.6693719830
   13      C      -3.5169407355     0.0309088588     4.8928336401
   14      C      -3.4953526071     0.0202281838     2.4144729248
   15      C      -4.8643015723     0.0314827898     2.3840152791
   16      H      -5.4151814930     0.0324979101     1.4519290544
   17      C      -1.3276364584     0.0160527798     5.9223656188
   18      H      -0.7179105346     0.0133576814     6.8165923529
   19      C      -2.6977699396     0.0281529040     6.0475320132
   20      H      -3.1492990343     0.0351754086     7.0320783942
   21      C      -4.9303566967     0.0422903288     4.8324735095
   22      H      -5.5122572919     0.0509882343     5.7458715703
   23      C      -5.5669234616     0.0427153289     3.6129774111
   24      H      -6.6486479912     0.0522221795     3.5868409107
   25      B      -1.2857100506    -0.0110362344    -2.2375751091
   26      C       0.0365281954     0.0387443344    -3.0226959864
   27      C       0.0136321640     0.1044012623    -4.4100054761
   28      H      -0.9385408429     0.1262748628    -4.9278920014
   29      C       1.1964922535     0.1354426758    -5.1292278601
   30      C       1.4842269881     0.1977890199    -6.5219107821
   31      C       0.7297479363     0.2617597383    -7.6871237196
   32      H      -0.3518735727     0.2724261665    -7.6625588528
   33      C       1.4065735059     0.3155626923    -8.9129127688
   34      H       0.8239294431     0.3656492273    -9.8235324401
   35      C       2.7896236922     0.3093294440    -9.0104037269
   36      H       3.2587892245     0.3541130839    -9.9853111159
   37      C       3.5892555578     0.2467380401    -7.8444657832
   38      C       2.8983846842     0.1922675289    -6.6348121391
   39      C       5.0033965834     0.2353440743    -7.7575390204
   40      H       5.5997333201     0.2758682810    -8.6605758437
   41      C       5.6337956184     0.1725931027    -6.5230434349
   42      H       6.7157734170     0.1648713816    -6.4925839081
   43      C       4.9279105857     0.1189644492    -5.3162498794
   44      H       5.4608122089     0.0711950639    -4.3754853129
   45      C       3.5360130332     0.1289608104    -5.3665501099
   46      C       2.5010705343     0.0929539133    -4.4009832479
   47      C       2.5209725695     0.0406427327    -3.0122866646
   48      H       3.4691286450     0.0198834017    -2.4857232543
   49      C       1.3359746003     0.0269556836    -2.2967714471
   50      B       1.3518234624     0.0035532110    -0.7574159046
   51      C      -2.6524499273    -0.0352664762    -3.0126589526
   52      C      -3.1889047974    -1.2212368532    -3.5141295049
   53      C      -4.4074606967    -1.2202314699    -4.1950882264
   54      H      -4.7921621298    -2.1612174561    -4.5689646771
   55      C      -5.0973898438    -0.0320751276    -4.3875360747
   56      O      -6.2779345467     0.0717904654    -5.0341877935
   57      C      -4.5603333674     1.1588946902    -3.9010739751
   58      H      -5.0989934874     2.0845545462    -4.0683698179
   59      C      -3.3552191223     1.1643506409    -3.2215700849
   60      C      -6.8645976584    -1.0979903328    -5.5454301417
   61      H      -7.7992305825    -0.7983434345    -6.0147770040
   62      H      -7.0874623548    -1.8270398652    -4.7599979165
   63      H      -6.2359077082    -1.5814547526    -6.2999573586
   64      C      -2.7887414908     2.4626032845    -2.7145344028
   65      H      -3.3963957817     3.3147011162    -3.0178760130
   66      H      -2.7264499764     2.4733278962    -1.6244313754
   67      H      -1.7763204855     2.6298263500    -3.0890677538
   68      C      -2.4868214443    -2.5369512477    -3.2939829220
   69      H      -2.7049874578    -3.2123602164    -4.1254455169
   70      H      -1.4030179609    -2.3923056337    -3.3042110269
   71      C      -2.8918501410    -3.2061166524    -1.9822032787
   72      H      -2.6273739336    -2.5888094547    -1.1234958329
   73      H      -3.9678944992    -3.3803484038    -1.9459343626
   74      H      -2.3913301901    -4.1680108610    -1.8640155961
   75      C       2.7202704024    -0.0384666917     0.0244684542
   76      C       3.4524448418     1.1184573952     0.2922910369
   77      C       4.6607378948     1.0562516717     0.9898880025
   78      H       5.1974187323     1.9789177512     1.1767666541
   79      C       5.1550856878    -0.1621338322     1.4268093727
   80      O       6.3097167365    -0.3197151562     2.1088393788
   81      C       4.4370068248    -1.3255613879     1.1551256679
   82      H       4.8332086070    -2.2771126502     1.4903067417
   83      C       3.2381283091    -1.2705942395     0.4664653042
   84      C       7.0617545308     0.8251530720     2.4236650847
   85      H       7.9328130725     0.4829504233     2.9785098094
   86      H       6.5034371514     1.5276450170     3.0503766361
   87      H       7.4055403467     1.3549633888     1.5296973489
   88      C       2.4895257808    -2.5429898857     0.1838399162
   89      H       3.0312674219    -3.4176982024     0.5423831413
   90      H       1.5083717780    -2.5436137833     0.6627181564
   91      H       2.3204898102    -2.6761898808    -0.8869739038
   92      C       2.9443115037     2.4804407702    -0.1081011490
   93      H       2.2889326867     2.4027051606    -0.9792153560
   94      H       3.7846179593     3.1063329214    -0.4212240991
   95      C       2.1950126123     3.1747228358     1.0270562976
   96      H       1.3202255284     2.5989526023     1.3299272416
   97      H       1.8527876645     4.1646120725     0.7229518033
   98      H       2.8324208054     3.2952704795     1.9039999935
 ----------------------------------------------------------------

   15   -2202.2613160254      6.00e-09  Convergence criterion met
 Total energy in the final basis set =    -2202.2613160254

         TDDFT/TDA Excitation Energies
 ---------------------------------------------------

 Excited state   1: excitation energy (eV) =    1.8969
 Total energy for state  1:                 -2202.19160464 au
    Multiplicity: Triplet
    Trans. Mom.:  0.0000 X   0.0000 Y   0.0000 Z
    Strength   :     0.0000000000
    D(189) --> V(  1) amplitude =  0.2200
    D(190) --> V(  1) amplitude =  0.8876

 Excited state   2: excitation energy (eV) =    2.2503
 Total energy for state  2:                 -2202.17861868 au
    Multiplicity: Triplet
    Trans. Mom.:  0.0000 X   0.0000 Y   0.0000 Z
    Strength   :     0.0000000000
    D(186) --> V(  1) amplitude = -0.5233
    D(186) --> V(  2) amplitude =  0.3578
    D(187) --> V(  1) amplitude =  0.6445
    D(187) --> V(  2) amplitude = -0.2779

 Excited state   3: excitation energy (eV) =    2.4920
 Total energy for state  3:                 -2202.16973843 au
    Multiplicity: Triplet
    Trans. Mom.:  0.0000 X   0.0000 Y   0.0000 Z
    Strength   :     0.0000000000
    D(186) --> V(  1) amplitude =  0.4909
    D(186) --> V(  2) amplitude =  0.3131
    D(187) --> V(  1) amplitude =  0.4434
    D(187) --> V(  2) amplitude =  0.4695

 Excited state   4: excitation energy (eV) =    2.5509
 Total energy for state  4:                 -2202.16757085 au
    Multiplicity: Triplet
    Trans. Mom.:  0.0000 X   0.0000 Y   0.0000 Z
    Strength   :     0.0000000000
    D(183) --> V(  1) amplitude =  0.5974
    D(183) --> V(  2) amplitude =  0.2133
    D(189) --> V(  1) amplitude = -0.2124
    D(190) --> V(  2) amplitude = -0.5086

 Excited state   5: excitation energy (eV) =    2.6231
 Total energy for state  5:                 -2202.16491894 au
    Multiplicity: Singlet
    Trans. Mom.: -0.5411 X  -0.0019 Y  -0.0771 Z
    Strength   :     0.0191950499
    D(190) --> V(  1) amplitude =  0.9444

 Excited state   6: excitation energy (eV) =    2.7738
 Total energy for state  6:                 -2202.15938056 au
    Multiplicity: Triplet
    Trans. Mom.:  0.0000 X   0.0000 Y   0.0000 Z
    Strength   :     0.0000000000
    D(189) --> V(  1) amplitude =  0.8743
    D(190) --> V(  1) amplitude = -0.2697

 Excited state   7: excitation energy (eV) =    2.8277
 Total energy for state  7:                 -2202.15739974 au
    Multiplicity: Singlet
    Trans. Mom.:  0.3557 X  -0.0018 Y   0.3118 Z
    Strength   :     0.0155002059
    D(189) --> V(  1) amplitude =  0.9346

 Excited state   8: excitation energy (eV) =    2.8882
 Total energy for state  8:                 -2202.15517526 au
    Multiplicity: Triplet
    Trans. Mom.:  0.0000 X   0.0000 Y   0.0000 Z
    Strength   :     0.0000000000
    D(188) --> V(  1) amplitude =  0.9268

 Excited state   9: excitation energy (eV) =    2.9164
 Total energy for state  9:                 -2202.15413947 au
    Multiplicity: Singlet
    Trans. Mom.: -0.1133 X   0.0157 Y   0.0838 Z
    Strength   :     0.0014371517
    D(188) --> V(  1) amplitude =  0.9591

 Excited state  10: excitation energy (eV) =    3.0903
 Total energy for state 10:                 -2202.14774874 au
    Multiplicity: Singlet
    Trans. Mom.:  2.0096 X   0.0754 Y  -3.6182 Z
    Strength   :     1.2973675787
    D(187) --> V(  1) amplitude =  0.9362

 Excited state  11: excitation energy (eV) =    3.3795
 Total energy for state 11:                 -2202.13712071 au
    Multiplicity: Singlet
    Trans. Mom.: -0.7869 X  -0.0253 Y  -0.4195 Z
    Strength   :     0.0658890004
    D(183) --> V(  1) amplitude =  0.5624
    D(190) --> V(  2) amplitude = -0.6681

 Excited state  12: excitation energy (eV) =    3.4234
 Total energy for state 12:                 -2202.13550974 au
    Multiplicity: Singlet
    Trans. Mom.:  0.2459 X  -0.0609 Y  -0.2833 Z
    Strength   :     0.0121134675
    D(186) --> V(  1) amplitude =  0.9048
    D(187) --> V(  2) amplitude =  0.2395

 ---------------------------------------------------

                    Orbital Energies (a.u.)
 --------------------------------------------------------------

 Alpha MOs
 -- Occupied --
-19.525 -19.525 -10.501 -10.501 -10.485 -10.484 -10.468 -10.468
-10.467 -10.466 -10.466 -10.466 -10.465 -10.464 -10.463 -10.463
-10.463 -10.462 -10.461 -10.461 -10.461 -10.460 -10.460 -10.460
-10.460 -10.459 -10.457 -10.457 -10.453 -10.453 -10.452 -10.452
-10.451 -10.451 -10.450 -10.449 -10.449 -10.446 -10.436 -10.435
-10.433 -10.433 -10.433 -10.432 -10.432 -10.432 -10.429 -10.429
-10.424 -10.424 -10.420 -10.418 -10.416 -10.415  -6.945  -6.942
 -1.181  -1.181  -1.015  -1.013  -0.960  -0.955  -0.954  -0.952
 -0.934  -0.932  -0.906  -0.897  -0.882  -0.881  -0.863  -0.856
 -0.854  -0.850  -0.850  -0.845  -0.817  -0.816  -0.814  -0.813
 -0.811  -0.796  -0.774  -0.772  -0.762  -0.762  -0.736  -0.732
 -0.727  -0.717  -0.707  -0.707  -0.688  -0.682  -0.677  -0.666
 -0.656  -0.647  -0.644  -0.638  -0.636  -0.636  -0.598  -0.591
 -0.590  -0.588  -0.583  -0.583  -0.582  -0.575  -0.574  -0.560
 -0.560  -0.542  -0.541  -0.535  -0.533  -0.532  -0.527  -0.522
 -0.515  -0.508  -0.501  -0.500  -0.496  -0.495  -0.494  -0.493
 -0.489  -0.489  -0.484  -0.483  -0.482  -0.481  -0.477  -0.473
 -0.472  -0.470  -0.467  -0.464  -0.462  -0.462  -0.458  -0.456
 -0.445  -0.444  -0.442  -0.436  -0.433  -0.429  -0.426  -0.423
 -0.421  -0.421  -0.419  -0.413  -0.412  -0.407  -0.405  -0.403
 -0.398  -0.397  -0.395  -0.394  -0.392  -0.389  -0.384  -0.382
 -0.374  -0.372  -0.367  -0.365  -0.361  -0.357  -0.354  -0.348
 -0.340  -0.336  -0.324  -0.315  -0.299  -0.294  -0.276  -0.275
 -0.275  -0.262  -0.255  -0.251  -0.249  -0.247

          Ground-State Mulliken Net Atomic Charges

     Atom                 Charge (a.u.)
  ----------------------------------------
      1 C                    -0.151081
      2 C                    -0.399168
      3 H                     0.245689
      4 C                     0.083695
      5 C                     0.100820
      6 C                    -0.402586
      7 H                     0.246858
      8 C                    -0.151761
      9 C                     0.185215
     10 C                    -0.386307
     11 H                     0.239488
     12 C                    -0.065136
     13 C                     0.235101
     14 C                     0.187734
     15 C                    -0.392882
     16 H                     0.239581
     17 C                    -0.222700
     18 H                     0.244173
     19 C                    -0.341630
     20 H                     0.239581
     21 C                    -0.345131
     22 H                     0.239845
     23 C                    -0.220829
     24 H                     0.243751
     25 B                     0.662997
     26 C                    -0.157281
     27 C                    -0.371659
     28 H                     0.243561
     29 C                     0.058700
     30 C                     0.197187
     31 C                    -0.369195
     32 H                     0.243246
     33 C                    -0.220721
     34 H                     0.245806
     35 C                    -0.340660
     36 H                     0.242159
     37 C                     0.234166
     38 C                    -0.089530
     39 C                    -0.338913
     40 H                     0.242057
     41 C                    -0.221589
     42 H                     0.245952
     43 C                    -0.362728
     44 H                     0.242972
     45 C                     0.190699
     46 C                     0.053353
     47 C                    -0.373126
     48 H                     0.240801
     49 C                    -0.155684
     50 B                     0.668727
     51 C                    -0.223595
     52 C                     0.076782
     53 C                    -0.440779
     54 H                     0.240249
     55 C                     0.394130
     56 O                    -0.462760
     57 C                    -0.396535
     58 H                     0.232525
     59 C                     0.055359
     60 C                    -0.418795
     61 H                     0.246878
     62 H                     0.212592
     63 H                     0.212191
     64 C                    -0.767509
     65 H                     0.245724
     66 H                     0.248233
     67 H                     0.247330
     68 C                    -0.550476
     69 H                     0.233689
     70 H                     0.253531
     71 C                    -0.653109
     72 H                     0.241939
     73 H                     0.217946
     74 H                     0.223178
     75 C                    -0.225353
     76 C                     0.071629
     77 C                    -0.434479
     78 H                     0.240463
     79 C                     0.394899
     80 O                    -0.462875
     81 C                    -0.395881
     82 H                     0.232976
     83 C                     0.052002
     84 C                    -0.418752
     85 H                     0.247083
     86 H                     0.212599
     87 H                     0.212301
     88 C                    -0.767113
     89 H                     0.246070
     90 H                     0.248029
     91 H                     0.246788
     92 C                    -0.549072
     93 H                     0.253435
     94 H                     0.233910
     95 C                    -0.649338
     96 H                     0.237542
     97 H                     0.223582
     98 H                     0.217219
  ----------------------------------------
  Sum of atomic charges =    -0.000000

                    Cartesian Multipole Moments
 -----------------------------------------------------------------
    Charge (ESU x 10^10)
                -0.0000
    Dipole Moment (Debye)
         X       0.6223      Y       0.1639      Z      -0.8073
       Tot       1.0324
    Quadrupole Moments (Debye-Ang)
        XX    -270.1197     XY      20.0490     YY    -323.1630
        XZ      -4.7507     YZ       9.8955     ZZ    -261.3394

 Total job time:  10888.73s(wall), 36460.60s(cpu)
        *  Thank you very much for using Q-Chem.  Have a nice day.  *
