 Q-Chem 5.1, Q-Chem, Inc., Pleasanton, CA (2018)
 Q-Chem 5.1.1 for Intel X86 EM64T Linux

User input:
--------------------------------------------------------------
$rem
threads 8
jobtype	opt
method PBEh-3c
basis def2-mSVP
mem_static	512
mem_total	6096
sym_ignore	true
$end

$molecule
read incoords.mol
$end

--------------------------------------------------------------

   15   -2285.1037446859      4.90e-09  Convergence criterion met
 Total energy in the final basis set =    -2285.1037446859
   13   -2285.1444793231      6.13e-09  Convergence criterion met
 Total energy in the final basis set =    -2285.1444793231
   13   -2285.1592410077      5.78e-09  Convergence criterion met
 Total energy in the final basis set =    -2285.1592410077
   12   -2285.1617495424      7.03e-09  Convergence criterion met
 Total energy in the final basis set =    -2285.1617495424
   12   -2285.1623232792      5.88e-09  Convergence criterion met
 Total energy in the final basis set =    -2285.1623232792
   12   -2285.1619317312      6.71e-09  Convergence criterion met
 Total energy in the final basis set =    -2285.1619317312
   11   -2285.1623257820      7.09e-09  Convergence criterion met
 Total energy in the final basis set =    -2285.1623257820
   10   -2285.1623094587      8.78e-09  Convergence criterion met
   10   -2285.1642333685      8.07e-09  Convergence criterion met
 Total energy in the final basis set =    -2285.1642333685
   10   -2285.1643355856      7.41e-09  Convergence criterion met
 Total energy in the final basis set =    -2285.1643355856
   10   -2285.1643940880      7.27e-09  Convergence criterion met
 Total energy in the final basis set =    -2285.1643940880
    9   -2285.1643933708      9.38e-09  Convergence criterion met
 Total energy in the final basis set =    -2285.1643933708
    9   -2285.1643665753      7.19e-09  Convergence criterion met
 Total energy in the final basis set =    -2285.1643665753
    9   -2285.1643506816      6.39e-09  Convergence criterion met
 Total energy in the final basis set =    -2285.1643506816

             Standard Nuclear Orientation (Angstroms)
    I     Atom           X                Y                Z
 ----------------------------------------------------------------
    1      C      -6.3618288068     3.9704680776     1.7327408728
    2      C      -6.8666863418     2.6714178993     1.9877386966
    3      B      -5.9601002577     1.4209926501     1.8508433468
    4      C      -4.4948260210     1.6158212743     1.3824647476
    5      C      -3.9757222995     2.9132499303     1.1444783570
    6      B      -4.8741050297     4.1673251203     1.3339731232
    7      C      -2.6767424844     3.0297092802     0.6909844761
    8      C      -1.8563270332     1.9188281959     0.4221263265
    9      C      -2.3820733934     0.6328662344     0.6394420266
   10      C      -3.6904667268     0.5232618679     1.1370395842
   11      C      -7.2323442555     5.0410517900     1.7947694486
   12      C      -8.6031748279     4.8976412334     2.0767772188
   13      C      -9.0973999373     3.6078992089     2.3430649726
   14      C      -8.2020485094     2.5281975530     2.2985952252
   15      H      -6.8257104194     6.0228930103     1.5934260679
   16      C      -6.5422947385    -0.0117239428     2.1239736493
   17      C      -4.3039524317     5.6051417290     1.0843972549
   18      C      -7.1402242872    -0.7363716325     1.0876835295
   19      C      -7.6710379975    -1.9965374552     1.3424839267
   20      C      -7.6256285284    -2.5626718714     2.6084544956
   21      C      -7.0315395518    -1.8324057327     3.6314596353
   22      C      -6.4924595802    -0.5729702695     3.4057815117
   23      C      -5.8653448282     0.2005248205     4.5309173728
   24      C      -7.2189982040    -0.1518517324    -0.2957290387
   25      H      -8.1334013275    -2.5475915853     0.5299555242
   26      C      -8.1832470795    -3.9322718349     2.8680043994
   27      H      -6.9871215832    -2.2561294355     4.6297464350
   28      H      -4.8444245106     0.5019299151     4.2865383422
   29      H      -5.8237084565    -0.3826386926     5.4504425321
   30      H      -6.4260148999     1.1132647892     4.7460541675
   31      H      -7.7907420225     0.7788299020    -0.3035739937
   32      H      -7.6990862762    -0.8353901004    -0.9955910566
   33      H      -6.2279957724     0.0786646896    -0.6926690270
   34      H      -8.7924413624    -4.2823255577     2.0351732240
   35      H      -8.8056666323    -3.9491732592     3.7634947613
   36      H      -7.3861348703    -4.6632433455     3.0179642403
   37      C      -3.7568675743     6.3347220800     2.1422740126
   38      C      -3.2477360181     7.6084257165     1.9120316080
   39      C      -3.2705578027     8.1789467999     0.6468093374
   40      C      -3.8251816350     7.4453457739    -0.3962259072
   41      C      -4.3400444073     6.1718470049    -0.1958048726
   42      C      -4.9338373442     5.3985166921    -1.3407840320
   43      C      -3.7250297880     5.7333842452     3.5198095006
   44      H      -2.8220302597     8.1655430300     2.7399847935
   45      C      -2.7072362865     9.5476692954     0.3968199760
   46      H      -3.8563974083     7.8775189551    -1.3915961295
   47      H      -4.9516018904     5.9852453030    -2.2589023009
   48      H      -5.9606640265     5.0929132334    -1.1273569405
   49      H      -4.3679329069     4.4868386192    -1.5461326442
   50      H      -4.7325160562     5.5214836896     3.8853321905
   51      H      -3.2481271645     6.3955176320     4.2419692150
   52      H      -3.1763900340     4.7886695189     3.5295455628
   53      H      -2.3809046966    10.0228603086     1.3212127299
   54      H      -3.4433150177    10.2040242671    -0.0698409257
   55      H      -1.8454451503     9.5063162272    -0.2719316187
   56      C      -0.5064148352     2.0707280461    -0.0971787743
   57      C     -10.5093622345     3.4032497796     2.6266173512
   58      C     -11.0231928052     2.1251815752     2.9073951972
   59      C       1.3226419590     3.5156910173    -0.8148957069
   60      C       2.0681577437     2.3723095303    -1.1228000103
   61      C     -13.2222073268     2.9995190639     3.1336468596
   62      C     -12.3568930643     1.9001077307     3.1601027589
   63      C     -12.8798201940     0.5269631654     3.4598471544
   64      H      -4.1141268523    -0.4537685268     1.3258227656
   65      C       0.0561104763     3.3397487392    -0.3070520311
   66      H      -2.3002129732     4.0282528472     0.5169791782
   67      C      -1.5940752781    -0.5477269304     0.3219660493
   68      C      -0.1100929883    -2.8144399332    -0.3383718331
   69      C      -1.3956374282    -2.9768453257     0.1900250468
   70      C      -2.1070151670    -1.8428713332     0.5076822506
   71      C      -1.9710381014    -4.3465777425     0.3944616048
   72      H      -3.1023415845    -1.9766565523     0.9077063717
   73      H      -8.5619155504     1.5267286971     2.4901848796
   74      H     -10.3620812831     1.2700503218     2.9284767134
   75      C      -9.5141112350     6.0325102541     2.0689968822
   76      C      -9.0598664490     7.3328651569     1.7955407307
   77      C      -9.9020443843     8.4205701898     1.7555634180
   78      C     -11.2623898729     8.2049349095     2.0006024427
   79      C      -9.3909868288     9.7981583741     1.4594721739
   80      H      -8.0103609356     7.5044762443     1.6014362404
   81      C     -10.8833177491     5.8308498030     2.3184080453
   82      C       0.2527964191     0.9298997410    -0.4107963090
   83      C      -0.3015464111    -0.3991912485    -0.2061882066
   84      C     -11.3888200608     4.4977191610     2.6064187099
   85      C       1.5450693006     1.1198741803    -0.9243964004
   86      C       0.4163471575    -1.5625429028    -0.5285020462
   87      H       0.4768039898    -3.6858889564    -0.6039264002
   88      H       1.4111968950    -1.4927921843    -0.9434332225
   89      H      -0.5152845051     4.2254205899    -0.0670471961
   90      C       1.8891356477     4.8835553961    -1.0475978916
   91      H       3.0701691536     2.4741060474    -1.5223864295
   92      H       2.1612945538     0.2689335382    -1.1759837227
   93      C     -11.7339015699     6.9465636117     2.2741563069
   94      H     -12.7928342212     6.8314009161     2.4541360584
   95      H     -11.9534419842     9.0391399059     1.9728669121
   96      C     -12.7482747940     4.2579824307     2.8657948616
   97      H     -14.2790727912     2.8562375734     3.3258241002
   98      H     -13.4578176578     5.0723363609     2.8581234319
   99      H       2.8500967744     5.0084569488    -0.5463448809
  100      H       1.2208418230     5.6618839798    -0.6818944047
  101      H       2.0547182414     5.0646648077    -2.1111904709
  102      H      -1.9997308981    -4.9077126210    -0.5409895434
  103      H      -2.9872448456    -4.3010919309     0.7836183095
  104      H      -1.3736273265    -4.9271221705     1.0995978497
  105      H     -13.2585142017     0.4621235103     4.4816000395
  106      H     -13.7035315888     0.2622179775     2.7949406967
  107      H     -12.1071373262    -0.2322474860     3.3466706538
  108      H      -9.5617861630    10.4723263582     2.3005328492
  109      H      -8.3218789379     9.7939893063     1.2520645687
  110      H      -9.8946229783    10.2298069423     0.5929960863
 ----------------------------------------------------------------

    9   -2285.1643499006      6.40e-09  Convergence criterion met
 Total energy in the final basis set =    -2285.1643499006
 Final energy is   -2285.16434990064
 **  OPTIMIZATION CONVERGED  **

                    Orbital Energies (a.u.)
 --------------------------------------------------------------

 Alpha MOs
 -- Occupied --
-10.465 -10.465 -10.464 -10.464 -10.462 -10.462 -10.462 -10.462
-10.461 -10.461 -10.461 -10.461 -10.457 -10.457 -10.457 -10.457
-10.449 -10.449 -10.449 -10.449 -10.449 -10.449 -10.448 -10.447
-10.447 -10.447 -10.447 -10.447 -10.447 -10.446 -10.446 -10.446
-10.446 -10.446 -10.445 -10.445 -10.445 -10.445 -10.435 -10.435
-10.435 -10.435 -10.430 -10.429 -10.429 -10.429 -10.429 -10.429
-10.427 -10.427 -10.426 -10.426 -10.424 -10.424 -10.424 -10.423
-10.416 -10.415  -6.944  -6.943  -0.997  -0.997  -0.960  -0.960
 -0.958  -0.955  -0.951  -0.951  -0.903  -0.900  -0.878  -0.876
 -0.874  -0.868  -0.868  -0.866  -0.866  -0.866  -0.849  -0.849
 -0.819  -0.816  -0.816  -0.805  -0.795  -0.795  -0.779  -0.779
 -0.758  -0.756  -0.756  -0.755  -0.753  -0.752  -0.729  -0.715
 -0.710  -0.705  -0.685  -0.679  -0.667  -0.666  -0.662  -0.657
 -0.643  -0.642  -0.638  -0.638  -0.617  -0.610  -0.610  -0.604
 -0.577  -0.568  -0.564  -0.560  -0.551  -0.542  -0.539  -0.539
 -0.538  -0.537  -0.532  -0.527  -0.525  -0.512  -0.511  -0.506
 -0.498  -0.497  -0.491  -0.491  -0.490  -0.486  -0.485  -0.480
 -0.480  -0.479  -0.479  -0.477  -0.474  -0.474  -0.470  -0.469
 -0.468  -0.465  -0.465  -0.463  -0.462  -0.461  -0.459  -0.454
 -0.454  -0.453  -0.452  -0.449  -0.448  -0.445  -0.445  -0.443
 -0.441  -0.437  -0.436  -0.436  -0.421  -0.419  -0.419  -0.411
 -0.411  -0.410  -0.410  -0.409  -0.409  -0.407  -0.406  -0.403
 -0.399  -0.390  -0.379  -0.378  -0.378  -0.377  -0.377  -0.377
 -0.365  -0.350  -0.348  -0.339  -0.332  -0.329  -0.327  -0.324
 -0.320  -0.318  -0.282  -0.275  -0.270  -0.270  -0.264  -0.264
 -0.260  -0.251  -0.250  -0.247

          Ground-State Mulliken Net Atomic Charges

     Atom                 Charge (a.u.)
  ----------------------------------------
      1 C                    -0.113480
      2 C                    -0.111464
      3 B                     0.688386
      4 C                    -0.111342
      5 C                    -0.113323
      6 B                     0.691372
      7 C                    -0.425275
      8 C                     0.112175
      9 C                     0.110895
     10 C                    -0.426534
     11 C                    -0.426078
     12 C                     0.113976
     13 C                     0.109791
     14 C                    -0.424743
     15 H                     0.241700
     16 C                    -0.227586
     17 C                    -0.221614
     18 C                     0.061562
     19 C                    -0.346901
     20 C                     0.130435
     21 C                    -0.341746
     22 C                     0.067982
     23 C                    -0.759342
     24 C                    -0.757753
     25 H                     0.196606
     26 C                    -0.708951
     27 H                     0.196834
     28 H                     0.244803
     29 H                     0.234554
     30 H                     0.243241
     31 H                     0.245396
     32 H                     0.234350
     33 H                     0.244828
     34 H                     0.225946
     35 H                     0.227687
     36 H                     0.231765
     37 C                     0.066624
     38 C                    -0.349205
     39 C                     0.130975
     40 C                    -0.342236
     41 C                     0.062233
     42 C                    -0.757520
     43 C                    -0.762406
     44 H                     0.196667
     45 C                    -0.709357
     46 H                     0.196761
     47 H                     0.234105
     48 H                     0.244819
     49 H                     0.244813
     50 H                     0.245207
     51 H                     0.235263
     52 H                     0.244387
     53 H                     0.226374
     54 H                     0.228563
     55 H                     0.230086
     56 C                     0.121782
     57 C                     0.123519
     58 C                    -0.389464
     59 C                     0.141817
     60 C                    -0.262293
     61 C                    -0.262234
     62 C                     0.141834
     63 C                    -0.709509
     64 H                     0.242939
     65 C                    -0.388961
     66 H                     0.241526
     67 C                     0.123471
     68 C                    -0.262449
     69 C                     0.142156
     70 C                    -0.388865
     71 C                    -0.709072
     72 H                     0.215534
     73 H                     0.244123
     74 H                     0.216699
     75 C                     0.121988
     76 C                    -0.390086
     77 C                     0.142267
     78 C                    -0.262208
     79 C                    -0.709300
     80 H                     0.215514
     81 C                     0.082891
     82 C                     0.084371
     83 C                     0.081703
     84 C                     0.081055
     85 C                    -0.306500
     86 C                    -0.306331
     87 H                     0.213491
     88 H                     0.204983
     89 H                     0.215542
     90 C                    -0.709249
     91 H                     0.213290
     92 H                     0.205317
     93 C                    -0.305587
     94 H                     0.205278
     95 H                     0.213277
     96 C                    -0.305693
     97 H                     0.213416
     98 H                     0.204934
     99 H                     0.232633
    100 H                     0.234448
    101 H                     0.234971
    102 H                     0.233302
    103 H                     0.234657
    104 H                     0.234221
    105 H                     0.235038
    106 H                     0.232227
    107 H                     0.235329
    108 H                     0.234448
    109 H                     0.234539
    110 H                     0.232967
  ----------------------------------------
  Sum of atomic charges =    -0.000000

                    Cartesian Multipole Moments
 -----------------------------------------------------------------
    Charge (ESU x 10^10)
                -0.0000
    Dipole Moment (Debye)
         X      -0.1596      Y      -0.1057      Z      -0.5460
       Tot       0.5786
    Quadrupole Moments (Debye-Ang)
        XX    -305.0936     XY       0.2919     YY    -302.2320
        XZ     -10.9567     YZ      -5.8717     ZZ    -350.3337

 Total job time:  37581.16s(wall), 288238.55s(cpu)
        *  Thank you very much for using Q-Chem.  Have a nice day.  *
