 Q-Chem 5.1, Q-Chem, Inc., Pleasanton, CA (2018)
 Q-Chem 5.1.1 for Intel X86 EM64T Linux

User input:
--------------------------------------------------------------
$rem
threads 8
jobtype	sp
method PBEh-3c
basis def2-mSVP
mem_static	1024
mem_total	10000
sym_ignore	true
cis_n_roots             6
cis_singlets            true
cis_triplets		true
rpa                     false
calc_soc 		true
cis_moments             true
cis_relaxed_density	true
$end

$molecule
read gsopt.mol
$end

--------------------------------------------------------------

             Standard Nuclear Orientation (Angstroms)
    I     Atom           X                Y                Z
 ----------------------------------------------------------------
    1      C       0.0000000000     0.0000000000     0.0000000000
    2      C       0.0000000000     0.0000000000     1.3785270000
    3      H       0.9608774256     0.0000000000     1.8743756396
    4      C      -1.1759762034    -0.0313594796     2.1436968948
    5      C      -2.4112080082    -0.0437412619     1.4709031593
    6      C      -2.4045545843    -0.0081158838     0.0645040317
    7      H      -3.3409741730    -0.0096946241    -0.4768070488
    8      C      -1.2421643957     0.0018677090    -0.6815140162
    9      C      -1.1271149627    -0.0809566998     3.5966507648
   10      C      -2.3210677573    -0.1700784574     4.3303078379
   11      C      -2.2329429922    -0.2357043927     5.7305916349
   12      H      -3.1276241588    -0.3066982158     6.3315812059
   13      C      -1.0259601844    -0.2140555024     6.3808314366
   14      H      -1.0008406953    -0.2695795288     7.4628265650
   15      C       0.1716246830    -0.1224280937     5.6627995930
   16      C       0.0953211606    -0.0574421375     4.2904907621
   17      H       1.0253577022     0.0117572911     3.7436767672
   18      C      -3.5995842361    -0.1964137982     3.6371839855
   19      C      -4.8129164477    -0.3003866968     4.3352395643
   20      H      -4.8168679122    -0.3651374751     5.4135650245
   21      C      -6.0205845977    -0.3280991969     3.6860688695
   22      H      -6.9342383094    -0.4124487352     4.2625594173
   23      C      -6.0835799287    -0.2509850034     2.2906590820
   24      C      -4.8993460210    -0.1499183289     1.5968719727
   25      H      -4.9535556948    -0.0947631968     0.5186288050
   26      C      -3.6480151784    -0.1231635531     2.2336561859
   27      C      -7.4060235126    -0.2791414020     1.5857126510
   28      H      -7.2850985097    -0.2518047285     0.5037433472
   29      H      -7.9678390833    -1.1812457788     1.8333436953
   30      H      -8.0241099058     0.5739491411     1.8707804579
   31      C       1.4884900337    -0.0927863901     6.3796058229
   32      H       2.3265361568    -0.1195743498     5.6844735885
   33      H       1.5917616174    -0.9435160878     7.0550946924
   34      H       1.5899499764     0.8108231265     6.9835830283
   35      B       1.3384934509    -0.0745068046    -0.7791573779
   36      C       1.2906794539    -0.1939624957    -2.3244116359
   37      C       2.4512758080    -0.3785683192    -3.0454177041
   38      H       3.3797624585    -0.3923077397    -2.4909453772
   39      C       2.4656247330    -0.5692712810    -4.4364379555
   40      C       1.2421473690    -0.5277715033    -5.1283300450
   41      C       0.0633699292    -0.3218687883    -4.3883897057
   42      H      -0.8910669489    -0.3015467035    -4.8961100115
   43      C       0.0533164638    -0.1727050288    -3.0157221142
   44      C       1.2180841926    -0.7260507826    -6.5688580588
   45      C       0.0165838193    -0.6712859445    -7.2929392466
   46      H      -0.9107227965    -0.4645023908    -6.7773307567
   47      C      -0.0407494701    -0.8736956833    -8.6526106826
   48      C       1.1575274582    -1.1370847381    -9.3254247437
   49      H       1.1493248065    -1.2991576000   -10.3967435737
   50      C       2.3466224051    -1.1927287240    -8.6438551962
   51      H       3.2442511572    -1.3973728265    -9.2091105446
   52      C       2.4150793376    -0.9917730225    -7.2564920900
   53      C       3.7052212080    -0.8368918452    -5.1486965083
   54      C       3.6765556845    -1.0564244189    -6.5352836017
   55      C       4.8899169728    -1.3418912156    -7.1825151082
   56      H       4.9112239945    -1.5238771583    -8.2470270692
   57      C       6.0773726087    -1.4062259734    -6.4996204238
   58      H       6.9904401233    -1.6329424900    -7.0374845824
   59      C       6.1206458692    -1.1864685742    -5.1183033268
   60      C       4.9367587811    -0.9073187948    -4.4753817342
   61      H       4.9774608558    -0.7468652874    -3.4071161103
   62      C      -1.3413677969    -0.8294967574    -9.3959531995
   63      H      -2.1642629737    -0.5331313408    -8.7469825168
   64      H      -1.3027672359    -0.1234117115   -10.2267687884
   65      H      -1.5879648706    -1.8067536081    -9.8150061845
   66      C       7.4196470142    -1.2602167846    -4.3725129220
   67      H       7.2795962666    -1.0953015735    -3.3050965691
   68      H       7.8931405152    -2.2353996788    -4.4973635550
   69      H       8.1270265366    -0.5108115380    -4.7318951449
   70      B      -1.2833900455    -0.0449851257    -2.2330283813
   71      C      -2.6541068151    -0.0087779975    -2.9909874452
   72      C      -3.2189807415     1.2146483418    -3.3581905429
   73      C      -4.4334950128     1.2387070627    -4.0356294237
   74      H      -4.8621720111     2.1941886646    -4.3191838319
   75      C      -5.1054352071     0.0676776855    -4.3581022904
   76      C      -4.5362990559    -1.1433949920    -3.9798317219
   77      H      -5.0501122144    -2.0693157008    -4.2189485754
   78      C      -3.3251813864    -1.1976073059    -3.3035869015
   79      C      -6.4087341492     0.0945093889    -5.1023590221
   80      H      -6.7608668625     1.1134030129    -5.2593921728
   81      H      -7.1886460507    -0.4448854125    -4.5627513754
   82      H      -6.3153398632    -0.3744519748    -6.0836724557
   83      C      -2.5061192949     2.4932824729    -3.0159232442
   84      H      -3.0409839069     3.3684569365    -3.3838383112
   85      H      -2.3925788291     2.6091487602    -1.9355436113
   86      H      -1.5025587788     2.5176279765    -3.4470385735
   87      C      -2.7301418550    -2.5203491254    -2.9062344566
   88      H      -3.3886532840    -3.3515995097    -3.1570184480
   89      H      -2.5390158683    -2.5664516261    -1.8316817526
   90      H      -1.7749352448    -2.6974953633    -3.4060076775
   91      C       2.7046148639    -0.0898760184    -0.0047514952
   92      C       3.2600306766    -1.3027088963     0.4160596506
   93      C       4.4604815532    -1.3061044337     1.1186328633
   94      H       4.8798496004    -2.2538103938     1.4405454312
   95      C       5.1309785525    -0.1290313430     1.4189382314
   96      C       4.5684238733     1.0706931471     0.9982680292
   97      H       5.0757807296     2.0031926103     1.2243758812
   98      C       3.3721487053     1.1040498006     0.2943300304
   99      C       6.4366540147    -0.1454558237     2.1599177843
  100      H       6.6372142653    -1.1224891957     2.5986026409
  101      H       6.4496844271     0.5885680909     2.9665359532
  102      H       7.2716915921     0.0914873381     1.4975239698
  103      C       2.7794761234     2.4146885863    -0.1397925548
  104      H       3.4375722422     3.2528079700     0.0878139016
  105      H       2.5891906500     2.4290239074    -1.2151669005
  106      H       1.8246889644     2.6025733325     0.3570068761
  107      C       2.5574237625    -2.5989354194     0.1196806765
  108      H       3.1149017362    -3.4554744485     0.4979332804
  109      H       2.4208042175    -2.7468077384    -0.9537502466
  110      H       1.5649974584    -2.6279219574     0.5750610517
 ----------------------------------------------------------------

   14   -2285.1641196523      8.69e-09  Convergence criterion met
 Total energy in the final basis set =    -2285.1641196523

         TDDFT/TDA Excitation Energies
 ---------------------------------------------------

 Excited state   1: excitation energy (eV) =    2.6829
 Total energy for state  1:                 -2285.06552556 au
    Multiplicity: Triplet
    Trans. Mom.:  0.0000 X   0.0000 Y   0.0000 Z
    Strength   :     0.0000000000
    D(199) --> V(  3) amplitude =  0.2632
    D(203) --> V(  1) amplitude =  0.8410

 Excited state   2: excitation energy (eV) =    2.9975
 Total energy for state  2:                 -2285.05396301 au
    Multiplicity: Triplet
    Trans. Mom.:  0.0000 X   0.0000 Y   0.0000 Z
    Strength   :     0.0000000000
    D(196) --> V(  1) amplitude =  0.4305
    D(204) --> V(  1) amplitude =  0.8295

 Excited state   3: excitation energy (eV) =    3.0195
 Total energy for state  3:                 -2285.05315354 au
    Multiplicity: Triplet
    Trans. Mom.:  0.0000 X   0.0000 Y   0.0000 Z
    Strength   :     0.0000000000
    D(195) --> V(  2) amplitude =  0.2269
    D(199) --> V(  1) amplitude =  0.6395
    D(202) --> V(  2) amplitude = -0.2616
    D(203) --> V(  3) amplitude =  0.4139
    D(204) --> V(  4) amplitude = -0.2744

 Excited state   4: excitation energy (eV) =    3.1636
 Total energy for state  4:                 -2285.04786030 au
    Multiplicity: Triplet
    Trans. Mom.:  0.0000 X   0.0000 Y   0.0000 Z
    Strength   :     0.0000000000
    D(195) --> V(  1) amplitude = -0.4737
    D(202) --> V(  1) amplitude =  0.7784
    D(204) --> V(  3) amplitude = -0.2763

 Excited state   5: excitation energy (eV) =    3.3604
 Total energy for state  5:                 -2285.04062594 au
    Multiplicity: Singlet
    Trans. Mom.: -0.0326 X  -0.0181 Y   0.0571 Z
    Strength   :     0.0003832617
    D(203) --> V(  1) amplitude =  0.9457

 Excited state   6: excitation energy (eV) =    3.3648
 Total energy for state  6:                 -2285.04046393 au
    Multiplicity: Triplet
    Trans. Mom.:  0.0000 X   0.0000 Y   0.0000 Z
    Strength   :     0.0000000000
    D(188) --> V(  1) amplitude = -0.2307
    D(201) --> V(  1) amplitude =  0.9321

 Excited state   7: excitation energy (eV) =    3.3780
 Total energy for state  7:                 -2285.03998209 au
    Multiplicity: Triplet
    Trans. Mom.:  0.0000 X   0.0000 Y   0.0000 Z
    Strength   :     0.0000000000
    D(196) --> V(  2) amplitude =  0.2439
    D(202) --> V(  4) amplitude =  0.4321
    D(203) --> V(  1) amplitude = -0.3824
    D(204) --> V(  2) amplitude =  0.6109
    D(204) --> V(  5) amplitude =  0.2679

 Excited state   8: excitation energy (eV) =    3.4555
 Total energy for state  8:                 -2285.03713258 au
    Multiplicity: Singlet
    Trans. Mom.:  0.7834 X  -0.1125 Y  -1.3907 Z
    Strength   :     0.2167720847
    D(201) --> V(  1) amplitude =  0.7180
    D(204) --> V(  1) amplitude =  0.5990

 Excited state   9: excitation energy (eV) =    3.4693
 Total energy for state  9:                 -2285.03662578 au
    Multiplicity: Singlet
    Trans. Mom.:  0.8808 X  -0.1199 Y  -1.6210 Z
    Strength   :     0.2904904383
    D(201) --> V(  1) amplitude = -0.6315
    D(204) --> V(  1) amplitude =  0.6773

 Excited state  10: excitation energy (eV) =    3.6181
 Total energy for state 10:                 -2285.03115555 au
    Multiplicity: Singlet
    Trans. Mom.:  0.0162 X   0.0071 Y   0.0388 Z
    Strength   :     0.0001609176
    D(200) --> V(  1) amplitude =  0.9470
    D(201) --> V(  2) amplitude =  0.2458

 Excited state  11: excitation energy (eV) =    3.6866
 Total energy for state 11:                 -2285.02864119 au
    Multiplicity: Singlet
    Trans. Mom.: -0.0145 X   0.1341 Y   0.0117 Z
    Strength   :     0.0016543871
    D(202) --> V(  1) amplitude =  0.9154

 Excited state  12: excitation energy (eV) =    4.0053
 Total energy for state 12:                 -2285.01692639 au
    Multiplicity: Singlet
    Trans. Mom.: -0.0446 X   0.0125 Y  -0.0608 Z
    Strength   :     0.0005728190
    D(197) --> V(  1) amplitude = -0.2804
    D(198) --> V(  1) amplitude = -0.9337

 ---------------------------------------------------

                    Orbital Energies (a.u.)
 --------------------------------------------------------------

 Alpha MOs
 -- Occupied --
-10.465 -10.465 -10.464 -10.464 -10.462 -10.462 -10.462 -10.462
-10.461 -10.461 -10.461 -10.461 -10.457 -10.457 -10.457 -10.457
-10.449 -10.449 -10.449 -10.449 -10.449 -10.449 -10.448 -10.447
-10.447 -10.447 -10.447 -10.447 -10.447 -10.446 -10.446 -10.446
-10.446 -10.446 -10.445 -10.445 -10.445 -10.445 -10.435 -10.435
-10.435 -10.435 -10.429 -10.429 -10.429 -10.429 -10.429 -10.429
-10.427 -10.427 -10.426 -10.426 -10.424 -10.424 -10.424 -10.423
-10.416 -10.415  -6.944  -6.943  -0.997  -0.997  -0.960  -0.960
 -0.958  -0.955  -0.951  -0.951  -0.903  -0.900  -0.878  -0.876
 -0.874  -0.868  -0.868  -0.866  -0.866  -0.866  -0.849  -0.849
 -0.819  -0.816  -0.816  -0.805  -0.795  -0.795  -0.779  -0.779
 -0.758  -0.756  -0.756  -0.755  -0.753  -0.752  -0.729  -0.715
 -0.710  -0.705  -0.685  -0.679  -0.667  -0.666  -0.662  -0.657
 -0.643  -0.642  -0.638  -0.638  -0.617  -0.610  -0.610  -0.604
 -0.577  -0.568  -0.564  -0.560  -0.551  -0.542  -0.539  -0.539
 -0.538  -0.537  -0.532  -0.527  -0.525  -0.512  -0.511  -0.506
 -0.498  -0.497  -0.491  -0.491  -0.490  -0.486  -0.485  -0.480
 -0.480  -0.479  -0.479  -0.477  -0.474  -0.474  -0.470  -0.469
 -0.468  -0.465  -0.465  -0.463  -0.462  -0.461  -0.459  -0.454
 -0.454  -0.453  -0.452  -0.449  -0.448  -0.445  -0.445  -0.443
 -0.441  -0.437  -0.436  -0.436  -0.421  -0.419  -0.419  -0.411
 -0.411  -0.410  -0.410  -0.409  -0.409  -0.407  -0.406  -0.403
 -0.399  -0.390  -0.379  -0.378  -0.378  -0.377  -0.377  -0.377
 -0.365  -0.350  -0.348  -0.339  -0.332  -0.329  -0.327  -0.324
 -0.320  -0.318  -0.282  -0.275  -0.270  -0.270  -0.264  -0.264
 -0.260  -0.251  -0.250  -0.247

          Ground-State Mulliken Net Atomic Charges

     Atom                 Charge (a.u.)
  ----------------------------------------
      1 C                    -0.111075
      2 C                    -0.425114
      3 H                     0.244261
      4 C                     0.109178
      5 C                     0.114489
      6 C                    -0.426744
      7 H                     0.241732
      8 C                    -0.113598
      9 C                     0.123732
     10 C                     0.081252
     11 C                    -0.305901
     12 H                     0.204981
     13 C                    -0.262336
     14 H                     0.213346
     15 C                     0.142000
     16 C                    -0.389661
     17 H                     0.216762
     18 C                     0.082597
     19 C                    -0.305367
     20 H                     0.205258
     21 C                    -0.262344
     22 H                     0.213334
     23 C                     0.142396
     24 C                    -0.390172
     25 H                     0.215468
     26 C                     0.122282
     27 C                    -0.709363
     28 H                     0.234537
     29 H                     0.232976
     30 H                     0.234467
     31 C                    -0.709392
     32 H                     0.235296
     33 H                     0.232188
     34 H                     0.235006
     35 B                     0.688692
     36 C                    -0.111707
     37 C                    -0.426304
     38 H                     0.242996
     39 C                     0.110936
     40 C                     0.112642
     41 C                    -0.425576
     42 H                     0.241524
     43 C                    -0.113310
     44 C                     0.121283
     45 C                    -0.388866
     46 H                     0.215520
     47 C                     0.141811
     48 C                    -0.262289
     49 H                     0.213287
     50 C                    -0.306486
     51 H                     0.205272
     52 C                     0.084427
     53 C                     0.123186
     54 C                     0.081942
     55 C                    -0.306462
     56 H                     0.205007
     57 C                    -0.262655
     58 H                     0.213526
     59 C                     0.142489
     60 C                    -0.388825
     61 H                     0.215550
     62 C                    -0.709171
     63 H                     0.234430
     64 H                     0.232616
     65 H                     0.234978
     66 C                    -0.709265
     67 H                     0.234680
     68 H                     0.233322
     69 H                     0.234226
     70 B                     0.692180
     71 C                    -0.221829
     72 C                     0.066972
     73 C                    -0.349238
     74 H                     0.196686
     75 C                     0.130684
     76 C                    -0.342021
     77 H                     0.196677
     78 C                     0.062087
     79 C                    -0.709145
     80 H                     0.226335
     81 H                     0.228549
     82 H                     0.230028
     83 C                    -0.762624
     84 H                     0.235272
     85 H                     0.245211
     86 H                     0.244441
     87 C                    -0.757387
     88 H                     0.234061
     89 H                     0.244792
     90 H                     0.244714
     91 C                    -0.227464
     92 C                     0.061672
     93 C                    -0.347016
     94 H                     0.196644
     95 C                     0.130268
     96 C                    -0.341448
     97 H                     0.196760
     98 C                     0.067714
     99 C                    -0.708688
    100 H                     0.225907
    101 H                     0.227600
    102 H                     0.231691
    103 C                    -0.759058
    104 H                     0.234493
    105 H                     0.244775
    106 H                     0.243117
    107 C                    -0.758014
    108 H                     0.234374
    109 H                     0.244862
    110 H                     0.245463
  ----------------------------------------
  Sum of atomic charges =    -0.000000

                    Cartesian Multipole Moments
 -----------------------------------------------------------------
    Charge (ESU x 10^10)
                -0.0000
    Dipole Moment (Debye)
         X       0.0393      Y      -0.5761      Z       0.0426
       Tot       0.5790
    Quadrupole Moments (Debye-Ang)
        XX    -301.6931     XY      -1.9076     YY    -352.6104
        XZ       1.5265     YZ       4.1455     ZZ    -302.8209

 Total job time:  9225.44s(wall), 45048.77s(cpu)
        *  Thank you very much for using Q-Chem.  Have a nice day.  *
