 Q-Chem 5.1, Q-Chem, Inc., Pleasanton, CA (2018)
 Q-Chem 5.1.1 for Intel X86 EM64T Linux

User input:
--------------------------------------------------------------
$rem
threads 8
jobtype	opt
method PBEh-3c
basis def2-mSVP
mem_static	1024
mem_total	14000
sym_ignore	true
cis_n_roots             2
cis_singlets            true
cis_triplets		false
rpa                     false
cis_state_deriv         1
$end

$molecule
read s1preopt.mol
$end

--------------------------------------------------------------

   15   -2285.1563431536      7.35e-09  Convergence criterion met
 Total energy in the final basis set =    -2285.1563431536
    9   -2285.1563709435      9.55e-09  Convergence criterion met
 Total energy in the final basis set =    -2285.1563709435

             Standard Nuclear Orientation (Angstroms)
    I     Atom           X                Y                Z
 ----------------------------------------------------------------
    1      C      -6.3268631095     3.9733402894     1.7438188146
    2      C      -6.8437390350     2.6458004588     2.0051475451
    3      B      -5.9639711169     1.4007497012     1.8700231467
    4      C      -4.5228510028     1.6107653242     1.3994555931
    5      C      -3.9928056896     2.9371033062     1.1546738853
    6      B      -4.8641776680     4.1851967091     1.3398824418
    7      C      -2.6807009294     3.0401393612     0.6969188372
    8      C      -1.8721899333     1.9425331202     0.4257146739
    9      C      -2.4141158861     0.6249690895     0.6382347800
   10      C      -3.7033529704     0.5165357104     1.1386783743
   11      C      -7.2144264828     5.0455874095     1.8145752595
   12      C      -8.5683246079     4.9050382283     2.0961782044
   13      C      -9.0751066515     3.5847874098     2.3724627638
   14      C      -8.1915748216     2.5169841171     2.3256922581
   15      H      -6.8047875216     6.0252001832     1.6099492885
   16      C      -6.5510410792    -0.0408501521     2.1319529289
   17      C      -4.2990976149     5.6302058839     1.0651882060
   18      C      -7.1432761683    -0.7642461022     1.0897827372
   19      C      -7.6704198386    -2.0302538580     1.3286521292
   20      C      -7.6292778006    -2.6087685348     2.5884661414
   21      C      -7.0420954359    -1.8853849883     3.6203135159
   22      C      -6.5077881163    -0.6210037673     3.4079946408
   23      C      -5.8856519279     0.1353055012     4.5476018467
   24      C      -7.2181914374    -0.1753430437    -0.2920297008
   25      H      -8.1258446304    -2.5762807220     0.5084591758
   26      C      -8.1993164568    -3.9755029600     2.8377393381
   27      H      -6.9993005505    -2.3194256564     4.6145396738
   28      H      -4.8559557375     0.4185857734     4.3209158764
   29      H      -5.8750162595    -0.4526948794     5.4655012151
   30      H      -6.4275662898     1.0610952140     4.7529684823
   31      H      -7.7673842177     0.7683761959    -0.2940470973
   32      H      -7.7163597712    -0.8486367625    -0.9900543494
   33      H      -6.2252664055     0.0389607882    -0.6925629364
   34      H      -8.6248072718    -4.4035828993     1.9304477248
   35      H      -8.9902328123    -3.9488556012     3.5894462544
   36      H      -7.4367768246    -4.6669533295     3.2005866868
   37      C      -3.7496148377     6.3890965198     2.1034160726
   38      C      -3.2495911197     7.6629558761     1.8491164245
   39      C      -3.2819635558     8.2120340389     0.5751893597
   40      C      -3.8360286265     7.4551826987    -0.4510116964
   41      C      -4.3413976450     6.1816023198    -0.2238409424
   42      C      -4.9357813224     5.3927312460    -1.3579185865
   43      C      -3.7024483598     5.8219263502     3.4949371700
   44      H      -2.8232518105     8.2375509901     2.6650720829
   45      C      -2.7366933208     9.5834554590     0.2995674679
   46      H      -3.8744518363     7.8691869043    -1.4541379696
   47      H      -4.9489018874     5.9665848357    -2.2847911153
   48      H      -5.9622990697     5.0913649604    -1.1393227863
   49      H      -4.3753958594     4.4743812675    -1.5463718217
   50      H      -4.7052339741     5.6129836385     3.8737837368
   51      H      -3.2206382647     6.5046456966     4.1950211002
   52      H      -3.1550459560     4.8774722448     3.5214790374
   53      H      -2.3360741052    10.0450483218     1.2015460951
   54      H      -3.5069453385    10.2479792256    -0.0958220969
   55      H      -1.9324147710     9.5523356817    -0.4377161172
   56      C      -0.5208029268     2.0847645801    -0.0809784982
   57      C     -10.4832992692     3.3934845511     2.6639730089
   58      C     -11.0014877764     2.1200687091     2.9482198284
   59      C       1.3288870138     3.5263228278    -0.7666556591
   60      C       2.0650952888     2.3853919583    -1.0781414935
   61      C     -13.1943613496     2.9974202796     3.1895238021
   62      C     -12.3392095299     1.8979467142     3.2095569021
   63      C     -12.8437334089     0.5148036930     3.4983900921
   64      H      -4.1299782818    -0.4591946658     1.3260629586
   65      C       0.0517888485     3.3506590342    -0.2728049560
   66      H      -2.3059927500     4.0398484833     0.5274570841
   67      C      -1.6265542164    -0.5463007214     0.3033682926
   68      C      -0.1480296324    -2.8102910435    -0.3791786857
   69      C      -1.4327475689    -2.9774939748     0.1326746018
   70      C      -2.1443311103    -1.8410856547     0.4623195947
   71      C      -2.0368103488    -4.3385174227     0.3172108714
   72      H      -3.1452646130    -1.9762077713     0.8486888275
   73      H      -8.5479965120     1.5148167377     2.5186597790
   74      H     -10.3430083980     1.2624039516     2.9647230617
   75      C      -9.4823626462     6.0319570467     2.0917743459
   76      C      -9.0329512356     7.3302055822     1.8079938858
   77      C      -9.8768931563     8.4224520935     1.7705792161
   78      C     -11.2280570612     8.2072131926     2.0312388159
   79      C      -9.3453883845     9.7879154255     1.4504923019
   80      H      -7.9853891679     7.4999233008     1.6012023089
   81      C     -10.8541535914     5.8319370072     2.3541736159
   82      C       0.2384748383     0.9397402798    -0.3999595799
   83      C      -0.3259311326    -0.3951651796    -0.2160009040
   84      C     -11.3624024993     4.4945148452     2.6495569816
   85      C       1.5285807703     1.1273043809    -0.8967009659
   86      C       0.3856757548    -1.5494774700    -0.5475948347
   87      H       0.4407023452    -3.6773952323    -0.6527121214
   88      H       1.3841579810    -1.4802407622    -0.9537302989
   89      H      -0.5183428005     4.2365833930    -0.0295663340
   90      C       1.8915691272     4.9031617125    -0.9585232867
   91      H       3.0710467999     2.4820895877    -1.4675673509
   92      H       2.1442873800     0.2776337667    -1.1536973040
   93      C     -11.6986422043     6.9419263564     2.3151430695
   94      H     -12.7561480637     6.8311552096     2.5058104072
   95      H     -11.9216444863     9.0387808338     2.0088395817
   96      C     -12.7125636943     4.2609347871     2.9171930948
   97      H     -14.2506657729     2.8624978123     3.3882826789
   98      H     -13.4211434109     5.0761675994     2.9154013090
   99      H       2.9045132091     4.8704126028    -1.3571272398
  100      H       1.9237642762     5.4524058948    -0.0167492524
  101      H       1.2830263008     5.4861232096    -1.6510911774
  102      H      -1.3516494265    -5.1271074964     0.0091717432
  103      H      -2.9511844514    -4.4491550445    -0.2673874641
  104      H      -2.2989712607    -4.5183229664     1.3606685540
  105      H     -13.9174608662     0.5094638859     3.6813265810
  106      H     -12.6483816615    -0.1602370276     2.6640317095
  107      H     -12.3574702287     0.0894395873     4.3773074225
  108      H     -10.1317308298    10.5410100493     1.4757094153
  109      H      -8.5750047824    10.0902506633     2.1609162202
  110      H      -8.8956366931     9.8135910139     0.4569966722
 ----------------------------------------------------------------

    9   -2285.1563439791      7.56e-09  Convergence criterion met
 Total energy in the final basis set =    -2285.1563439791

         TDDFT/TDA Excitation Energies
 ---------------------------------------------------

 Excited state   1: excitation energy (eV) =    3.0255
 Total energy for state  1:                 -2285.04515717 au
    Multiplicity: Singlet
    Trans. Mom.: -0.0338 X   0.0092 Y  -0.0242 Z
    Strength   :     0.0001340709
    D(204) --> V(  1) amplitude =  0.9591

 Excited state   2: excitation energy (eV) =    3.3037
 Total energy for state  2:                 -2285.03493405 au
    Multiplicity: Singlet
    Trans. Mom.:  0.7353 X  -0.3512 Y  -0.1905 Z
    Strength   :     0.0566793294
    D(201) --> V(  1) amplitude =  0.9098
    D(203) --> V(  1) amplitude =  0.3016

 ---------------------------------------------------

 Final energy is   -2285.04515717219
 **  OPTIMIZATION CONVERGED  **

                    Orbital Energies (a.u.)
 --------------------------------------------------------------

 Alpha MOs
 -- Occupied --
-10.467 -10.467 -10.466 -10.466 -10.463 -10.463 -10.463 -10.463
-10.462 -10.462 -10.462 -10.462 -10.458 -10.458 -10.458 -10.458
-10.449 -10.449 -10.449 -10.449 -10.449 -10.449 -10.448 -10.448
-10.447 -10.447 -10.447 -10.447 -10.447 -10.447 -10.447 -10.446
-10.446 -10.446 -10.445 -10.445 -10.445 -10.445 -10.435 -10.435
-10.435 -10.435 -10.430 -10.430 -10.430 -10.430 -10.429 -10.429
-10.429 -10.429 -10.429 -10.429 -10.424 -10.424 -10.423 -10.423
-10.418 -10.417  -6.941  -6.940  -0.996  -0.996  -0.960  -0.960
 -0.956  -0.954  -0.950  -0.949  -0.902  -0.900  -0.878  -0.877
 -0.876  -0.868  -0.866  -0.866  -0.865  -0.865  -0.850  -0.850
 -0.819  -0.817  -0.814  -0.800  -0.795  -0.795  -0.779  -0.779
 -0.758  -0.755  -0.755  -0.755  -0.754  -0.753  -0.729  -0.715
 -0.713  -0.707  -0.685  -0.678  -0.667  -0.664  -0.663  -0.653
 -0.642  -0.642  -0.637  -0.637  -0.620  -0.614  -0.610  -0.604
 -0.576  -0.567  -0.563  -0.561  -0.550  -0.542  -0.539  -0.539
 -0.539  -0.538  -0.531  -0.529  -0.527  -0.511  -0.511  -0.505
 -0.498  -0.495  -0.491  -0.491  -0.490  -0.486  -0.485  -0.480
 -0.480  -0.479  -0.478  -0.477  -0.476  -0.475  -0.470  -0.469
 -0.469  -0.464  -0.464  -0.463  -0.462  -0.461  -0.458  -0.454
 -0.454  -0.453  -0.452  -0.449  -0.449  -0.445  -0.444  -0.444
 -0.438  -0.437  -0.436  -0.434  -0.420  -0.420  -0.420  -0.413
 -0.411  -0.410  -0.409  -0.409  -0.408  -0.407  -0.407  -0.402
 -0.399  -0.391  -0.379  -0.379  -0.378  -0.377  -0.377  -0.377
 -0.364  -0.354  -0.347  -0.343  -0.331  -0.330  -0.327  -0.326
 -0.320  -0.317  -0.282  -0.274  -0.270  -0.270  -0.264  -0.263
 -0.261  -0.253  -0.249  -0.245

          Ground-State Mulliken Net Atomic Charges

     Atom                 Charge (a.u.)
  ----------------------------------------
      1 C                    -0.112456
      2 C                    -0.111754
      3 B                     0.674073
      4 C                    -0.111616
      5 C                    -0.113033
      6 B                     0.676047
      7 C                    -0.425986
      8 C                     0.109607
      9 C                     0.107953
     10 C                    -0.427283
     11 C                    -0.426572
     12 C                     0.111264
     13 C                     0.107371
     14 C                    -0.425502
     15 H                     0.241916
     16 C                    -0.227602
     17 C                    -0.222480
     18 C                     0.057686
     19 C                    -0.344694
     20 C                     0.130395
     21 C                    -0.337357
     22 C                     0.064793
     23 C                    -0.756853
     24 C                    -0.755952
     25 H                     0.196653
     26 C                    -0.709803
     27 H                     0.197049
     28 H                     0.244074
     29 H                     0.233596
     30 H                     0.242856
     31 H                     0.245312
     32 H                     0.233478
     33 H                     0.244223
     34 H                     0.225894
     35 H                     0.229575
     36 H                     0.230090
     37 C                     0.063289
     38 C                    -0.344712
     39 C                     0.130315
     40 C                    -0.338901
     41 C                     0.058238
     42 C                    -0.755762
     43 C                    -0.759217
     44 H                     0.196562
     45 C                    -0.709683
     46 H                     0.196850
     47 H                     0.233225
     48 H                     0.244327
     49 H                     0.244776
     50 H                     0.244475
     51 H                     0.234148
     52 H                     0.243607
     53 H                     0.226186
     54 H                     0.229489
     55 H                     0.229537
     56 C                     0.125291
     57 C                     0.127515
     58 C                    -0.386668
     59 C                     0.136580
     60 C                    -0.267903
     61 C                    -0.268265
     62 C                     0.137361
     63 C                    -0.708705
     64 H                     0.243158
     65 C                    -0.385574
     66 H                     0.241658
     67 C                     0.127237
     68 C                    -0.268111
     69 C                     0.137233
     70 C                    -0.386243
     71 C                    -0.708784
     72 H                     0.217729
     73 H                     0.243862
     74 H                     0.218490
     75 C                     0.125989
     76 C                    -0.386701
     77 C                     0.137092
     78 C                    -0.268289
     79 C                    -0.708614
     80 H                     0.217458
     81 C                     0.092756
     82 C                     0.094191
     83 C                     0.091925
     84 C                     0.090776
     85 C                    -0.306654
     86 C                    -0.306599
     87 H                     0.213416
     88 H                     0.205433
     89 H                     0.217354
     90 C                    -0.708540
     91 H                     0.213224
     92 H                     0.205777
     93 C                    -0.305814
     94 H                     0.205727
     95 H                     0.213229
     96 C                    -0.305936
     97 H                     0.213368
     98 H                     0.205425
     99 H                     0.227666
    100 H                     0.238311
    101 H                     0.238066
    102 H                     0.227656
    103 H                     0.238249
    104 H                     0.238408
    105 H                     0.227530
    106 H                     0.238698
    107 H                     0.237896
    108 H                     0.227649
    109 H                     0.238192
    110 H                     0.238116
  ----------------------------------------
  Sum of atomic charges =    -0.000000

                    Cartesian Multipole Moments
 -----------------------------------------------------------------
    Charge (ESU x 10^10)
                -0.0000
    Dipole Moment (Debye)
         X      -0.1721      Y      -0.0919      Z      -0.5206
       Tot       0.5559
    Quadrupole Moments (Debye-Ang)
        XX    -307.5693     XY       1.8797     YY    -302.0355
        XZ     -10.3784     YZ      -6.0098     ZZ    -350.8968

 Total job time:  8860.59s(wall), 63185.98s(cpu)
        *  Thank you very much for using Q-Chem.  Have a nice day.  *
