 Q-Chem 5.1, Q-Chem, Inc., Pleasanton, CA (2018)
 Q-Chem 5.1.1 for Intel X86 EM64T Linux

User input:
--------------------------------------------------------------
$rem
threads 8
jobtype	sp
method PBEh-3c
basis def2-mSVP
mem_static	1024
mem_total	10000
sym_ignore	true
cis_n_roots             6
cis_singlets            true
cis_triplets		true
rpa                     false
calc_soc 		true
cis_moments             true
cis_relaxed_density	true
$end

$molecule
read s1opt.mol
$end

--------------------------------------------------------------

             Standard Nuclear Orientation (Angstroms)
    I     Atom           X                Y                Z
 ----------------------------------------------------------------
    1      C       0.0000000000     0.0000000000     0.0000000000
    2      C       0.0000000000     0.0000000000     1.3914040000
    3      H       0.9673723882     0.0000000000     1.8739012032
    4      C      -1.1542983838    -0.0335117325     2.1591880178
    5      C      -2.4263058863    -0.0467082162     1.4823961175
    6      C      -2.4339301756    -0.0063511468     0.0930050217
    7      H      -3.3738596771    -0.0083787593    -0.4416408830
    8      C      -1.2767995294     0.0043143715    -0.6837985585
    9      C      -1.1018287011    -0.0817189546     3.6081551367
   10      C       0.1231867722    -0.0582407777     4.2934946071
   11      H       1.0490268718     0.0098230769     3.7388382620
   12      C       0.2116929039    -0.1235204200     5.6700986217
   13      C      -0.9763462720    -0.2121122858     6.3920691242
   14      H      -0.9471604560    -0.2666420857     7.4735790630
   15      C      -2.1947275476    -0.2331245995     5.7456432098
   16      H      -3.0830719860    -0.3025561754     6.3561488965
   17      C      -2.2936806018    -0.1699708092     4.3544771435
   18      C      -3.6469433050    -0.1301414915     2.2624686787
   19      C      -4.9043878430    -0.1656212540     1.6415612226
   20      H      -4.9696958429    -0.1170335008     0.5634487748
   21      C      -6.0854578001    -0.2693778461     2.3493375600
   22      C      -6.0053637683    -0.3375283436     3.7381696523
   23      H      -6.9098994203    -0.4218661267     4.3278927598
   24      C      -4.7829626840    -0.3030195126     4.3765648480
   25      H      -4.7785038380    -0.3630411324     5.4551378621
   26      C      -3.5841309748    -0.1994984663     3.6702734380
   27      C      -7.4030841570    -0.3146946328     1.6343206322
   28      H      -8.2365602243    -0.3817987558     2.3321286763
   29      H      -7.5538808575     0.5763964402     1.0237329088
   30      H      -7.4609280793    -1.1759944281     0.9673980447
   31      C       1.5472704737    -0.1044761964     6.3534162608
   32      H       1.4448595954    -0.1641407122     7.4361614372
   33      H       2.0984033495     0.8085476271     6.1242399570
   34      H       2.1672662561    -0.9434447692     6.0344615010
   35      B       1.3218328499    -0.0721738459    -0.7680830385
   36      C       1.2394753511    -0.1882704407    -2.2919294394
   37      C       2.3944861707    -0.3791842554    -3.0445400062
   38      H       3.3271663740    -0.3971904481    -2.4977710043
   39      C       2.3927248672    -0.5686934263    -4.4187372663
   40      C       1.1328008782    -0.5126279920    -5.1146340903
   41      C      -0.0234095880    -0.3088210174    -4.3705772801
   42      H      -0.9842629001    -0.2822738271    -4.8651454771
   43      C      -0.0332239056    -0.1651455251    -2.9845627078
   44      C       1.1041871812    -0.6908484653    -6.5536032281
   45      C      -0.0993263659    -0.6135681910    -7.2696544858
   46      H      -1.0210367378    -0.4073175074    -6.7433575913
   47      C      -0.1684666971    -0.7920744852    -8.6367975463
   48      C       1.0189260168    -1.0555462028    -9.3160847437
   49      H       1.0056738944    -1.2010818105   -10.3892039136
   50      C       2.2179727392    -1.1341049424    -8.6380963544
   51      H       3.1078638394    -1.3397292083    -9.2150670216
   52      C       2.2976443089    -0.9569498854    -7.2565843830
   53      C       3.6140597121    -0.8468102355    -5.1503470703
   54      C       4.8496766029    -0.9470207499    -4.4922930930
   55      H       4.9012780938    -0.8075066676    -3.4211817067
   56      C       6.0282320925    -1.2330284487    -5.1523285013
   57      C       5.9668177687    -1.4282258062    -6.5302174875
   58      H       6.8694716313    -1.6577100624    -7.0832538550
   59      C       4.7658517516    -1.3373641095    -7.2027368183
   60      H       4.7775102802    -1.5037184473    -8.2699280163
   61      C       3.5697366409    -1.0475321807    -6.5438870575
   62      C      -1.4829325689    -0.7049953602    -9.3535302622
   63      H      -1.3680334165    -0.8719141709   -10.4235530531
   64      H      -1.9432298949     0.2745787932    -9.2186051313
   65      H      -2.1883210018    -1.4472180049    -8.9775632882
   66      C       7.3216770112    -1.3346129203    -4.3986640973
   67      H       8.1547613173    -1.5678076155    -5.0603281256
   68      H       7.5578215650    -0.4002724935    -3.8876789609
   69      H       7.2768569003    -2.1146613525    -3.6373550261
   70      B      -1.3528701127    -0.0422405930    -2.2133546318
   71      C      -2.7415403781    -0.0275409856    -2.9578027514
   72      C      -3.3418487867     1.1821560951    -3.3211564077
   73      C      -4.5668542946     1.1837575604    -3.9820418781
   74      H      -5.0176722524     2.1308960422    -4.2602519158
   75      C      -5.2217793038     0.0011514608    -4.2949979132
   76      C      -4.6229978149    -1.1976747449    -3.9246235353
   77      H      -5.1220194544    -2.1337283685    -4.1568272461
   78      C      -3.4011758319    -1.2267222768    -3.2648357383
   79      C      -6.5399640472     0.0026165415    -5.0136575601
   80      H      -6.8746085052     1.0152403853    -5.2366735594
   81      H      -7.3194991133    -0.4782857338    -4.4201333579
   82      H      -6.4792562514    -0.5383956325    -5.9597234498
   83      C      -2.6573742405     2.4800576231    -2.9937654475
   84      H      -3.2186489515     3.3387969363    -3.3624133625
   85      H      -1.6575229925     2.5239910807    -3.4304754016
   86      H      -2.5335543180     2.6038728735    -1.9157582800
   87      C      -2.7844496232    -2.5424736148    -2.8772928629
   88      H      -3.4323378388    -3.3817145532    -3.1312389483
   89      H      -2.5854245605    -2.5892484155    -1.8046582441
   90      H      -1.8271292740    -2.7012735774    -3.3785256106
   91      C       2.7035268811    -0.1037202479    -0.0055896908
   92      C       3.2634653450    -1.3228070421     0.3949832838
   93      C       4.4762830298    -1.3444878466     1.0778575904
   94      H       4.8951294283    -2.2990428132     1.3806212828
   95      C       5.1601563396    -0.1768219696     1.3817924536
   96      C       4.5987775081     1.0311437845     0.9837370008
   97      H       5.1173798582     1.9573610460     1.2115104919
   98      C       3.3906366555     1.0799643519     0.3001903646
   99      C       6.4686316908    -0.2087760481     2.1179405464
  100      H       6.7668027030    -1.2283951770     2.3607225935
  101      H       7.2711815807     0.2359633503     1.5268832580
  102      H       6.4151033016     0.3486759073     3.0547991647
  103      C       2.8097911403     2.4036588297    -0.1099475378
  104      H       3.4706376664     3.2321208077     0.1456480775
  105      H       2.6283477598     2.4413311215    -1.1858510774
  106      H       1.8486563812     2.5837283114     0.3766000580
  107      C       2.5551180453    -2.6150515038     0.0946970097
  108      H       3.1053610857    -3.4743753668     0.4787927785
  109      H       1.5578627995    -2.6356842566     0.5388591833
  110      H       2.4230265847    -2.7614805308    -0.9792501713
 ----------------------------------------------------------------

   15   -2285.1560643747      7.32e-09  Convergence criterion met
 Total energy in the final basis set =    -2285.1560643747

         TDDFT/TDA Excitation Energies
 ---------------------------------------------------

 Excited state   1: excitation energy (eV) =    2.3640
 Total energy for state  1:                 -2285.06918921 au
    Multiplicity: Triplet
    Trans. Mom.:  0.0000 X   0.0000 Y   0.0000 Z
    Strength   :     0.0000000000
    D(200) --> V(  3) amplitude = -0.2306
    D(204) --> V(  1) amplitude =  0.8985

 Excited state   2: excitation energy (eV) =    2.8349
 Total energy for state  2:                 -2285.05188485 au
    Multiplicity: Triplet
    Trans. Mom.:  0.0000 X   0.0000 Y   0.0000 Z
    Strength   :     0.0000000000
    D(200) --> V(  1) amplitude =  0.7424
    D(204) --> V(  3) amplitude = -0.4336

 Excited state   3: excitation energy (eV) =    2.8442
 Total energy for state  3:                 -2285.05154246 au
    Multiplicity: Triplet
    Trans. Mom.:  0.0000 X   0.0000 Y   0.0000 Z
    Strength   :     0.0000000000
    D(196) --> V(  1) amplitude = -0.4572
    D(203) --> V(  1) amplitude =  0.8213

 Excited state   4: excitation energy (eV) =    3.0252
 Total energy for state  4:                 -2285.04488943 au
    Multiplicity: Triplet
    Trans. Mom.:  0.0000 X   0.0000 Y   0.0000 Z
    Strength   :     0.0000000000
    D(195) --> V(  1) amplitude = -0.5034
    D(202) --> V(  1) amplitude =  0.7696
    D(203) --> V(  3) amplitude = -0.2555

 Excited state   5: excitation energy (eV) =    3.0254
 Total energy for state  5:                 -2285.04488368 au
    Multiplicity: Singlet
    Trans. Mom.: -0.0173 X  -0.0296 Y   0.0300 Z
    Strength   :     0.0001540171
    D(204) --> V(  1) amplitude =  0.9591

 Excited state   6: excitation energy (eV) =    3.2186
 Total energy for state  6:                 -2285.03778387 au
    Multiplicity: Triplet
    Trans. Mom.:  0.0000 X   0.0000 Y   0.0000 Z
    Strength   :     0.0000000000
    D(188) --> V(  1) amplitude = -0.2201
    D(201) --> V(  1) amplitude =  0.9427

 Excited state   7: excitation energy (eV) =    3.3035
 Total energy for state  7:                 -2285.03466466 au
    Multiplicity: Singlet
    Trans. Mom.: -0.4058 X   0.0593 Y   0.7066 Z
    Strength   :     0.0540213028
    D(201) --> V(  1) amplitude =  0.9114
    D(203) --> V(  1) amplitude = -0.2962

 Excited state   8: excitation energy (eV) =    3.3145
 Total energy for state  8:                 -2285.03426018 au
    Multiplicity: Singlet
    Trans. Mom.:  1.1393 X  -0.1547 Y  -2.1342 Z
    Strength   :     0.4772168576
    D(196) --> V(  1) amplitude = -0.2234
    D(201) --> V(  1) amplitude =  0.3131
    D(203) --> V(  1) amplitude =  0.8637
    D(204) --> V(  2) amplitude =  0.2283

 Excited state   9: excitation energy (eV) =    3.4018
 Total energy for state  9:                 -2285.03105072 au
    Multiplicity: Triplet
    Trans. Mom.:  0.0000 X   0.0000 Y   0.0000 Z
    Strength   :     0.0000000000
    D(199) --> V(  1) amplitude =  0.9519

 Excited state  10: excitation energy (eV) =    3.4409
 Total energy for state 10:                 -2285.02961379 au
    Multiplicity: Singlet
    Trans. Mom.:  0.0441 X   0.0019 Y   0.0436 Z
    Strength   :     0.0003246986
    D(199) --> V(  1) amplitude =  0.9598

 Excited state  11: excitation energy (eV) =    3.5375
 Total energy for state 11:                 -2285.02606353 au
    Multiplicity: Singlet
    Trans. Mom.: -0.0097 X   0.1331 Y   0.0129 Z
    Strength   :     0.0015573345
    D(202) --> V(  1) amplitude =  0.9343

 Excited state  12: excitation energy (eV) =    3.8244
 Total energy for state 12:                 -2285.01551999 au
    Multiplicity: Singlet
    Trans. Mom.: -1.3180 X   0.0251 Y  -0.7135 Z
    Strength   :     0.2105272577
    D(200) --> V(  1) amplitude =  0.9379

 ---------------------------------------------------

                    Orbital Energies (a.u.)
 --------------------------------------------------------------

 Alpha MOs
 -- Occupied --
-10.467 -10.467 -10.466 -10.466 -10.463 -10.463 -10.463 -10.463
-10.462 -10.462 -10.462 -10.462 -10.458 -10.458 -10.458 -10.458
-10.449 -10.449 -10.449 -10.449 -10.449 -10.449 -10.448 -10.448
-10.447 -10.447 -10.447 -10.447 -10.447 -10.447 -10.447 -10.446
-10.446 -10.446 -10.445 -10.445 -10.445 -10.445 -10.435 -10.435
-10.435 -10.435 -10.430 -10.430 -10.430 -10.430 -10.429 -10.429
-10.429 -10.429 -10.429 -10.429 -10.424 -10.424 -10.423 -10.423
-10.418 -10.417  -6.941  -6.940  -0.996  -0.996  -0.960  -0.960
 -0.956  -0.954  -0.950  -0.949  -0.902  -0.900  -0.878  -0.877
 -0.876  -0.868  -0.866  -0.866  -0.865  -0.865  -0.850  -0.850
 -0.819  -0.817  -0.814  -0.800  -0.795  -0.795  -0.779  -0.779
 -0.758  -0.755  -0.755  -0.755  -0.754  -0.753  -0.729  -0.715
 -0.713  -0.707  -0.685  -0.678  -0.667  -0.664  -0.663  -0.653
 -0.642  -0.642  -0.637  -0.637  -0.620  -0.614  -0.610  -0.604
 -0.576  -0.567  -0.563  -0.561  -0.550  -0.542  -0.539  -0.539
 -0.539  -0.538  -0.531  -0.529  -0.527  -0.511  -0.511  -0.505
 -0.498  -0.495  -0.491  -0.491  -0.490  -0.486  -0.485  -0.480
 -0.480  -0.479  -0.478  -0.477  -0.476  -0.475  -0.470  -0.469
 -0.469  -0.464  -0.464  -0.463  -0.462  -0.461  -0.458  -0.454
 -0.454  -0.453  -0.452  -0.449  -0.449  -0.445  -0.444  -0.444
 -0.438  -0.437  -0.436  -0.434  -0.420  -0.420  -0.420  -0.413
 -0.411  -0.410  -0.409  -0.409  -0.408  -0.407  -0.407  -0.402
 -0.399  -0.391  -0.379  -0.379  -0.378  -0.377  -0.377  -0.377
 -0.364  -0.354  -0.347  -0.343  -0.331  -0.330  -0.327  -0.326
 -0.320  -0.317  -0.282  -0.274  -0.270  -0.270  -0.264  -0.263
 -0.261  -0.253  -0.249  -0.245

          Ground-State Mulliken Net Atomic Charges

     Atom                 Charge (a.u.)
  ----------------------------------------
      1 C                    -0.111276
      2 C                    -0.425782
      3 H                     0.243983
      4 C                     0.106709
      5 C                     0.111850
      6 C                    -0.427041
      7 H                     0.241947
      8 C                    -0.112872
      9 C                     0.127723
     10 C                    -0.387079
     11 H                     0.218575
     12 C                     0.137626
     13 C                    -0.268263
     14 H                     0.213307
     15 C                    -0.306130
     16 H                     0.205471
     17 C                     0.090987
     18 C                     0.126303
     19 C                    -0.386964
     20 H                     0.217391
     21 C                     0.137411
     22 C                    -0.268328
     23 H                     0.213272
     24 C                    -0.305566
     25 H                     0.205695
     26 C                     0.092386
     27 C                    -0.708720
     28 H                     0.227663
     29 H                     0.238179
     30 H                     0.238125
     31 C                    -0.708762
     32 H                     0.227527
     33 H                     0.237898
     34 H                     0.238701
     35 B                     0.674141
     36 C                    -0.112079
     37 C                    -0.426873
     38 H                     0.243182
     39 C                     0.108058
     40 C                     0.109998
     41 C                    -0.426223
     42 H                     0.241640
     43 C                    -0.112968
     44 C                     0.124888
     45 C                    -0.385713
     46 H                     0.217375
     47 C                     0.137037
     48 C                    -0.268001
     49 H                     0.213257
     50 C                    -0.306654
     51 H                     0.205735
     52 C                     0.094286
     53 C                     0.126943
     54 C                    -0.386177
     55 H                     0.217705
     56 C                     0.136998
     57 C                    -0.267978
     58 H                     0.213393
     59 C                    -0.306691
     60 H                     0.205442
     61 C                     0.092041
     62 C                    -0.708709
     63 H                     0.227682
     64 H                     0.238315
     65 H                     0.238067
     66 C                    -0.708741
     67 H                     0.227647
     68 H                     0.238433
     69 H                     0.238262
     70 B                     0.676979
     71 C                    -0.222781
     72 C                     0.063615
     73 C                    -0.344743
     74 H                     0.196586
     75 C                     0.130076
     76 C                    -0.338646
     77 H                     0.196767
     78 C                     0.058110
     79 C                    -0.709586
     80 H                     0.226167
     81 H                     0.229503
     82 H                     0.229511
     83 C                    -0.759495
     84 H                     0.234165
     85 H                     0.243674
     86 H                     0.244479
     87 C                    -0.755704
     88 H                     0.233198
     89 H                     0.244327
     90 H                     0.244704
     91 C                    -0.227529
     92 C                     0.057931
     93 C                    -0.344806
     94 H                     0.196679
     95 C                     0.130269
     96 C                    -0.337133
     97 H                     0.196979
     98 C                     0.064617
     99 C                    -0.709781
    100 H                     0.225891
    101 H                     0.230118
    102 H                     0.229563
    103 C                    -0.756673
    104 H                     0.233554
    105 H                     0.244076
    106 H                     0.242764
    107 C                    -0.756213
    108 H                     0.233499
    109 H                     0.245374
    110 H                     0.244252
  ----------------------------------------
  Sum of atomic charges =    -0.000000

                    Cartesian Multipole Moments
 -----------------------------------------------------------------
    Charge (ESU x 10^10)
                -0.0000
    Dipole Moment (Debye)
         X       0.0257      Y      -0.5529      Z       0.0546
       Tot       0.5562
    Quadrupole Moments (Debye-Ang)
        XX    -301.9054     XY      -1.9746     YY    -353.0247
        XZ       3.4264     YZ       3.3842     ZZ    -305.3667

 Total job time:  7848.28s(wall), 36188.92s(cpu)
        *  Thank you very much for using Q-Chem.  Have a nice day.  *
