 Q-Chem 5.1, Q-Chem, Inc., Pleasanton, CA (2018)
 Q-Chem 5.1.1 for Intel X86 EM64T Linux

User input:
--------------------------------------------------------------
$rem
threads 8
jobtype	opt
method PBEh-3c
basis def2-mSVP
mem_static	1024
mem_total	14000
sym_ignore	true
cis_n_roots             2
cis_singlets            false
cis_triplets		true
rpa                     false
cis_state_deriv         1
$end

$molecule
read incoords.mol
$end

--------------------------------------------------------------

   15   -2285.1037446858      4.90e-09  Convergence criterion met
 Total energy in the final basis set =    -2285.1037446858
   12   -2285.1428265472      9.77e-09  Convergence criterion met
 Total energy in the final basis set =    -2285.1428265472
   13   -2285.1553505518      7.13e-09  Convergence criterion met
 Total energy in the final basis set =    -2285.1553505518
   12   -2285.1563893357      8.96e-09  Convergence criterion met
 Total energy in the final basis set =    -2285.1563893357
   12   -2285.1559901868      7.42e-09  Convergence criterion met
 Total energy in the final basis set =    -2285.1559901868
   12   -2285.1563515321      7.13e-09  Convergence criterion met
 Total energy in the final basis set =    -2285.1563515321
   10   -2285.1565682509      9.48e-09  Convergence criterion met
 Total energy in the final basis set =    -2285.1565682509
   10   -2285.1565358280      7.44e-09  Convergence criterion met
 Total energy in the final basis set =    -2285.1565358280
   10   -2285.1565764528      7.49e-09  Convergence criterion met
 Total energy in the final basis set =    -2285.1565764528
    9   -2285.1565212755      8.68e-09  Convergence criterion met
 Total energy in the final basis set =    -2285.1565212755
    9   -2285.1565098609      9.33e-09  Convergence criterion met
 Total energy in the final basis set =    -2285.1565098609
    9   -2285.1565155492      7.17e-09  Convergence criterion met
 Total energy in the final basis set =    -2285.1565155492

             Standard Nuclear Orientation (Angstroms)
    I     Atom           X                Y                Z
 ----------------------------------------------------------------
    1      C      -6.3319104729     3.9739919151     1.7405968015
    2      C      -6.8470084394     2.6463769255     2.0049015637
    3      B      -5.9608172301     1.4034709672     1.8708773686
    4      C      -4.5178885383     1.6095327932     1.3982429817
    5      C      -3.9898331889     2.9361575197     1.1497755379
    6      B      -4.8672087676     4.1823516742     1.3348586845
    7      C      -2.6799176483     3.0427434976     0.6912372357
    8      C      -1.8671458234     1.9451978519     0.4235615855
    9      C      -2.4116161815     0.6233819954     0.6323584590
   10      C      -3.7022574923     0.5157571305     1.1371170631
   11      C      -7.2177500380     5.0459628477     1.8075542295
   12      C      -8.5736763177     4.9058671549     2.0887521637
   13      C      -9.0802286557     3.5817116922     2.3684378549
   14      C      -8.1922629814     2.5140618297     2.3242479930
   15      H      -6.8089014906     6.0260860477     1.6029765638
   16      C      -6.5451545969    -0.0351238348     2.1428132944
   17      C      -4.3019917325     5.6250880638     1.0612686000
   18      C      -7.1506904653    -0.7588017842     1.1093883697
   19      C      -7.6802756199    -2.0211096911     1.3606838831
   20      C      -7.6282253589    -2.5932774399     2.6231746601
   21      C      -7.0259685168    -1.8679366435     3.6450393131
   22      C      -6.4885233039    -0.6072008996     3.4210932235
   23      C      -5.8519259970     0.1544386828     4.5489760743
   24      C      -7.2412457840    -0.1727447280    -0.2727107159
   25      H      -8.1464145208    -2.5691466556     0.5480271233
   26      C      -8.2010927733    -3.9562762176     2.8854863370
   27      H      -6.9732331101    -2.2976199131     4.6405777648
   28      H      -4.8305717202     0.4510505133     4.3022526259
   29      H      -5.8135955017    -0.4350474971     5.4649755103
   30      H      -6.4028946440     1.0716780897     4.7690132699
   31      H      -7.8182818519     0.7544643501    -0.2749754274
   32      H      -7.7202603727    -0.8594689697    -0.9707160554
   33      H      -6.2548156960     0.0685016548    -0.6738202009
   34      H      -8.6431942800    -4.3848421382     1.9864512862
   35      H      -8.9794775471    -3.9233111646     3.6498477445
   36      H      -7.4359337377    -4.6502058568     3.2379170787
   37      C      -3.7496219137     6.3782545830     2.1011886318
   38      C      -3.2460067919     7.6505264398     1.8475667218
   39      C      -3.2777372688     8.2008163548     0.5739231393
   40      C      -3.8354175110     7.4473041617    -0.4529122116
   41      C      -4.3450488504     6.1754660138    -0.2271181407
   42      C      -4.9404311355     5.3861196128    -1.3601432215
   43      C      -3.7028929703     5.8064775171     3.4908418286
   44      H      -2.8170514967     8.2226214466     2.6637722318
   45      C      -2.7278584267     9.5704479975     0.2990626072
   46      H      -3.8733023986     7.8625179423    -1.4554462823
   47      H      -4.9679071487     5.9638986561    -2.2840468676
   48      H      -5.9622063299     5.0729117146    -1.1356608603
   49      H      -4.3700820244     4.4757863677    -1.5582219352
   50      H      -4.7056293795     5.5949301400     3.8686085154
   51      H      -3.2235195689     6.4875287920     4.1939261437
   52      H      -3.1516947780     4.8639820552     3.5153704411
   53      H      -2.3288737463    10.0318177624     1.2018434106
   54      H      -3.4952244171    10.2363993185    -0.0994169362
   55      H      -1.9213408235     9.5361342818    -0.4356077133
   56      C      -0.5127314941     2.0884114996    -0.0734364104
   57      C     -10.4872442193     3.3887934205     2.6595650162
   58      C     -11.0053528871     2.1153876658     2.9431421478
   59      C       1.3498274542     3.5280841232    -0.7271682311
   60      C       2.0820041905     2.3882292325    -1.0487545394
   61      C     -13.1977970188     2.9926978118     3.1897249109
   62      C     -12.3431998843     1.8935735320     3.2065717311
   63      C     -12.8476470009     0.5099950160     3.4945148220
   64      H      -4.1276261643    -0.4603984649     1.3261048317
   65      C       0.0678733869     3.3532064932    -0.2433433957
   66      H      -2.3067527732     4.0424959461     0.5173140876
   67      C      -1.6289315881    -0.5463085685     0.2859399510
   68      C      -0.1614137513    -2.8069710431    -0.4325314899
   69      C      -1.4427276164    -2.9760913096     0.0856578672
   70      C      -2.1497093781    -1.8412633780     0.4325402387
   71      C      -2.0495294462    -4.3375518412     0.2586912758
   72      H      -3.1493888241    -1.9785254745     0.8216220290
   73      H      -8.5477250905     1.5121886164     2.5211823316
   74      H     -10.3477569604     1.2568786434     2.9573832437
   75      C      -9.4886913090     6.0315657413     2.0812216636
   76      C      -9.0426858074     7.3293446461     1.7921990727
   77      C      -9.8895340227     8.4203455659     1.7542799780
   78      C     -11.2389058223     8.2039358988     2.0195294698
   79      C      -9.3615065471     9.7853954492     1.4262916479
   80      H      -7.9961149674     7.5011615683     1.5814714934
   81      C     -10.8595241319     5.8297311569     2.3472678516
   82      C       0.2428694025     0.9436487410    -0.4017994605
   83      C      -0.3293280078    -0.3931867559    -0.2366305401
   84      C     -11.3666146887     4.4899192051     2.6462563324
   85      C       1.5367709611     1.1301958841    -0.8863019527
   86      C       0.3753983853    -1.5446700454    -0.5878323760
   87      H       0.4224797078    -3.6722191629    -0.7217953698
   88      H       1.3709888625    -1.4733587447    -1.0006790377
   89      H      -0.4973851978     4.2392419094     0.0113797501
   90      C       1.9213907660     4.9044193135    -0.8956688097
   91      H       3.0913857077     2.4843656158    -1.4293113315
   92      H       2.1504016955     0.2802486375    -1.1473284750
   93      C     -11.7058066769     6.9372605690     2.3077253986
   94      H     -12.7625961674     6.8245269018     2.5013383055
   95      H     -11.9342615931     9.0339984968     1.9973981788
   96      C     -12.7151798966     4.2567027071     2.9167455949
   97      H     -14.2537022096     2.8582562105     3.3908416261
   98      H     -13.4233260274     5.0723263925     2.9169718557
   99      H       2.9369428251     4.8714923276    -1.2876844729
  100      H       1.9504596805     5.4404439267     0.0539287260
  101      H       1.3211140408     5.5006773591    -1.5842382400
  102      H      -1.3724981704    -5.1239382105    -0.0723087006
  103      H      -2.9735668184    -4.4359877273    -0.3128248745
  104      H      -2.2955592317    -4.5326327385     1.3034381804
  105      H     -13.9206217580     0.5051332610     3.6821035363
  106      H     -12.6567734043    -0.1634980145     2.6577645312
  107      H     -12.3581240684     0.0819461420     4.3703914991
  108      H     -10.1437137674    10.5415151580     1.4778652332
  109      H      -8.5694837403    10.0811297211     2.1153791201
  110      H      -8.9408615606     9.8145600518     0.4200448299
 ----------------------------------------------------------------

    9   -2285.1565099986      6.96e-09  Convergence criterion met
 Total energy in the final basis set =    -2285.1565099986

         TDDFT/TDA Excitation Energies
 ---------------------------------------------------

 Excited state   1: excitation energy (eV) =    2.3652
 Total energy for state  1:                 -2285.06959090 au
    Multiplicity: Triplet
    Trans. Mom.:  0.0000 X   0.0000 Y   0.0000 Z
    Strength   :     0.0000000000
    D(200) --> V(  3) amplitude = -0.2367
    D(204) --> V(  1) amplitude =  0.8980

 Excited state   2: excitation energy (eV) =    2.8631
 Total energy for state  2:                 -2285.05129288 au
    Multiplicity: Triplet
    Trans. Mom.:  0.0000 X   0.0000 Y   0.0000 Z
    Strength   :     0.0000000000
    D(196) --> V(  1) amplitude = -0.4588
    D(203) --> V(  1) amplitude =  0.8190

 ---------------------------------------------------

 Final energy is   -2285.06959089579
 **  OPTIMIZATION CONVERGED  **

                    Orbital Energies (a.u.)
 --------------------------------------------------------------

 Alpha MOs
 -- Occupied --
-10.468 -10.467 -10.467 -10.467 -10.463 -10.463 -10.463 -10.463
-10.462 -10.462 -10.462 -10.462 -10.458 -10.458 -10.458 -10.458
-10.449 -10.449 -10.449 -10.449 -10.449 -10.449 -10.448 -10.448
-10.447 -10.447 -10.447 -10.447 -10.447 -10.447 -10.447 -10.446
-10.446 -10.446 -10.445 -10.445 -10.445 -10.445 -10.435 -10.435
-10.435 -10.435 -10.430 -10.430 -10.430 -10.430 -10.429 -10.429
-10.429 -10.429 -10.429 -10.429 -10.424 -10.424 -10.423 -10.423
-10.417 -10.416  -6.941  -6.940  -0.996  -0.996  -0.960  -0.960
 -0.956  -0.954  -0.950  -0.948  -0.902  -0.899  -0.878  -0.877
 -0.876  -0.868  -0.866  -0.866  -0.865  -0.865  -0.850  -0.850
 -0.819  -0.817  -0.814  -0.800  -0.795  -0.795  -0.779  -0.779
 -0.758  -0.755  -0.755  -0.755  -0.754  -0.753  -0.729  -0.715
 -0.713  -0.708  -0.685  -0.678  -0.667  -0.663  -0.663  -0.653
 -0.642  -0.642  -0.637  -0.637  -0.620  -0.614  -0.610  -0.604
 -0.576  -0.567  -0.563  -0.562  -0.550  -0.542  -0.539  -0.539
 -0.539  -0.538  -0.531  -0.529  -0.527  -0.511  -0.511  -0.505
 -0.497  -0.495  -0.491  -0.491  -0.490  -0.486  -0.485  -0.480
 -0.480  -0.479  -0.478  -0.477  -0.476  -0.475  -0.470  -0.469
 -0.469  -0.464  -0.464  -0.462  -0.462  -0.461  -0.458  -0.454
 -0.454  -0.453  -0.452  -0.449  -0.448  -0.445  -0.444  -0.444
 -0.438  -0.437  -0.437  -0.434  -0.420  -0.420  -0.420  -0.413
 -0.411  -0.410  -0.409  -0.409  -0.408  -0.407  -0.407  -0.402
 -0.399  -0.391  -0.379  -0.379  -0.378  -0.377  -0.377  -0.377
 -0.364  -0.353  -0.347  -0.343  -0.331  -0.330  -0.327  -0.326
 -0.320  -0.317  -0.282  -0.274  -0.270  -0.270  -0.264  -0.262
 -0.261  -0.253  -0.249  -0.245

          Ground-State Mulliken Net Atomic Charges

     Atom                 Charge (a.u.)
  ----------------------------------------
      1 C                    -0.113037
      2 C                    -0.111508
      3 B                     0.675866
      4 C                    -0.111607
      5 C                    -0.113639
      6 B                     0.677766
      7 C                    -0.423215
      8 C                     0.104157
      9 C                     0.102743
     10 C                    -0.424745
     11 C                    -0.424567
     12 C                     0.106704
     13 C                     0.101707
     14 C                    -0.423268
     15 H                     0.241743
     16 C                    -0.228327
     17 C                    -0.222831
     18 C                     0.058944
     19 C                    -0.345681
     20 C                     0.130794
     21 C                    -0.338727
     22 C                     0.066317
     23 C                    -0.757641
     24 C                    -0.756172
     25 H                     0.196510
     26 C                    -0.709736
     27 H                     0.196982
     28 H                     0.244654
     29 H                     0.233837
     30 H                     0.242758
     31 H                     0.245224
     32 H                     0.233583
     33 H                     0.244468
     34 H                     0.225850
     35 H                     0.229478
     36 H                     0.230151
     37 C                     0.064574
     38 C                    -0.346247
     39 C                     0.130709
     40 C                    -0.339954
     41 C                     0.059865
     42 C                    -0.756231
     43 C                    -0.759893
     44 H                     0.196469
     45 C                    -0.709644
     46 H                     0.196724
     47 H                     0.233383
     48 H                     0.244606
     49 H                     0.244791
     50 H                     0.244723
     51 H                     0.234348
     52 H                     0.243694
     53 H                     0.226166
     54 H                     0.229418
     55 H                     0.229508
     56 C                     0.127670
     57 C                     0.130265
     58 C                    -0.387417
     59 C                     0.136186
     60 C                    -0.267697
     61 C                    -0.268362
     62 C                     0.137450
     63 C                    -0.708706
     64 H                     0.242983
     65 C                    -0.385658
     66 H                     0.241368
     67 C                     0.129811
     68 C                    -0.268150
     69 C                     0.137211
     70 C                    -0.386303
     71 C                    -0.708816
     72 H                     0.217607
     73 H                     0.243837
     74 H                     0.218610
     75 C                     0.128565
     76 C                    -0.387114
     77 C                     0.136931
     78 C                    -0.268189
     79 C                    -0.708667
     80 H                     0.217382
     81 C                     0.093509
     82 C                     0.095260
     83 C                     0.092631
     84 C                     0.091622
     85 C                    -0.307259
     86 C                    -0.307038
     87 H                     0.213503
     88 H                     0.205452
     89 H                     0.217296
     90 C                    -0.708594
     91 H                     0.213318
     92 H                     0.205811
     93 C                    -0.306460
     94 H                     0.205728
     95 H                     0.213319
     96 C                    -0.306471
     97 H                     0.213440
     98 H                     0.205424
     99 H                     0.227664
    100 H                     0.238208
    101 H                     0.238082
    102 H                     0.227665
    103 H                     0.238110
    104 H                     0.238479
    105 H                     0.227534
    106 H                     0.238601
    107 H                     0.237893
    108 H                     0.227665
    109 H                     0.237972
    110 H                     0.238287
  ----------------------------------------
  Sum of atomic charges =    -0.000000

                    Cartesian Multipole Moments
 -----------------------------------------------------------------
    Charge (ESU x 10^10)
                -0.0000
    Dipole Moment (Debye)
         X      -0.1721      Y      -0.0967      Z      -0.5214
       Tot       0.5575
    Quadrupole Moments (Debye-Ang)
        XX    -307.3809     XY       2.0301     YY    -302.2257
        XZ     -10.2146     YZ      -5.8533     ZZ    -350.9337

 Total job time:  28039.70s(wall), 202114.00s(cpu)
        *  Thank you very much for using Q-Chem.  Have a nice day.  *
