 Q-Chem 5.1, Q-Chem, Inc., Pleasanton, CA (2018)
 Q-Chem 5.1.1 for Intel X86 EM64T Linux

User input:
--------------------------------------------------------------
$rem
threads 8
jobtype	sp
method PBEh-3c
basis def2-mSVP
mem_static	1024
mem_total	10000
sym_ignore	true
cis_n_roots             6
cis_singlets            true
cis_triplets		true
rpa                     false
calc_soc 		true
cis_moments             true
cis_relaxed_density	true
$end

$molecule
read t1opt.mol
$end

--------------------------------------------------------------

             Standard Nuclear Orientation (Angstroms)
    I     Atom           X                Y                Z
 ----------------------------------------------------------------
    1      C       0.0000000000     0.0000000000     0.0000000000
    2      C       0.0000000000     0.0000000000     1.3889560000
    3      H       0.9662623739     0.0000000000     1.8739532652
    4      C      -1.1570562736    -0.0311661641     2.1574365290
    5      C      -2.4315157330    -0.0419235678     1.4763752700
    6      C      -2.4345763398    -0.0017359392     0.0851129385
    7      H      -3.3736895996     0.0000928316    -0.4512766985
    8      C      -1.2755112451     0.0064111543    -0.6861310189
    9      C      -1.1069163871    -0.0788771499     3.6054954147
   10      C       0.1163272671    -0.0611533508     4.2938097548
   11      H       1.0444556535    -0.0002075958     3.7419620897
   12      C       0.2007778776    -0.1238221255     5.6712611880
   13      C      -0.9888572718    -0.2032864279     6.3903911156
   14      H      -0.9629863709    -0.2547523264     7.4721215279
   15      C      -2.2060632673    -0.2195713426     5.7397839846
   16      H      -3.0964759921    -0.2824030505     6.3480031697
   17      C      -2.3011477266    -0.1601113132     4.3492428332
   18      C      -3.6537558639    -0.1225906770     2.2536327297
   19      C      -4.9101135048    -0.1586313121     1.6315794852
   20      H      -4.9749036595    -0.1143075908     0.5531197281
   21      C      -6.0926611800    -0.2577382139     2.3391334708
   22      C      -6.0147578594    -0.3205570741     3.7276507280
   23      H      -6.9199146813    -0.4006276266     4.3169658387
   24      C      -4.7917063700    -0.2863841773     4.3667892045
   25      H      -4.7880734206    -0.3428672259     5.4455824486
   26      C      -3.5927350615    -0.1876925373     3.6617310440
   27      C      -7.4092974557    -0.3059937596     1.6222713316
   28      H      -8.2450780871    -0.3419910209     2.3196957884
   29      H      -7.5472008112     0.5686582017     0.9854299663
   30      H      -7.4773539581    -1.1858324271     0.9807287594
   31      C       1.5349882090    -0.1113047074     6.3578428764
   32      H       1.4294849328    -0.1650007511     7.4406508655
   33      H       2.0936727079     0.7964857874     6.1258790372
   34      H       2.1496978103    -0.9564560047     6.0447491891
   35      B       1.3222390050    -0.0760604475    -0.7707208756
   36      C       1.2473003731    -0.1949168238    -2.2965470422
   37      C       2.4024621248    -0.3927890419    -3.0423572504
   38      H       3.3343189320    -0.4128972354    -2.4939298132
   39      C       2.4040311016    -0.5872324325    -4.4186961499
   40      C       1.1426368983    -0.5212461544    -5.1199609775
   41      C      -0.0153363749    -0.3159745940    -4.3757732151
   42      H      -0.9753737525    -0.2900352345    -4.8724237940
   43      C      -0.0242985156    -0.1704306649    -2.9914923157
   44      C       3.6228392447    -0.8835481245    -5.1449753482
   45      C       4.8549703632    -1.0015959919    -4.4835165370
   46      H       4.9068978444    -0.8588948680    -3.4127580321
   47      C       6.0303034728    -1.3110051453    -5.1399022637
   48      C       5.9687606360    -1.5135701597    -6.5161530631
   49      H       6.8680059185    -1.7636765788    -7.0657566623
   50      C       4.7700529362    -1.4041276044    -7.1920312441
   51      H       4.7807687568    -1.5781971314    -8.2580112224
   52      C       3.5788950959    -1.0881590641    -6.5384231481
   53      C       1.1172354415    -0.6901882537    -6.5596721181
   54      C      -0.0800511559    -0.5850307586    -7.2815610359
   55      H      -1.0007059436    -0.3619749126    -6.7599276240
   56      C      -0.1441744696    -0.7535004880    -8.6510797406
   57      C       1.0413467233    -1.0334431340    -9.3255728998
   58      H       1.0319952405    -1.1703971730   -10.3998509360
   59      C       2.2354701954    -1.1373169652    -8.6403006594
   60      H       3.1255952916    -1.3518181095    -9.2136710052
   61      C       2.3097820663    -0.9721231971    -7.2579430011
   62      C      -1.4527236803    -0.6363761815    -9.3745138448
   63      H      -1.3347097959    -0.7976452837   -10.4451076693
   64      H      -1.8954837849     0.3507989303    -9.2354011837
   65      H      -2.1743126288    -1.3679066179    -9.0082395261
   66      C       7.3203737720    -1.4297745278    -4.3827135248
   67      H       8.1489466334    -1.6910389672    -5.0396326691
   68      H       7.5765824802    -0.4931037611    -3.8856346388
   69      H       7.2579227743    -2.1971274894    -3.6097745479
   70      B      -1.3442335291    -0.0425832632    -2.2178835997
   71      C      -2.7284974387    -0.0212087636    -2.9656586643
   72      C      -3.3161455211     1.1925930510    -3.3333005930
   73      C      -4.5373334010     1.2005997921    -4.0005820511
   74      H      -4.9802685794     2.1501282052    -4.2828794215
   75      C      -5.1979433149     0.0213357272    -4.3151058150
   76      C      -4.6094245615    -1.1809865289    -3.9392791794
   77      H      -5.1131985504    -2.1140811386    -4.1726413682
   78      C      -3.3918374825    -1.2172320782    -3.2726103292
   79      C      -6.5118297738     0.0298727711    -5.0413530869
   80      H      -6.8411439851     1.0442541936    -5.2641696159
   81      H      -7.2964627921    -0.4492324051    -4.4531889744
   82      H      -6.4474590735    -0.5094222651    -5.9881396562
   83      C      -2.6222543404     2.4851517494    -3.0045838724
   84      H      -3.1769895764     3.3483772076    -3.3721011241
   85      H      -1.6227333417     2.5232943799    -3.4430156854
   86      H      -2.4982176987     2.6078364210    -1.9263892970
   87      C      -2.7817240355    -2.5347706214    -2.8812691653
   88      H      -3.4380987533    -3.3710382542    -3.1221204421
   89      H      -2.5729442456    -2.5762850499    -1.8101930858
   90      H      -1.8314283927    -2.7045538559    -3.3924944490
   91      C       2.6999991541    -0.1027577830    -0.0052019590
   92      C       3.2527685165    -1.3185801628     0.4126175231
   93      C       4.4608247665    -1.3334043181     1.1035679009
   94      H       4.8758816753    -2.2849211880     1.4204029846
   95      C       5.1444898530    -0.1629680307     1.3979310778
   96      C       4.5886661724     1.0411196129     0.9804712152
   97      H       5.1078890534     1.9690539569     1.1992201607
   98      C       3.3855124435     1.0839942532     0.2883460594
   99      C       6.4479884592    -0.1879528962     2.1429268134
  100      H       6.7400903047    -1.2044447229     2.4052398422
  101      H       7.2559613543     0.2428828544     1.5489777955
  102      H       6.3909036819     0.3861267000     3.0694208541
  103      C       2.8072219614     2.4024480330    -0.1414561497
  104      H       3.4757603733     3.2321110711     0.0881800763
  105      H       2.6128402275     2.4204422202    -1.2156573751
  106      H       1.8543287673     2.5985362057     0.3553894317
  107      C       2.5402386605    -2.6118033154     0.1267247658
  108      H       3.1010759777    -3.4706674615     0.4956025874
  109      H       2.3828364757    -2.7573316133    -0.9438723208
  110      H       1.5547489767    -2.6357505153     0.5967566219
 ----------------------------------------------------------------

   15   -2285.1562255433      7.10e-09  Convergence criterion met
 Total energy in the final basis set =    -2285.1562255433

         TDDFT/TDA Excitation Energies
 ---------------------------------------------------

 Excited state   1: excitation energy (eV) =    2.3651
 Total energy for state  1:                 -2285.06930878 au
    Multiplicity: Triplet
    Trans. Mom.:  0.0000 X   0.0000 Y   0.0000 Z
    Strength   :     0.0000000000
    D(200) --> V(  3) amplitude = -0.2367
    D(204) --> V(  1) amplitude =  0.8980

 Excited state   2: excitation energy (eV) =    2.8247
 Total energy for state  2:                 -2285.05241827 au
    Multiplicity: Triplet
    Trans. Mom.:  0.0000 X   0.0000 Y   0.0000 Z
    Strength   :     0.0000000000
    D(200) --> V(  1) amplitude =  0.7451
    D(204) --> V(  3) amplitude = -0.4394

 Excited state   3: excitation energy (eV) =    2.8630
 Total energy for state  3:                 -2285.05101337 au
    Multiplicity: Triplet
    Trans. Mom.:  0.0000 X   0.0000 Y   0.0000 Z
    Strength   :     0.0000000000
    D(196) --> V(  1) amplitude = -0.4588
    D(203) --> V(  1) amplitude =  0.8189

 Excited state   4: excitation energy (eV) =    3.0331
 Total energy for state  4:                 -2285.04476114 au
    Multiplicity: Singlet
    Trans. Mom.:  0.0017 X  -0.0382 Y  -0.0019 Z
    Strength   :     0.0001089185
    D(204) --> V(  1) amplitude =  0.9594

 Excited state   5: excitation energy (eV) =    3.0413
 Total energy for state  5:                 -2285.04445837 au
    Multiplicity: Triplet
    Trans. Mom.:  0.0000 X   0.0000 Y   0.0000 Z
    Strength   :     0.0000000000
    D(195) --> V(  1) amplitude =  0.5041
    D(202) --> V(  1) amplitude =  0.7664
    D(203) --> V(  3) amplitude =  0.2608

 Excited state   6: excitation energy (eV) =    3.2300
 Total energy for state  6:                 -2285.03752442 au
    Multiplicity: Triplet
    Trans. Mom.:  0.0000 X   0.0000 Y   0.0000 Z
    Strength   :     0.0000000000
    D(188) --> V(  1) amplitude = -0.2177
    D(201) --> V(  1) amplitude =  0.9410

 Excited state   7: excitation energy (eV) =    3.3145
 Total energy for state  7:                 -2285.03442019 au
    Multiplicity: Singlet
    Trans. Mom.: -0.3527 X   0.0528 Y   0.5930 Z
    Strength   :     0.0388855012
    D(201) --> V(  1) amplitude =  0.9234
    D(203) --> V(  1) amplitude = -0.2565

 Excited state   8: excitation energy (eV) =    3.3309
 Total energy for state  8:                 -2285.03381839 au
    Multiplicity: Singlet
    Trans. Mom.:  1.1400 X  -0.1619 Y  -2.1277 Z
    Strength   :     0.4776134793
    D(196) --> V(  1) amplitude = -0.2311
    D(201) --> V(  1) amplitude =  0.2708
    D(203) --> V(  1) amplitude =  0.8724
    D(204) --> V(  2) amplitude = -0.2384

 Excited state   9: excitation energy (eV) =    3.4117
 Total energy for state  9:                 -2285.03084743 au
    Multiplicity: Triplet
    Trans. Mom.:  0.0000 X   0.0000 Y   0.0000 Z
    Strength   :     0.0000000000
    D(199) --> V(  1) amplitude =  0.9567

 Excited state  10: excitation energy (eV) =    3.4509
 Total energy for state 10:                 -2285.02940753 au
    Multiplicity: Singlet
    Trans. Mom.:  0.0274 X   0.0030 Y   0.0311 Z
    Strength   :     0.0001460759
    D(199) --> V(  1) amplitude =  0.9653

 Excited state  11: excitation energy (eV) =    3.5520
 Total energy for state 11:                 -2285.02569036 au
    Multiplicity: Singlet
    Trans. Mom.:  0.0116 X  -0.1348 Y  -0.0075 Z
    Strength   :     0.0015970989
    D(202) --> V(  1) amplitude =  0.9313

 Excited state  12: excitation energy (eV) =    3.8161
 Total energy for state 12:                 -2285.01598765 au
    Multiplicity: Singlet
    Trans. Mom.: -0.2108 X   0.0181 Y  -0.1377 Z
    Strength   :     0.0059578479
    D(198) --> V(  1) amplitude =  0.9687

 ---------------------------------------------------

                    Orbital Energies (a.u.)
 --------------------------------------------------------------

 Alpha MOs
 -- Occupied --
-10.468 -10.467 -10.467 -10.467 -10.463 -10.463 -10.463 -10.463
-10.462 -10.462 -10.462 -10.462 -10.458 -10.458 -10.458 -10.458
-10.449 -10.449 -10.449 -10.449 -10.449 -10.449 -10.448 -10.448
-10.447 -10.447 -10.447 -10.447 -10.447 -10.447 -10.447 -10.446
-10.446 -10.446 -10.445 -10.445 -10.445 -10.445 -10.435 -10.435
-10.435 -10.435 -10.430 -10.430 -10.430 -10.430 -10.429 -10.429
-10.429 -10.429 -10.429 -10.429 -10.424 -10.424 -10.423 -10.423
-10.417 -10.416  -6.941  -6.940  -0.996  -0.996  -0.960  -0.960
 -0.956  -0.954  -0.950  -0.948  -0.902  -0.899  -0.878  -0.877
 -0.876  -0.868  -0.866  -0.866  -0.865  -0.865  -0.850  -0.850
 -0.819  -0.817  -0.814  -0.800  -0.795  -0.795  -0.779  -0.779
 -0.758  -0.755  -0.755  -0.755  -0.754  -0.753  -0.729  -0.715
 -0.713  -0.708  -0.685  -0.678  -0.667  -0.663  -0.663  -0.653
 -0.642  -0.642  -0.637  -0.637  -0.620  -0.614  -0.610  -0.604
 -0.576  -0.567  -0.563  -0.562  -0.550  -0.542  -0.539  -0.539
 -0.539  -0.538  -0.531  -0.529  -0.527  -0.511  -0.511  -0.505
 -0.497  -0.495  -0.491  -0.491  -0.490  -0.486  -0.485  -0.480
 -0.480  -0.479  -0.478  -0.477  -0.476  -0.475  -0.470  -0.469
 -0.469  -0.464  -0.464  -0.462  -0.462  -0.461  -0.458  -0.454
 -0.454  -0.453  -0.452  -0.449  -0.448  -0.445  -0.444  -0.444
 -0.438  -0.437  -0.437  -0.434  -0.420  -0.420  -0.420  -0.413
 -0.411  -0.410  -0.409  -0.409  -0.408  -0.407  -0.407  -0.402
 -0.399  -0.391  -0.379  -0.379  -0.378  -0.377  -0.377  -0.377
 -0.364  -0.353  -0.347  -0.343  -0.331  -0.330  -0.327  -0.326
 -0.320  -0.317  -0.282  -0.274  -0.270  -0.270  -0.264  -0.262
 -0.261  -0.253  -0.249  -0.245

          Ground-State Mulliken Net Atomic Charges

     Atom                 Charge (a.u.)
  ----------------------------------------
      1 C                    -0.111061
      2 C                    -0.423540
      3 H                     0.243964
      4 C                     0.101042
      5 C                     0.107290
      6 C                    -0.425065
      7 H                     0.241777
      8 C                    -0.113451
      9 C                     0.130478
     10 C                    -0.387821
     11 H                     0.218697
     12 C                     0.137722
     13 C                    -0.268360
     14 H                     0.213378
     15 C                    -0.306683
     16 H                     0.205474
     17 C                     0.091837
     18 C                     0.128872
     19 C                    -0.387368
     20 H                     0.217313
     21 C                     0.137231
     22 C                    -0.268230
     23 H                     0.213367
     24 C                    -0.306209
     25 H                     0.205696
     26 C                     0.093130
     27 C                    -0.708694
     28 H                     0.227659
     29 H                     0.237943
     30 H                     0.238278
     31 C                    -0.708770
     32 H                     0.227531
     33 H                     0.237899
     34 H                     0.238604
     35 B                     0.675975
     36 C                    -0.112056
     37 C                    -0.424359
     38 H                     0.243012
     39 C                     0.102825
     40 C                     0.104511
     41 C                    -0.423395
     42 H                     0.241367
     43 C                    -0.113600
     44 C                     0.129498
     45 C                    -0.386260
     46 H                     0.217581
     47 C                     0.137029
     48 C                    -0.268027
     49 H                     0.213481
     50 C                    -0.307118
     51 H                     0.205450
     52 C                     0.092693
     53 C                     0.127332
     54 C                    -0.385833
     55 H                     0.217314
     56 C                     0.136624
     57 C                    -0.267788
     58 H                     0.213354
     59 C                    -0.307268
     60 H                     0.205769
     61 C                     0.095412
     62 C                    -0.708738
     63 H                     0.227674
     64 H                     0.238201
     65 H                     0.238081
     66 C                    -0.708755
     67 H                     0.227652
     68 H                     0.238496
     69 H                     0.238115
     70 B                     0.678724
     71 C                    -0.223085
     72 C                     0.064889
     73 C                    -0.346289
     74 H                     0.196493
     75 C                     0.130478
     76 C                    -0.339697
     77 H                     0.196644
     78 C                     0.059656
     79 C                    -0.709543
     80 H                     0.226148
     81 H                     0.229430
     82 H                     0.229482
     83 C                    -0.760163
     84 H                     0.234366
     85 H                     0.243761
     86 H                     0.244730
     87 C                    -0.756080
     88 H                     0.233336
     89 H                     0.244582
     90 H                     0.244694
     91 C                    -0.228193
     92 C                     0.059129
     93 C                    -0.345789
     94 H                     0.196538
     95 C                     0.130718
     96 C                    -0.338482
     97 H                     0.196921
     98 C                     0.066015
     99 C                    -0.709749
    100 H                     0.225855
    101 H                     0.230180
    102 H                     0.229477
    103 C                    -0.757347
    104 H                     0.233775
    105 H                     0.244623
    106 H                     0.242638
    107 C                    -0.756454
    108 H                     0.233613
    109 H                     0.244508
    110 H                     0.245289
  ----------------------------------------
  Sum of atomic charges =    -0.000000

                    Cartesian Multipole Moments
 -----------------------------------------------------------------
    Charge (ESU x 10^10)
                -0.0000
    Dipole Moment (Debye)
         X       0.0279      Y      -0.5544      Z       0.0555
       Tot       0.5579
    Quadrupole Moments (Debye-Ang)
        XX    -302.1539     XY      -2.3583     YY    -352.9168
        XZ       3.4766     YZ       3.1855     ZZ    -305.2366

 Total job time:  8505.87s(wall), 41781.34s(cpu)
        *  Thank you very much for using Q-Chem.  Have a nice day.  *
