 Q-Chem 5.1, Q-Chem, Inc., Pleasanton, CA (2018)
 Q-Chem 5.1.1 for Intel X86 EM64T Linux

User input:
--------------------------------------------------------------
$rem
threads 8
jobtype	opt
method PBEh-3c
basis def2-mSVP
mem_static	512
mem_total	6096
sym_ignore	true
$end

$molecule
read incoords.mol
$end

--------------------------------------------------------------

   15   -1973.7044812829      6.85e-09  Convergence criterion met
 Total energy in the final basis set =    -1973.7044812829
   11   -1973.7041456561      7.34e-09  Convergence criterion met
 Total energy in the final basis set =    -1973.7041456561
   10   -1973.7040783027      9.84e-09  Convergence criterion met
 Total energy in the final basis set =    -1973.7040783027
   11   -1973.7040010122      6.97e-09  Convergence criterion met
 Total energy in the final basis set =    -1973.7040010122
   10   -1973.7040178715      9.71e-09  Convergence criterion met
 Total energy in the final basis set =    -1973.7040178715
    9   -1973.7040554320      7.76e-09  Convergence criterion met
 Total energy in the final basis set =    -1973.7040554320
    9   -1973.7040650860      5.36e-09  Convergence criterion met
 Total energy in the final basis set =    -1973.7040650860
    8   -1973.7040584165      6.35e-09  Convergence criterion met
 Total energy in the final basis set =    -1973.7040584165
    7   -1973.7040540139      6.38e-09  Convergence criterion met
 Total energy in the final basis set =    -1973.7040540139
    8   -1973.7040508975      6.45e-09  Convergence criterion met
 Total energy in the final basis set =    -1973.7040508975

             Standard Nuclear Orientation (Angstroms)
    I     Atom           X                Y                Z
 ----------------------------------------------------------------
    1      C       0.0153748612     0.0846846892     0.0553967528
    2      C       0.0031232805     0.1264161219     1.4544657494
    3      H       0.9420753810     0.1343483271     1.9976766081
    4      C      -1.2027673472     0.1568758755     2.1359151936
    5      C      -2.4151804009     0.1345066872     1.4129532833
    6      C      -2.4151129654     0.0848630430     0.0324364998
    7      H      -3.3506346607     0.0612697713    -0.5164294545
    8      C      -1.2058999731     0.0652901074    -0.6616504144
    9      C      -3.5238390594     0.1695072314     2.3601511862
   10      C      -4.8891414173     0.1671483852     2.2492424436
   11      H      -5.3850397802     0.1332187978     1.2869100331
   12      C      -2.9441128261     0.2139120278     3.6391794523
   13      C      -3.6762429516     0.2571092232     4.8193357582
   14      C      -1.5380119169     0.2082571981     3.5625924624
   15      C      -0.8302180498     0.2487640737     4.7333302770
   16      H       0.2523232067     0.2472331021     4.7472406497
   17      C      -5.6604022473     0.2099409241     3.4335281366
   18      H      -6.7394385145     0.2079314685     3.3498381710
   19      C      -5.0859878950     0.2540170600     4.6823140334
   20      H      -5.7159827945     0.2860810321     5.5627343241
   21      C      -2.9185519736     0.2982966248     6.0130951103
   22      H      -3.4182958567     0.3335172194     6.9732327909
   23      C      -1.5447603218     0.2937169462     5.9549683200
   24      H      -0.9820111160     0.3258460407     6.8784951845
   25      B       1.3633310984     0.0463871952    -0.7217303534
   26      C       1.3686535159     0.0632752492    -2.2770427674
   27      C       2.5781273816     0.0827418741    -2.9819656488
   28      H       3.5154346075     0.0871437782    -2.4362368655
   29      C       2.5717580439     0.0955308563    -4.3667158984
   30      C       1.3415362025     0.0788662779    -5.0593289230
   31      C       0.1429130987     0.0513534310    -4.3754718844
   32      H      -0.7961913613     0.0324193320    -4.9182571472
   33      C       0.1411084979     0.0475591704    -2.9813869742
   34      C       1.6121093225     0.0923641956    -6.4931434367
   35      C       0.8390291673     0.0858565624    -7.6245268648
   36      H      -0.2428938822     0.0660057321    -7.5782354841
   37      C       3.0104473628     0.1180816114    -6.6260630387
   38      C       3.6707824417     0.1382585622    -7.8500530515
   39      C       3.6450695729     0.1210963684    -5.3690101034
   40      C       5.0140522360     0.1460815325    -5.3423193684
   41      H       5.5678555200     0.1503174337    -4.4121119117
   42      C       1.4835711481     0.1057787802    -8.8833309633
   43      H       0.8742250856     0.1006310085    -9.7778042311
   44      C       2.8527304951     0.1314606038    -9.0060757426
   45      H       3.3052116849     0.1462739345    -9.9901160045
   46      C       5.0834294846     0.1635429155    -7.7906359121
   47      H       5.6659818982     0.1804043387    -8.7036197480
   48      C       5.7178890073     0.1669568631    -6.5709990503
   49      H       6.7993855946     0.1865569845    -6.5435930015
   50      B      -1.2092442122     0.0166165466    -2.2148279728
   51      C       2.7183116753    -0.0339835699     0.0589499726
   52      C       3.3932365257     1.1269883100     0.4413700512
   53      C       4.5914035157     1.0270234967     1.1408962053
   54      H       5.1083827142     1.9335928853     1.4380637044
   55      C       5.1377160162    -0.2058870265     1.4699568849
   56      C       4.4567968936    -1.3539542648     1.0792088124
   57      H       4.8686324955    -2.3271315189     1.3274992456
   58      C       3.2605035687    -1.2839621648     0.3798012117
   59      C       6.4343567493    -0.3090045224     2.2191833244
   60      H       6.7853363806     0.6676685130     2.5504036536
   61      H       6.3364382400    -0.9409860958     3.1031874332
   62      H       7.2185763500    -0.7459888204     1.5981229357
   63      C       2.5404928905    -2.5364034640    -0.0380334098
   64      H       3.0696952582    -3.4344450590     0.2796463589
   65      H       2.4292063699    -2.5886202260    -1.1237344795
   66      H       1.5350453260    -2.5814102779     0.3874188389
   67      C       2.8155411654     2.4706073977     0.0929082958
   68      H       3.4408584681     3.2877530639     0.4514861935
   69      H       2.7073971847     2.5897613160    -0.9878081146
   70      H       1.8217263500     2.6032232764     0.5271785213
   71      C      -2.5593910845    -0.0762535042    -3.0146332848
   72      C      -3.0942899655    -1.3250131563    -3.3443284507
   73      C      -4.2778405167    -1.4019297221    -4.0710937200
   74      H      -4.6814078298    -2.3779300858    -4.3200548500
   75      C      -4.9525043416    -0.2626517233    -4.4845059755
   76      C      -4.4115571578     0.9744047992    -4.1522771391
   77      H      -4.9221281669     1.8789977013    -4.4674475909
   78      C      -3.2317020697     1.0809859155    -3.4286856334
   79      C      -6.2287070614    -0.3539308011    -5.2704865026
   80      H      -6.5280585929    -1.3892454548    -5.4306282318
   81      H      -7.0500317332     0.1497993031    -4.7582036705
   82      H      -6.1272177294     0.1138820760    -6.2512374496
   83      C      -2.3865014204    -2.5814463199    -2.9199288294
   84      H      -2.9346754644    -3.4749196847    -3.2178789983
   85      H      -1.3899062707    -2.6469383556    -3.3628796685
   86      H      -2.2586620875    -2.6223402472    -1.8359510975
   87      C      -2.6657870339     2.4327137324    -3.0954586478
   88      H      -3.3052501449     3.2387751799    -3.4543445365
   89      H      -1.6794804427     2.5724245893    -3.5440390003
   90      H      -2.5471821046     2.5628054993    -2.0175066921
 ----------------------------------------------------------------

    8   -1973.7040512847      6.59e-09  Convergence criterion met
 Total energy in the final basis set =    -1973.7040512847
 Final energy is   -1973.70405128468
 **  OPTIMIZATION CONVERGED  **

                    Orbital Energies (a.u.)
 --------------------------------------------------------------

 Alpha MOs
 -- Occupied --
-10.463 -10.463 -10.463 -10.463 -10.462 -10.462 -10.461 -10.461
-10.461 -10.460 -10.460 -10.460 -10.460 -10.460 -10.459 -10.459
-10.458 -10.458 -10.458 -10.458 -10.457 -10.457 -10.452 -10.452
-10.450 -10.449 -10.446 -10.446 -10.445 -10.445 -10.445 -10.444
-10.444 -10.444 -10.431 -10.431 -10.430 -10.430 -10.429 -10.429
-10.429 -10.429 -10.428 -10.428 -10.424 -10.424 -10.424 -10.424
-10.416 -10.414  -6.945  -6.945  -1.014  -1.014  -0.961  -0.957
 -0.954  -0.953  -0.932  -0.931  -0.907  -0.898  -0.870  -0.867
 -0.866  -0.865  -0.852  -0.851  -0.845  -0.845  -0.820  -0.812
 -0.810  -0.802  -0.779  -0.779  -0.757  -0.755  -0.755  -0.755
 -0.733  -0.726  -0.725  -0.718  -0.687  -0.678  -0.678  -0.663
 -0.651  -0.645  -0.638  -0.637  -0.637  -0.634  -0.593  -0.591
 -0.590  -0.587  -0.582  -0.574  -0.573  -0.550  -0.545  -0.542
 -0.539  -0.538  -0.526  -0.526  -0.517  -0.506  -0.501  -0.495
 -0.495  -0.494  -0.490  -0.484  -0.482  -0.482  -0.479  -0.479
 -0.478  -0.477  -0.474  -0.467  -0.466  -0.465  -0.463  -0.462
 -0.462  -0.458  -0.454  -0.453  -0.449  -0.447  -0.445  -0.444
 -0.442  -0.439  -0.430  -0.429  -0.427  -0.421  -0.411  -0.410
 -0.410  -0.400  -0.397  -0.393  -0.393  -0.392  -0.390  -0.387
 -0.380  -0.378  -0.378  -0.377  -0.375  -0.365  -0.349  -0.349
 -0.342  -0.334  -0.316  -0.311  -0.293  -0.293  -0.278  -0.270
 -0.269  -0.263  -0.260  -0.259  -0.254  -0.253

          Ground-State Mulliken Net Atomic Charges

     Atom                 Charge (a.u.)
  ----------------------------------------
      1 C                    -0.155229
      2 C                    -0.394140
      3 H                     0.234546
      4 C                     0.112869
      5 C                     0.086846
      6 C                    -0.385558
      7 H                     0.233854
      8 C                    -0.154556
      9 C                     0.194853
     10 C                    -0.377520
     11 H                     0.220585
     12 C                    -0.061953
     13 C                     0.254271
     14 C                     0.196241
     15 C                    -0.387102
     16 H                     0.220697
     17 C                    -0.205804
     18 H                     0.226266
     19 C                    -0.333251
     20 H                     0.219665
     21 C                    -0.337954
     22 H                     0.220017
     23 C                    -0.202613
     24 H                     0.225869
     25 B                     0.707100
     26 C                    -0.155585
     27 C                    -0.395438
     28 H                     0.234876
     29 C                     0.113177
     30 C                     0.084742
     31 C                    -0.383112
     32 H                     0.235439
     33 C                    -0.154119
     34 C                     0.196019
     35 C                    -0.377818
     36 H                     0.220597
     37 C                    -0.062809
     38 C                     0.252614
     39 C                     0.197737
     40 C                    -0.388104
     41 H                     0.220521
     42 C                    -0.205670
     43 H                     0.226238
     44 C                    -0.332287
     45 H                     0.219588
     46 C                    -0.337530
     47 H                     0.220063
     48 C                    -0.202355
     49 H                     0.225783
     50 B                     0.705708
     51 C                    -0.220579
     52 C                     0.066366
     53 C                    -0.345023
     54 H                     0.195634
     55 C                     0.131545
     56 C                    -0.343264
     57 H                     0.196300
     58 C                     0.062690
     59 C                    -0.709452
     60 H                     0.225529
     61 H                     0.228676
     62 H                     0.230804
     63 C                    -0.763155
     64 H                     0.234970
     65 H                     0.244878
     66 H                     0.244898
     67 C                    -0.759582
     68 H                     0.234175
     69 H                     0.243355
     70 H                     0.243363
     71 C                    -0.225133
     72 C                     0.061797
     73 C                    -0.346593
     74 H                     0.196293
     75 C                     0.131516
     76 C                    -0.338424
     77 H                     0.196336
     78 C                     0.065312
     79 C                    -0.709597
     80 H                     0.226161
     81 H                     0.229755
     82 H                     0.229798
     83 C                    -0.761467
     84 H                     0.235001
     85 H                     0.244082
     86 H                     0.244207
     87 C                    -0.757673
     88 H                     0.233810
     89 H                     0.243048
     90 H                     0.243366
  ----------------------------------------
  Sum of atomic charges =    -0.000000

                    Cartesian Multipole Moments
 -----------------------------------------------------------------
    Charge (ESU x 10^10)
                -0.0000
    Dipole Moment (Debye)
         X      -0.0979      Y       0.0554      Z      -0.0934
       Tot       0.1462
    Quadrupole Moments (Debye-Ang)
        XX    -262.0343     XY      -0.2624     YY    -302.8328
        XZ      -4.9812     YZ       0.3350     ZZ    -255.3740

 Total job time:  5111.88s(wall), 40014.27s(cpu)
        *  Thank you very much for using Q-Chem.  Have a nice day.  *
