 Q-Chem 5.0, Q-Chem, Inc., Pleasanton, CA (2017)
 Q-Chem 5.0.1 for Intel X86 EM64T Linux

User input:
--------------------------------------------------------------
$rem
threads 8
jobtype	opt
method PBEh-3c
basis def2-mSVP
mem_static	1024
mem_total	14000
sym_ignore	true
cis_n_roots             3
cis_singlets            true
cis_triplets		false
rpa                     false
cis_state_deriv         1
state_follow		true
$end

$molecule
read incoords.mol
$end

--------------------------------------------------------------

   15   -1973.7048259407      5.58E-09 Convergence criterion met
 Total energy in the final basis set = -1973.70482594
   12   -1973.6984162914      8.71E-09 Convergence criterion met
 Total energy in the final basis set = -1973.69841629
   12   -1973.6974355401      5.60E-09 Convergence criterion met
 Total energy in the final basis set = -1973.69743554
   11   -1973.6970419856      6.80E-09 Convergence criterion met
 Total energy in the final basis set = -1973.69704199
   11   -1973.6968270091      6.92E-09 Convergence criterion met
 Total energy in the final basis set = -1973.69682701
   10   -1973.6967832545      7.54E-09 Convergence criterion met
 Total energy in the final basis set = -1973.69678325
   10   -1973.6968056562      5.46E-09 Convergence criterion met
 Total energy in the final basis set = -1973.69680566
    9   -1973.6968479292      9.25E-09 Convergence criterion met
    9   -1973.6968674957      8.63E-09 Convergence criterion met
 Total energy in the final basis set = -1973.69686750
    9   -1973.6968709762      7.30E-09 Convergence criterion met
 Total energy in the final basis set = -1973.69687098
    8   -1973.6968676602      7.40E-09 Convergence criterion met
 Total energy in the final basis set = -1973.69686766
    7   -1973.6968675456      7.84E-09 Convergence criterion met
 Total energy in the final basis set = -1973.69686755
    7   -1973.6968694885      6.78E-09 Convergence criterion met
 Total energy in the final basis set = -1973.69686949
    7   -1973.6968723441      8.12E-09 Convergence criterion met
 Total energy in the final basis set = -1973.69687234

             Standard Nuclear Orientation (Angstroms)
    I     Atom           X                Y                Z
 ----------------------------------------------------------------
    1      C      -6.1943309446     4.0055082717     1.7534234136
    2      C      -6.7357704640     2.6867819146     2.0311003064
    3      B      -5.8837091023     1.4251157626     1.8602113143
    4      C      -4.4353476419     1.5881882511     1.3875571052
    5      C      -3.8673798864     2.9056863272     1.1537180342
    6      B      -4.7219593587     4.1687973640     1.3487422727
    7      C      -2.5465892868     3.0126491103     0.6865077620
    8      C      -1.8074263412     1.8825635981     0.4229040396
    9      C      -2.3865501394     0.5743939496     0.6438074915
   10      C      -3.6643316838     0.4484788782     1.1297263684
   11      C      -7.0421524995     5.1257098112     1.8068909284
   12      C      -8.3740390247     4.9750627854     2.1162271003
   13      C      -8.8939595492     3.6622074976     2.4321419415
   14      C      -8.0820870280     2.5573235074     2.3918970770
   15      H      -6.6356269054     6.1044198389     1.5782781113
   16      C      -6.5151624341    -0.0021124419     2.0898840332
   17      C      -4.1187910141     5.5985250115     1.0866810416
   18      C      -7.1356963545    -0.6767301556     1.0317098585
   19      C      -7.6983197661    -1.9323779542     1.2393989777
   20      C      -7.6667086319    -2.5466114022     2.4826228267
   21      C      -7.0509830529    -1.8705785718     3.5296538945
   22      C      -6.4803054191    -0.6172704748     3.3488515732
   23      C      -5.8300556091     0.0895635918     4.5046286212
   24      C      -7.2039612436    -0.0465139461    -0.3320840618
   25      H      -8.1734092848    -2.4424520579     0.4074648363
   26      C      -8.2866179148    -3.8969076575     2.6995871903
   27      H      -7.0137907381    -2.3336210331     4.5108221853
   28      H      -4.7968167905     0.3590637789     4.2767724528
   29      H      -5.8218240430    -0.5270351971     5.4034668115
   30      H      -6.3519387472     1.0184282025     4.7454748817
   31      H      -7.7551076882     0.8960475333    -0.3089044205
   32      H      -7.6990851221    -0.6981913904    -1.0522587344
   33      H      -6.2096512676     0.1793696377    -0.7226052635
   34      H      -8.6203558638    -4.3399307449     1.7616652784
   35      H      -9.1549935096    -3.8359101457     3.3585028554
   36      H      -7.5832539565    -4.5920283291     3.1604294728
   37      C      -3.5643535781     6.3359004827     2.1371563593
   38      C      -3.0264965335     7.5962753772     1.8955924619
   39      C      -3.0268409230     8.1515843073     0.6238711406
   40      C      -3.5892650280     7.4161054872    -0.4132497696
   41      C      -4.1315466978     6.1556309403    -0.1997307977
   42      C      -4.7329524835     5.3880089758    -1.3448647774
   43      C      -3.5549996380     5.7622352744     3.5268611832
   44      H      -2.5960786449     8.1554422905     2.7199279574
   45      C      -2.4316539186     9.5045441739     0.3615746054
   46      H      -3.6048386276     7.8369243874    -1.4140294092
   47      H      -4.7339710775     5.9721467601    -2.2652705315
   48      H      -5.7651116546     5.0992290622    -1.1353309257
   49      H      -4.1845764389     4.4641640044    -1.5425730183
   50      H      -4.5693235895     5.5876818886     3.8926815094
   51      H      -3.0594856742     6.4255023838     4.2358314451
   52      H      -3.0397559335     4.7999036428     3.5591749766
   53      H      -2.1076353393     9.9862981540     1.2835183888
   54      H      -3.1471942085    10.1696715675    -0.1243507957
   55      H      -1.5617287030     9.4358095954    -0.2944153035
   56      C      -0.4799419237     1.6855917776    -0.1216361773
   57      C     -10.3082604534     3.7830151278     2.6929637719
   58      C     -11.3154660516     2.9024531114     3.0159636006
   59      C       1.7005271722     1.9179815593    -1.0756915329
   60      C       1.8661646479     0.5524706785    -1.1789336307
   61      C       0.8415879861    -0.3225662220    -0.7511673809
   62      C     -12.9299098663     4.7371414117     2.9704671199
   63      C     -12.6232998862     3.4048254783     3.1543870217
   64      H     -13.4184201791     2.7160790690     3.4087219720
   65      H       2.7818753564     0.1518192398    -1.5955186566
   66      C      -0.2972589924     0.2871527655    -0.2277815765
   67      H      -4.0979678255    -0.5321393316     1.2935040770
   68      C       0.5325023996     2.5093230894    -0.5536858429
   69      H       2.4979634452     2.5654536061    -1.4156784590
   70      H       0.4482541182     3.5871010437    -0.5061272089
   71      H      -2.1284164229     3.9972589922     0.5113916776
   72      C      -1.4308426986    -0.4222273896     0.2270597025
   73      C       0.8186959763    -1.7360259140    -0.8043017732
   74      C      -0.2861629129    -2.4345923440    -0.3615420431
   75      C      -1.4284801463    -1.7969073871     0.1585159984
   76      H      -0.2783109997    -3.5152832606    -0.4200917136
   77      H      -2.2763171335    -2.3863345035     0.4839017162
   78      H      -8.4830851870     1.5723688104     2.6047351085
   79      H     -11.1263451822     1.8460506718     3.1573577820
   80      C     -10.6260331654     5.1460052370     2.5145710877
   81      C      -9.4856571296     5.9063397456     2.1671412945
   82      C      -9.6532878634     7.2505876995     1.9294857635
   83      C     -10.9471714940     7.7992556216     2.0452755063
   84      C     -12.0516548959     7.0468787168     2.3850828840
   85      C     -11.9162863624     5.6626071889     2.6330663024
   86      H     -11.0765348721     8.8563415088     1.8539490574
   87      H     -13.0247112795     7.5169970761     2.4551847697
   88      H      -8.8239836423     7.8873613004     1.6507762168
   89      H     -13.9538858900     5.0725381676     3.0798752022
   90      H       1.6695283535    -2.2759342195    -1.2008839138
 ----------------------------------------------------------------

    7   -1973.6968736492      8.88E-09 Convergence criterion met
 Total energy in the final basis set = -1973.69687365

         TDDFT/TDA Excitation Energies
 ---------------------------------------------------

 Excited state   1: excitation energy (eV) =    2.6803
 Total energy for state  1:                 -1973.59837434 au
    Multiplicity: Singlet
    Trans. Mom.:  0.0499 X  -0.0363 Y  -0.0355 Z
    Strength   :     0.0003333444
    D(174) --> V(  1) amplitude =  0.9674

 Excited state   2: excitation energy (eV) =    3.0908
 Total energy for state  2:                 -1973.58328752 au
    Multiplicity: Singlet
    Trans. Mom.:  0.0437 X  -0.0655 Y  -0.0194 Z
    Strength   :     0.0004973995
    D(171) --> V(  1) amplitude = -0.3710
    D(172) --> V(  1) amplitude =  0.8871

 Excited state   3: excitation energy (eV) =    3.1724
 Total energy for state  3:                 -1973.58029012 au
    Multiplicity: Singlet
    Trans. Mom.:  3.0758 X  -1.4547 Y  -0.8131 Z
    Strength   :     0.9511411016
    D(173) --> V(  1) amplitude =  0.9305

 ---------------------------------------------------

 Final energy is   -1973.59837434287
 **  OPTIMIZATION CONVERGED  **

                    Orbital Energies (a.u.)
 --------------------------------------------------------------

 Alpha MOs
 -- Occupied --
-10.464 -10.464 -10.464 -10.464 -10.464 -10.463 -10.462 -10.462
-10.462 -10.462 -10.462 -10.462 -10.460 -10.460 -10.460 -10.460
-10.459 -10.459 -10.459 -10.459 -10.458 -10.458 -10.451 -10.451
-10.449 -10.449 -10.446 -10.446 -10.446 -10.445 -10.445 -10.445
-10.444 -10.444 -10.433 -10.432 -10.431 -10.431 -10.428 -10.428
-10.428 -10.428 -10.428 -10.427 -10.423 -10.423 -10.423 -10.422
-10.416 -10.415  -6.940  -6.939  -1.013  -1.012  -0.958  -0.954
 -0.953  -0.951  -0.933  -0.932  -0.904  -0.895  -0.870  -0.866
 -0.865  -0.865  -0.855  -0.854  -0.847  -0.846  -0.815  -0.812
 -0.810  -0.796  -0.778  -0.778  -0.757  -0.754  -0.754  -0.754
 -0.731  -0.729  -0.728  -0.717  -0.687  -0.681  -0.676  -0.665
 -0.648  -0.641  -0.636  -0.636  -0.636  -0.634  -0.596  -0.592
 -0.589  -0.588  -0.582  -0.575  -0.573  -0.549  -0.544  -0.541
 -0.538  -0.537  -0.526  -0.526  -0.519  -0.507  -0.500  -0.498
 -0.493  -0.492  -0.491  -0.485  -0.481  -0.481  -0.479  -0.478
 -0.478  -0.477  -0.474  -0.466  -0.464  -0.463  -0.462  -0.461
 -0.460  -0.459  -0.453  -0.453  -0.448  -0.447  -0.444  -0.443
 -0.442  -0.437  -0.432  -0.426  -0.424  -0.419  -0.414  -0.410
 -0.409  -0.399  -0.398  -0.394  -0.394  -0.393  -0.389  -0.386
 -0.379  -0.377  -0.376  -0.376  -0.373  -0.363  -0.351  -0.346
 -0.344  -0.332  -0.320  -0.314  -0.295  -0.294  -0.274  -0.269
 -0.268  -0.262  -0.260  -0.259  -0.253  -0.247

          Ground-State Mulliken Net Atomic Charges

     Atom                 Charge (a.u.)
  ----------------------------------------
      1 C                    -0.153498
      2 C                    -0.152921
      3 B                     0.687194
      4 C                    -0.152373
      5 C                    -0.153406
      6 B                     0.688602
      7 C                    -0.390022
      8 C                     0.104106
      9 C                     0.083427
     10 C                    -0.383882
     11 C                    -0.391919
     12 C                     0.106542
     13 C                     0.080461
     14 C                    -0.380300
     15 H                     0.235335
     16 C                    -0.227515
     17 C                    -0.220931
     18 C                     0.058152
     19 C                    -0.343572
     20 C                     0.130768
     21 C                    -0.336326
     22 C                     0.065007
     23 C                    -0.756821
     24 C                    -0.757597
     25 H                     0.196101
     26 C                    -0.709678
     27 H                     0.196312
     28 H                     0.243808
     29 H                     0.233245
     30 H                     0.241744
     31 H                     0.244635
     32 H                     0.233308
     33 H                     0.244007
     34 H                     0.225765
     35 H                     0.230733
     36 H                     0.228760
     37 C                     0.063949
     38 C                    -0.343929
     39 C                     0.130949
     40 C                    -0.337813
     41 C                     0.057500
     42 C                    -0.756090
     43 C                    -0.760415
     44 H                     0.196009
     45 C                    -0.709711
     46 H                     0.196000
     47 H                     0.232874
     48 H                     0.243171
     49 H                     0.243895
     50 H                     0.244490
     51 H                     0.233847
     52 H                     0.243326
     53 H                     0.225950
     54 H                     0.228580
     55 H                     0.230311
     56 C                     0.200148
     57 C                     0.199923
     58 C                    -0.369831
     59 C                    -0.203667
     60 C                    -0.335571
     61 C                     0.254901
     62 C                    -0.332190
     63 C                    -0.205797
     64 H                     0.226518
     65 H                     0.220480
     66 C                    -0.078813
     67 H                     0.235608
     68 C                    -0.375923
     69 H                     0.226385
     70 H                     0.222024
     71 H                     0.235220
     72 C                     0.200098
     73 C                    -0.332824
     74 C                    -0.205555
     75 C                    -0.369349
     76 H                     0.226653
     77 H                     0.222468
     78 H                     0.236395
     79 H                     0.222140
     80 C                    -0.076959
     81 C                     0.200898
     82 C                    -0.378540
     83 C                    -0.203092
     84 C                    -0.335704
     85 C                     0.254784
     86 H                     0.226283
     87 H                     0.220476
     88 H                     0.221825
     89 H                     0.220225
     90 H                     0.220221
  ----------------------------------------
  Sum of atomic charges =    -0.000000

                    Cartesian Multipole Moments
 -----------------------------------------------------------------
    Charge (ESU x 10^10)
                -0.0000
    Dipole Moment (Debye)
         X      -0.2758      Y      -0.1516      Z      -0.7462
       Tot       0.8098
    Quadrupole Moments (Debye-Ang)
        XX    -254.2042     XY      -5.3594     YY    -264.1247
        XZ     -10.1347     YZ      -4.1285     ZZ    -299.9190

 Total job time:  34646.27s(wall), 222053.78s(cpu)
        *  Thank you very much for using Q-Chem.  Have a nice day.  *
