 Q-Chem 5.1, Q-Chem, Inc., Pleasanton, CA (2018)
 Q-Chem 5.1.1 for Intel X86 EM64T Linux

User input:
--------------------------------------------------------------
$rem
threads 4
jobtype	opt
method PBEh-3c
basis def2-mSVP
mem_static	512
mem_total	6096
sym_ignore	true
scf_convergence 9
$end

$molecule
read gsopt.mol
$end

--------------------------------------------------------------

   17   -1973.6967007027      8.78e-10  Convergence criterion met
 Total energy in the final basis set =    -1973.6967007027
   14   -1973.7038182750      8.89e-10  Convergence criterion met
 Total energy in the final basis set =    -1973.7038182750
   13   -1973.7043524190      9.71e-10  Convergence criterion met
 Total energy in the final basis set =    -1973.7043524190
   13   -1973.7044399904      6.15e-10  Convergence criterion met
 Total energy in the final basis set =    -1973.7044399904
   12   -1973.7044639104      6.14e-10  Convergence criterion met
 Total energy in the final basis set =    -1973.7044639104
   12   -1973.7044728939      7.20e-10  Convergence criterion met
 Total energy in the final basis set =    -1973.7044728939
   12   -1973.7044682979      5.06e-10  Convergence criterion met
 Total energy in the final basis set =    -1973.7044682979
   12   -1973.7044538708      4.28e-10  Convergence criterion met
    9   -1973.7044487846      9.71e-10  Convergence criterion met
 Total energy in the final basis set =    -1973.7044487846
   10   -1973.7044517231      5.86e-10  Convergence criterion met
 Total energy in the final basis set =    -1973.7044517231
   10   -1973.7044534210      7.18e-10  Convergence criterion met
 Total energy in the final basis set =    -1973.7044534210
   10   -1973.7044553514      8.41e-10  Convergence criterion met
 Total energy in the final basis set =    -1973.7044553514
   11   -1973.7044571704      4.38e-10  Convergence criterion met
 Total energy in the final basis set =    -1973.7044571704
   11   -1973.7044590593      4.84e-10  Convergence criterion met
 Total energy in the final basis set =    -1973.7044590593

             Standard Nuclear Orientation (Angstroms)
    I     Atom           X                Y                Z
 ----------------------------------------------------------------
    1      C      -0.0266975997    -0.2380145662     0.0737603907
    2      C      -0.0149048183    -0.1927806539     1.4708242881
    3      H       0.9314901556    -0.2322670040     1.9993370142
    4      C      -1.2056464242    -0.1006811922     2.1680396296
    5      C      -1.5013125953    -0.0428650031     3.6017799852
    6      C      -0.7610424782    -0.0522516628     4.7536310141
    7      H       0.3199050612    -0.1130167476     4.7381414654
    8      C      -1.4400619518     0.0191272457     5.9935805933
    9      H      -0.8541716679     0.0109469837     6.9032652249
   10      C      -2.8099868511     0.0977801194     6.0841707030
   11      H      -3.2837297197     0.1501663350     7.0567084623
   12      C      -2.9022902809     0.0381946438     3.7086231676
   13      C      -3.5987260290     0.1093338869     4.9089631493
   14      C      -5.0093047069     0.1842622100     4.8089305097
   15      H      -5.6143766908     0.2414560115     5.7053771286
   16      C      -5.6160458112     0.1846132081     3.5748243357
   17      H      -6.6953022697     0.2427997324     3.5195800366
   18      C      -4.8803164052     0.1115308171     2.3688920995
   19      H      -5.4041957215     0.1154371400     1.4209286747
   20      C      -3.5144550943     0.0367705773     2.4410314683
   21      C      -2.4308770805    -0.0531644940     1.4644972334
   22      C      -2.4524566345    -0.0986639453     0.0814864136
   23      H      -3.3948901799    -0.0635533592    -0.4552717648
   24      C      -1.2545934565    -0.1907619856    -0.6307404815
   25      B       1.3084531370    -0.3523408210    -0.7091149509
   26      C       1.3003582945    -0.3803888027    -2.2604110595
   27      C       2.5097094102    -0.4536380038    -2.9569035111
   28      H       3.4442998165    -0.4891638530    -2.4079969163
   29      C       2.5077393860    -0.4810128249    -4.3382983256
   30      C       3.5957799568    -0.5512674385    -5.3170325686
   31      C       4.9628279799    -0.6098679274    -5.2588751394
   32      H       5.4955989804    -0.6137412056    -4.3163224113
   33      C       5.6897745288    -0.6664646419    -6.4720033651
   34      H       6.7698179408    -0.7124104721    -6.4243942816
   35      C       5.0768630767    -0.6654395954    -7.7029981021
   36      H       5.6763608634    -0.7102810631    -8.6039539139
   37      C       2.9811276961    -0.5512613958    -6.5831116013
   38      C       3.6659039377    -0.6061592095    -7.7920953991
   39      C       2.8707274658    -0.5954074052    -8.9638227018
   40      H       3.3405896493    -0.6364735845    -9.9388984189
   41      C       1.5006376985    -0.5323376538    -8.8677677524
   42      H       0.9093667469    -0.5245749583    -9.7742217001
   43      C       0.8307453500    -0.4766828207    -7.6228644340
   44      H      -0.2509682861    -0.4274608677    -7.5999528674
   45      C       1.5794850568    -0.4866199645    -6.4753239027
   46      C       1.2837456576    -0.4421197296    -5.0442479816
   47      C       0.0815353754    -0.3745124315    -4.3639172421
   48      H      -0.8564492830    -0.3483168828    -4.9089781243
   49      C       0.0748845496    -0.3387671877    -2.9673422702
   50      B      -1.2699646227    -0.2499304221    -2.1880954391
   51      C      -2.6294044935    -0.2225761231    -2.9768399685
   52      C      -3.1891124889     0.9896976764    -3.3905472109
   53      C      -4.3813374994     0.9937076968    -4.1076236429
   54      H      -4.8042410353     1.9417726890    -4.4232270867
   55      C      -5.0399912336    -0.1844801987    -4.4286795411
   56      C      -4.4734192503    -1.3845539664    -4.0142803078
   57      H      -4.9711310873    -2.3183882472    -4.2566527074
   58      C      -3.2852500437    -1.4186196754    -3.2981591104
   59      C      -6.3296840902    -0.1766103704    -5.1974195674
   60      H      -6.6224076776     0.8336887108    -5.4808961847
   61      H      -7.1454525460    -0.6021443665    -4.6102568702
   62      H      -6.2527580690    -0.7660664392    -6.1125601327
   63      C      -2.4953045613     2.2833511363    -3.0690335907
   64      H      -3.0625039972     3.1451561458    -3.4198389474
   65      H      -1.5073841807     2.3310033550    -3.5330731199
   66      H      -2.3490194809     2.4032386473    -1.9933137680
   67      C      -2.6933496601    -2.7336418419    -2.8736768373
   68      H      -3.3220377318    -3.5740543532    -3.1671107446
   69      H      -2.5644210872    -2.7832855349    -1.7901906869
   70      H      -1.7087506040    -2.8897400126    -3.3204974124
   71      C       2.6701268451    -0.4560850552     0.0576404991
   72      C       3.1870492339    -1.7076405459     0.3991032726
   73      C       4.4020549822    -1.7902424483     1.0705735043
   74      H       4.7954481727    -2.7668920600     1.3328850034
   75      C       5.1209695025    -0.6531011837     1.4110268615
   76      C       4.5976434146     0.5868559809     1.0595144381
   77      H       5.1480329150     1.4871653585     1.3139426184
   78      C       3.3870472811     0.6988594133     0.3900041464
   79      C       6.4245905024    -0.7503757606     2.1490613775
   80      H       6.7569674388    -1.7839117111     2.2408388297
   81      H       7.2142260945    -0.1936067522     1.6425971687
   82      H       6.3407398049    -0.3432146981     3.1583512666
   83      C       2.8387051619     2.0459510547     0.0091544401
   84      H       3.4852426961     2.8571595107     0.3425970772
   85      H       2.7276842936     2.1381706658    -1.0739875539
   86      H       1.8507401989     2.2129842890     0.4445679520
   87      C       2.4298975693    -2.9539883036     0.0304800006
   88      H       2.9327537767    -3.8539211293     0.3836949758
   89      H       2.3165929597    -3.0464124416    -1.0523659563
   90      H       1.4237924177    -2.9530442717     0.4563535717
 ----------------------------------------------------------------

   10   -1973.7044593298      6.98e-10  Convergence criterion met
 Total energy in the final basis set =    -1973.7044593298
 Final energy is   -1973.70445932979
 **  OPTIMIZATION CONVERGED  **

                    Orbital Energies (a.u.)
 --------------------------------------------------------------

 Alpha MOs
 -- Occupied --
-10.463 -10.463 -10.463 -10.463 -10.463 -10.463 -10.461 -10.461
-10.460 -10.460 -10.460 -10.460 -10.460 -10.460 -10.459 -10.459
-10.458 -10.458 -10.458 -10.458 -10.458 -10.458 -10.451 -10.451
-10.451 -10.450 -10.446 -10.446 -10.446 -10.445 -10.445 -10.445
-10.444 -10.444 -10.431 -10.431 -10.430 -10.430 -10.429 -10.428
-10.428 -10.428 -10.428 -10.428 -10.424 -10.424 -10.424 -10.424
-10.416 -10.414  -6.946  -6.943  -1.014  -1.014  -0.961  -0.957
 -0.954  -0.953  -0.932  -0.932  -0.907  -0.898  -0.870  -0.867
 -0.866  -0.865  -0.852  -0.851  -0.845  -0.845  -0.819  -0.812
 -0.810  -0.802  -0.779  -0.779  -0.757  -0.755  -0.755  -0.755
 -0.732  -0.726  -0.725  -0.718  -0.687  -0.678  -0.678  -0.663
 -0.650  -0.645  -0.638  -0.637  -0.637  -0.634  -0.593  -0.591
 -0.590  -0.587  -0.582  -0.573  -0.573  -0.550  -0.545  -0.542
 -0.539  -0.538  -0.526  -0.526  -0.517  -0.506  -0.501  -0.496
 -0.495  -0.494  -0.490  -0.484  -0.482  -0.482  -0.479  -0.479
 -0.478  -0.477  -0.474  -0.467  -0.466  -0.465  -0.462  -0.462
 -0.462  -0.458  -0.454  -0.453  -0.449  -0.447  -0.445  -0.444
 -0.442  -0.439  -0.430  -0.428  -0.427  -0.421  -0.411  -0.410
 -0.410  -0.400  -0.397  -0.393  -0.393  -0.392  -0.390  -0.387
 -0.380  -0.378  -0.378  -0.377  -0.375  -0.365  -0.349  -0.349
 -0.342  -0.334  -0.316  -0.311  -0.293  -0.293  -0.278  -0.270
 -0.269  -0.263  -0.260  -0.259  -0.254  -0.253

          Ground-State Mulliken Net Atomic Charges

     Atom                 Charge (a.u.)
  ----------------------------------------
      1 C                    -0.154901
      2 C                    -0.390223
      3 H                     0.235036
      4 C                     0.101215
      5 C                     0.199876
      6 C                    -0.384123
      7 H                     0.220733
      8 C                    -0.203630
      9 H                     0.226070
     10 C                    -0.336057
     11 H                     0.219925
     12 C                    -0.063467
     13 C                     0.253152
     14 C                    -0.334169
     15 H                     0.219747
     16 C                    -0.205041
     17 H                     0.226180
     18 C                    -0.379150
     19 H                     0.220606
     20 C                     0.193852
     21 C                     0.095747
     22 C                    -0.388231
     23 H                     0.233498
     24 C                    -0.155905
     25 B                     0.705475
     26 C                    -0.155266
     27 C                    -0.389015
     28 H                     0.236822
     29 C                     0.100573
     30 C                     0.201240
     31 C                    -0.384984
     32 H                     0.221049
     33 C                    -0.203420
     34 H                     0.225968
     35 C                    -0.336130
     36 H                     0.219883
     37 C                    -0.064688
     38 C                     0.251916
     39 C                    -0.333277
     40 H                     0.219673
     41 C                    -0.205162
     42 H                     0.226221
     43 C                    -0.379151
     44 H                     0.220583
     45 C                     0.194999
     46 C                     0.094797
     47 C                    -0.388484
     48 H                     0.234557
     49 C                    -0.155164
     50 B                     0.708646
     51 C                    -0.221764
     52 C                     0.062269
     53 C                    -0.344688
     54 H                     0.196032
     55 C                     0.131423
     56 C                    -0.339775
     57 H                     0.196378
     58 C                     0.061349
     59 C                    -0.709757
     60 H                     0.225939
     61 H                     0.230419
     62 H                     0.229356
     63 C                    -0.759610
     64 H                     0.234307
     65 H                     0.243409
     66 H                     0.243631
     67 C                    -0.759793
     68 H                     0.234376
     69 H                     0.243791
     70 H                     0.243590
     71 C                    -0.225379
     72 C                     0.064653
     73 C                    -0.347646
     74 H                     0.196026
     75 C                     0.131361
     76 C                    -0.341184
     77 H                     0.196038
     78 C                     0.067580
     79 C                    -0.709151
     80 H                     0.225843
     81 H                     0.228182
     82 H                     0.230881
     83 C                    -0.760103
     84 H                     0.234173
     85 H                     0.243728
     86 H                     0.244104
     87 C                    -0.762245
     88 H                     0.234703
     89 H                     0.244554
     90 H                     0.244598
  ----------------------------------------
  Sum of atomic charges =     0.000000

                    Cartesian Multipole Moments
 -----------------------------------------------------------------
    Charge (ESU x 10^10)
                 0.0000
    Dipole Moment (Debye)
         X      -0.0195      Y       0.0031      Z      -0.0298
       Tot       0.0358
    Quadrupole Moments (Debye-Ang)
        XX    -262.0199     XY      -1.6210     YY    -302.8017
        XZ      -5.0507     YZ       1.7370     ZZ    -255.5352

 Total job time:  22137.38s(wall), 87782.67s(cpu)
        *  Thank you very much for using Q-Chem.  Have a nice day.  *
