 Q-Chem 5.1, Q-Chem, Inc., Pleasanton, CA (2018)
 Q-Chem 5.1.1 for Intel X86 EM64T Linux

User input:
--------------------------------------------------------------
$rem
threads 8
jobtype	opt
method PBEh-3c
basis def2-mSVP
mem_static	1024
mem_total	12000
sym_ignore	true
cis_n_roots             2
cis_singlets            true
cis_triplets		false
rpa                     false
cis_state_deriv         1
$end

$molecule
read s1opt.mol
$end

--------------------------------------------------------------

   15   -1973.6968027229      8.23e-09  Convergence criterion met
 Total energy in the final basis set =    -1973.6968027229
   12   -1973.6976092020      5.72e-09  Convergence criterion met
 Total energy in the final basis set =    -1973.6976092020
   11   -1973.6977639718      8.09e-09  Convergence criterion met
 Total energy in the final basis set =    -1973.6977639718
   10   -1973.6978366011      7.31e-09  Convergence criterion met
 Total energy in the final basis set =    -1973.6978366011
   10   -1973.6978789954      5.53e-09  Convergence criterion met
 Total energy in the final basis set =    -1973.6978789954
    9   -1973.6978950616      6.33e-09  Convergence criterion met
 Total energy in the final basis set =    -1973.6978950616
    9   -1973.6978846638      6.03e-09  Convergence criterion met
 Total energy in the final basis set =    -1973.6978846638
    8   -1973.6978741071      9.59e-09  Convergence criterion met
 Total energy in the final basis set =    -1973.6978741071
    9   -1973.6978669830      4.47e-09  Convergence criterion met
 Total energy in the final basis set =    -1973.6978669830

             Standard Nuclear Orientation (Angstroms)
    I     Atom           X                Y                Z
 ----------------------------------------------------------------
    1      C       0.0023687172    -0.2490203825     0.0584723030
    2      C       0.0056821527    -0.2011134016     1.4617943393
    3      H       0.9530124401    -0.2371745517     1.9882372660
    4      C      -1.1766661128    -0.1142400587     2.1553814001
    5      C      -1.4735540024    -0.0583207141     3.5713865690
    6      C      -0.7321170755    -0.0678519145     4.7296254164
    7      H       0.3483947086    -0.1267689438     4.7140514135
    8      C      -1.4142606086     0.0004925345     5.9611488557
    9      H      -0.8324059614    -0.0074889141     6.8734478843
   10      C      -2.7885227246     0.0763616921     6.0514124086
   11      H      -3.2612787391     0.1264603603     7.0243193926
   12      C      -2.8806957633     0.0196957021     3.6754206976
   13      C      -3.5790559423     0.0877812664     4.8794309970
   14      C      -4.9875118789     0.1585540593     4.7763674250
   15      H      -5.5932656519     0.2133131445     5.6722951172
   16      C      -5.5980612334     0.1581648117     3.5388828420
   17      H      -6.6777775418     0.2133075417     3.4897580532
   18      C      -4.8721797377     0.0885407106     2.3344614709
   19      H      -5.3959525964     0.0911591934     1.3870822181
   20      C      -3.4995611645     0.0175969891     2.4038593630
   21      C      -2.4329085227    -0.0686568033     1.4345663458
   22      C      -2.4553805109    -0.1118449585     0.0598845181
   23      H      -3.3977745242    -0.0772398797    -0.4762673644
   24      C      -1.2588677629    -0.2013524710    -0.6646649437
   25      B       1.3297285924    -0.3589467640    -0.6982126749
   26      C       1.3021771234    -0.3910686672    -2.2293557737
   27      C       2.5117264989    -0.4652362870    -2.9375109302
   28      H       3.4454627696    -0.5000150798    -2.3877679114
   29      C       2.5093198807    -0.4944014107    -4.3095503962
   30      C       3.5808819511    -0.5643456839    -5.2809595312
   31      C       4.9537988292    -0.6270225000    -5.2256572596
   32      H       5.4866199763    -0.6332072107    -4.2837563672
   33      C       5.6712562366    -0.6842228815    -6.4374664665
   34      H       6.7514229963    -0.7329340314    -6.3951720750
   35      C       5.0552415027    -0.6811729624    -7.6714792144
   36      H       5.6549108367    -0.7269330627    -8.5720222547
   37      C       2.9599484939    -0.5626233452    -6.5502730982
   38      C       3.6461986265    -0.6191189756    -7.7629285453
   39      C       2.8488637774    -0.6081343060    -8.9306498372
   40      H       3.3173966820    -0.6498120723    -9.9061495438
   41      C       1.4741028037    -0.5441534502    -8.8353090134
   42      H       0.8872739675    -0.5367171247    -9.7446481129
   43      C       0.8012972380    -0.4880341937    -7.5993879096
   44      H      -0.2798526647    -0.4389774695    -7.5760151616
   45      C       1.5516690291    -0.4973508591    -6.4453459742
   46      C       1.2544988096    -0.4540182514    -5.0323689376
   47      C       0.0596539141    -0.3850318172    -4.3558796599
   48      H      -0.8783654822    -0.3575433306    -4.9001402528
   49      C       0.0433613194    -0.3462258725    -2.9544222159
   50      B      -1.2923099818    -0.2532588795    -2.2010054706
   51      C      -2.6570364992    -0.2140646718    -2.9934092501
   52      C      -3.2109088657     1.0018026918    -3.4097048817
   53      C      -4.4035024208     1.0180136046    -4.1270426782
   54      H      -4.8181017821     1.9701466488    -4.4419177655
   55      C      -5.0732301776    -0.1534448893    -4.4489331077
   56      C      -4.5180996571    -1.3578660272    -4.0328159824
   57      H      -5.0255224162    -2.2869634099    -4.2738782789
   58      C      -3.3295515470    -1.4021186444    -3.3164650149
   59      C      -6.3566343606    -0.1341756920    -5.2282784761
   60      H      -6.6961288448     0.8834669112    -5.4185494056
   61      H      -7.1551998811    -0.6533726873    -4.6958215862
   62      H      -6.2429837875    -0.6280587197    -6.1951514326
   63      C      -2.5126748204     2.2935737861    -3.0899107362
   64      H      -3.0746603916     3.1559987200    -3.4484913893
   65      H      -1.5210001161     2.3335184072    -3.5459231050
   66      H      -2.3694824218     2.4160904836    -2.0144351758
   67      C      -2.7581974961    -2.7270312601    -2.8942263841
   68      H      -3.4015117107    -3.5561992852    -3.1891691800
   69      H      -2.6262924177    -2.7794855263    -1.8116206182
   70      H      -1.7757108347    -2.8970829588    -3.3397879883
   71      C       2.6986192456    -0.4499061600     0.0718082153
   72      C       3.2265226301    -1.6951578594     0.4264492383
   73      C       4.4411987264    -1.7678573029     1.1008575640
   74      H       4.8391568630    -2.7407597818     1.3707272927
   75      C       5.1544225869    -0.6255902349     1.4349987057
   76      C       4.6248946423     0.6084303429     1.0734129373
   77      H       5.1703079116     1.5134757857     1.3222359517
   78      C       3.4144251525     0.7086083889     0.4004818072
   79      C       6.4574842947    -0.7115331529     2.1757141760
   80      H       6.7926498824    -1.7432577677     2.2782464493
   81      H       7.2464885485    -0.1577414240     1.6648174125
   82      H       6.3717141345    -0.2945265182     3.1808913577
   83      C       2.8664308666     2.0545366074     0.0152660546
   84      H       3.5212364387     2.8652534060     0.3345015728
   85      H       2.7393359859     2.1375758520    -1.0664968711
   86      H       1.8837372813     2.2276612577     0.4592434746
   87      C       2.4818360153    -2.9532811954     0.0728602158
   88      H       3.0051546282    -3.8443709915     0.4197104201
   89      H       2.3486116954    -3.0491499889    -1.0070971350
   90      H       1.4825647851    -2.9650832944     0.5135566138
 ----------------------------------------------------------------

    8   -1973.6978676107      7.05e-09  Convergence criterion met
 Total energy in the final basis set =    -1973.6978676107

         TDDFT/TDA Excitation Energies
 ---------------------------------------------------

 Excited state   1: excitation energy (eV) =    2.6735
 Total energy for state  1:                 -1973.59961653 au
    Multiplicity: Singlet
    Trans. Mom.:  0.0565 X  -0.0065 Y  -0.0963 Z
    Strength   :     0.0008186527
    D(174) --> V(  1) amplitude =  0.9667

 Excited state   2: excitation energy (eV) =    3.0866
 Total energy for state  2:                 -1973.58443787 au
    Multiplicity: Singlet
    Trans. Mom.: -0.1113 X   0.0136 Y   0.1761 Z
    Strength   :     0.0032945712
    D(172) --> V(  1) amplitude = -0.9589

 ---------------------------------------------------

 Final energy is   -1973.59961653469
 **  OPTIMIZATION CONVERGED  **

                    Orbital Energies (a.u.)
 --------------------------------------------------------------

 Alpha MOs
 -- Occupied --
-10.465 -10.464 -10.464 -10.464 -10.464 -10.463 -10.462 -10.462
-10.462 -10.462 -10.461 -10.461 -10.461 -10.460 -10.460 -10.459
-10.459 -10.459 -10.459 -10.459 -10.459 -10.459 -10.450 -10.450
-10.450 -10.449 -10.446 -10.446 -10.446 -10.445 -10.445 -10.445
-10.444 -10.444 -10.432 -10.432 -10.431 -10.431 -10.428 -10.428
-10.428 -10.428 -10.428 -10.427 -10.423 -10.423 -10.423 -10.422
-10.416 -10.414  -6.941  -6.938  -1.012  -1.012  -0.958  -0.954
 -0.953  -0.951  -0.933  -0.932  -0.904  -0.895  -0.870  -0.866
 -0.865  -0.865  -0.855  -0.854  -0.847  -0.847  -0.815  -0.812
 -0.810  -0.796  -0.778  -0.778  -0.756  -0.754  -0.754  -0.754
 -0.731  -0.729  -0.729  -0.717  -0.687  -0.681  -0.676  -0.665
 -0.648  -0.641  -0.636  -0.636  -0.636  -0.634  -0.596  -0.592
 -0.588  -0.588  -0.582  -0.575  -0.573  -0.549  -0.544  -0.541
 -0.538  -0.537  -0.526  -0.526  -0.519  -0.507  -0.500  -0.498
 -0.493  -0.492  -0.491  -0.485  -0.481  -0.481  -0.479  -0.478
 -0.478  -0.477  -0.474  -0.466  -0.464  -0.463  -0.462  -0.461
 -0.460  -0.459  -0.453  -0.453  -0.448  -0.447  -0.444  -0.443
 -0.442  -0.437  -0.432  -0.426  -0.424  -0.418  -0.414  -0.410
 -0.409  -0.399  -0.398  -0.394  -0.394  -0.393  -0.389  -0.386
 -0.379  -0.377  -0.376  -0.376  -0.373  -0.363  -0.351  -0.346
 -0.344  -0.332  -0.320  -0.314  -0.295  -0.294  -0.274  -0.269
 -0.268  -0.262  -0.260  -0.260  -0.253  -0.246

          Ground-State Mulliken Net Atomic Charges

     Atom                 Charge (a.u.)
  ----------------------------------------
      1 C                    -0.154016
      2 C                    -0.387460
      3 H                     0.235441
      4 C                     0.095903
      5 C                     0.205330
      6 C                    -0.375882
      7 H                     0.222121
      8 C                    -0.204035
      9 H                     0.226485
     10 C                    -0.334986
     11 H                     0.220473
     12 C                    -0.079666
     13 C                     0.255780
     14 C                    -0.333509
     15 H                     0.220246
     16 C                    -0.205333
     17 H                     0.226599
     18 C                    -0.370426
     19 H                     0.222063
     20 C                     0.198100
     21 C                     0.090714
     22 C                    -0.385727
     23 H                     0.233818
     24 C                    -0.153693
     25 B                     0.688564
     26 C                    -0.154360
     27 C                    -0.386289
     28 H                     0.237210
     29 C                     0.095244
     30 C                     0.206724
     31 C                    -0.376611
     32 H                     0.222441
     33 C                    -0.203887
     34 H                     0.226378
     35 C                    -0.334985
     36 H                     0.220415
     37 C                    -0.080702
     38 C                     0.254367
     39 C                    -0.332628
     40 H                     0.220157
     41 C                    -0.205438
     42 H                     0.226593
     43 C                    -0.370524
     44 H                     0.221897
     45 C                     0.199234
     46 C                     0.089962
     47 C                    -0.385574
     48 H                     0.234763
     49 C                    -0.152919
     50 B                     0.691544
     51 C                    -0.222520
     52 C                     0.059549
     53 C                    -0.342035
     54 H                     0.195967
     55 C                     0.130346
     56 C                    -0.336787
     57 H                     0.196299
     58 C                     0.058878
     59 C                    -0.709679
     60 H                     0.225814
     61 H                     0.229187
     62 H                     0.230287
     63 C                    -0.757536
     64 H                     0.233314
     65 H                     0.243234
     66 H                     0.243340
     67 C                    -0.757255
     68 H                     0.233232
     69 H                     0.243512
     70 H                     0.243109
     71 C                    -0.226551
     72 C                     0.063006
     73 C                    -0.344692
     74 H                     0.195906
     75 C                     0.130289
     76 C                    -0.338176
     77 H                     0.195994
     78 C                     0.064070
     79 C                    -0.709219
     80 H                     0.225684
     81 H                     0.228143
     82 H                     0.230736
     83 C                    -0.757638
     84 H                     0.233055
     85 H                     0.243586
     86 H                     0.243556
     87 C                    -0.759966
     88 H                     0.233600
     89 H                     0.244320
     90 H                     0.244123
  ----------------------------------------
  Sum of atomic charges =    -0.000000

                    Cartesian Multipole Moments
 -----------------------------------------------------------------
    Charge (ESU x 10^10)
                -0.0000
    Dipole Moment (Debye)
         X      -0.0179      Y       0.0007      Z      -0.0281
       Tot       0.0333
    Quadrupole Moments (Debye-Ang)
        XX    -261.2770     XY      -1.6578     YY    -303.1810
        XZ      -6.2863     YZ       1.8047     ZZ    -253.0482

 Total job time:  20981.88s(wall), 152016.68s(cpu)
        *  Thank you very much for using Q-Chem.  Have a nice day.  *
