 Q-Chem 5.1, Q-Chem, Inc., Pleasanton, CA (2018)
 Q-Chem 5.1.1 for Intel X86 EM64T Linux

User input:
--------------------------------------------------------------
$rem
threads 8
jobtype	opt
method PBEh-3c
basis def2-mSVP
mem_static	1024
mem_total	14000
sym_ignore	true
cis_n_roots             3
cis_singlets            true
cis_triplets		false
rpa                     false
cis_state_deriv         1
state_follow		true
$end

$molecule
read s1opt.mol
$end

--------------------------------------------------------------

   15   -1973.6977996499      7.94e-09  Convergence criterion met
 Total energy in the final basis set =    -1973.6977996499
   11   -1973.6978131443      6.25e-09  Convergence criterion met
 Total energy in the final basis set =    -1973.6978131443
   10   -1973.6977882227      6.54e-09  Convergence criterion met
 Total energy in the final basis set =    -1973.6977882227
   10   -1973.6977676438      8.49e-09  Convergence criterion met
 Total energy in the final basis set =    -1973.6977676438
    9   -1973.6977802246      7.67e-09  Convergence criterion met
 Total energy in the final basis set =    -1973.6977802246
    9   -1973.6977888882      5.53e-09  Convergence criterion met
 Total energy in the final basis set =    -1973.6977888882
    7   -1973.6977931685      9.73e-09  Convergence criterion met
 Total energy in the final basis set =    -1973.6977931685
    7   -1973.6977936630      9.02e-09  Convergence criterion met
 Total energy in the final basis set =    -1973.6977936630

             Standard Nuclear Orientation (Angstroms)
    I     Atom           X                Y                Z
 ----------------------------------------------------------------
    1      C      -0.0108424879     0.0589472631     0.0370091497
    2      C      -0.0121627288     0.0863884176     1.4413091346
    3      H       0.9345815840     0.0897040902     1.9699724290
    4      C      -1.1985906285     0.1077560998     2.1336864861
    5      C      -1.5023278161     0.1369791739     3.5496062025
    6      C      -0.7659046232     0.1559431817     4.7108851325
    7      H       0.3162624038     0.1511378270     4.6998150248
    8      C      -1.4555669833     0.1820504665     5.9400640747
    9      H      -0.8773332624     0.1968862008     6.8545841058
   10      C      -2.8322314660     0.1894211496     6.0257015693
   11      H      -3.3099872901     0.2095842810     6.9972406096
   12      C      -2.9121914009     0.1447839561     3.6495537068
   13      C      -3.6183079023     0.1704115824     4.8507448186
   14      C      -3.5256639439     0.1223433849     2.3761286627
   15      C      -4.8998899668     0.1258988204     2.3004787522
   16      H      -5.4188699685     0.1090197949     1.3505490918
   17      C      -5.6335581631     0.1516278956     3.5017390541
   18      H      -6.7145067497     0.1542635745     3.4482360649
   19      C      -5.0284411013     0.1734001597     4.7417257129
   20      H      -5.6399548341     0.1926423883     5.6352202215
   21      C      -2.4537324096     0.0985401921     1.4100240375
   22      C      -2.4722667636     0.0675383766     0.0352612108
   23      H      -3.4148073086     0.0558244147    -0.5015697294
   24      C      -1.2720409555     0.0490809569    -0.6879784986
   25      B       1.3209805614     0.0324504232    -0.7204912025
   26      C       1.2948209775     0.0373810584    -2.2521476670
   27      C       2.5066377863     0.0459109294    -2.9605705719
   28      H       3.4409161366     0.0479287515    -2.4106720798
   29      C       2.5060243565     0.0512901954    -4.3329183179
   30      C       3.5799865145     0.0626433751    -5.3041044272
   31      C       4.9542587256     0.0747215083    -5.2481598204
   32      H       5.4863453146     0.0776414405    -4.3058317282
   33      C       5.6740835868     0.0835001321    -6.4598905618
   34      H       6.7552918255     0.0929447047    -6.4171713090
   35      C       5.0591175869     0.0806644383    -7.6944170247
   36      H       5.6606462540     0.0878012503    -8.5948640925
   37      C       2.9601296560     0.0600398325    -6.5739844953
   38      C       3.6488359986     0.0685549287    -7.7866059715
   39      C       2.8524053937     0.0640360548    -8.9549468001
   40      H       3.3225913046     0.0701194472    -9.9305146033
   41      C       1.4761509326     0.0517061405    -8.8601697510
   42      H       0.8900362743     0.0482336884    -9.7700010508
   43      C       0.8009160322     0.0434410409    -7.6243719485
   44      H      -0.2813214584     0.0338531587    -7.6016467878
   45      C       1.5503403590     0.0477401699    -6.4696210467
   46      C       1.2510256212     0.0424912745    -5.0565061570
   47      C       0.0541724148     0.0292408488    -4.3801965080
   48      H      -0.8835863416     0.0183643901    -4.9255191484
   49      C       0.0356897783     0.0285558054    -2.9781959479
   50      B      -1.3026356697     0.0127899167    -2.2249459732
   51      C       2.6929054838    -0.0168163183     0.0483649401
   52      C       3.3587588490     1.1591970370     0.4064277337
   53      C       4.5727697947     1.0913415287     1.0832608860
   54      H       5.0788727944     2.0112021195     1.3578366161
   55      C       5.1496690360    -0.1262444955     1.4160453388
   56      C       4.4814699520    -1.2906412560     1.0538286009
   57      H       4.9165110274    -2.2529572833     1.3054759825
   58      C       3.2699148162    -1.2507206336     0.3773816078
   59      C       6.4647516198    -0.1957784632     2.1367862568
   60      H       6.8030410331     0.7910910191     2.4507512792
   61      H       6.3999980530    -0.8212399497     3.0284754623
   62      H       7.2439539399    -0.6226584951     1.5023524857
   63      C       2.5738789063    -2.5268637216    -0.0080766280
   64      H       3.1297480836    -3.4059793193     0.3180333249
   65      H       2.4461333542    -2.6000670016    -1.0904558023
   66      H       1.5749069961    -2.5867557884     0.4295730637
   67      C       2.7583541324     2.4917036861     0.0545051536
   68      H       3.3793611298     3.3195639407     0.3965480274
   69      H       2.6301670621     2.5981124993    -1.0250818994
   70      H       1.7685568863     2.6145595005     0.4997661479
   71      C      -2.6686053594    -0.0557243496    -3.0129601416
   72      C      -3.2334139389    -1.2931195988    -3.3423601049
   73      C      -4.4309028832    -1.3489843360    -4.0488933022
   74      H      -4.8536828776    -2.3174542836    -4.2960351376
   75      C      -5.0961941917    -0.1980269656    -4.4441108245
   76      C      -4.5289260119     1.0281917681    -4.1169128879
   77      H      -5.0304665369     1.9421431418    -4.4198024308
   78      C      -3.3345687637     1.1117912601    -3.4131078639
   79      C      -6.3946412024    -0.2664591487    -5.1954717369
   80      H      -6.6560778285    -1.2927273496    -5.4518556825
   81      H      -6.3504657828     0.3043006038    -6.1242863483
   82      H      -7.2177415718     0.1429555860    -4.6067232932
   83      C      -2.5455992852    -2.5674773699    -2.9386447131
   84      H      -3.1119697530    -3.4465878327    -3.2463978982
   85      H      -1.5515457644    -2.6436226992    -3.3846859865
   86      H      -2.4108630993    -2.6241455887    -1.8565391619
   87      C      -2.7490711989     2.4563677308    -3.0851597258
   88      H      -3.3835913361     3.2698092521    -3.4370698369
   89      H      -1.7648465910     2.5840308324    -3.5411125798
   90      H      -2.6152109425     2.5824625391    -2.0088110860
 ----------------------------------------------------------------

    7   -1973.6977929359      8.88e-09  Convergence criterion met
 Total energy in the final basis set =    -1973.6977929359

         TDDFT/TDA Excitation Energies
 ---------------------------------------------------

 Excited state   1: excitation energy (eV) =    2.6740
 Total energy for state  1:                 -1973.59952510 au
    Multiplicity: Singlet
    Trans. Mom.:  0.0585 X  -0.0009 Y  -0.0983 Z
    Strength   :     0.0008574282
    D(174) --> V(  1) amplitude =  0.9666

 Excited state   2: excitation energy (eV) =    3.0865
 Total energy for state  2:                 -1973.58436739 au
    Multiplicity: Singlet
    Trans. Mom.:  0.2036 X  -0.0046 Y  -0.3628 Z
    Strength   :     0.0130872900
    D(172) --> V(  1) amplitude =  0.9479

 Excited state   3: excitation energy (eV) =    3.1742
 Total energy for state  3:                 -1973.58114310 au
    Multiplicity: Singlet
    Trans. Mom.:  1.7952 X  -0.0245 Y  -3.1069 Z
    Strength   :     1.0013520132
    D(173) --> V(  1) amplitude =  0.9310

 ---------------------------------------------------

 Final energy is   -1973.59952510035
 **  OPTIMIZATION CONVERGED  **

                    Orbital Energies (a.u.)
 --------------------------------------------------------------

 Alpha MOs
 -- Occupied --
-10.465 -10.464 -10.464 -10.464 -10.464 -10.463 -10.462 -10.462
-10.462 -10.462 -10.461 -10.461 -10.460 -10.460 -10.460 -10.459
-10.459 -10.459 -10.459 -10.459 -10.459 -10.458 -10.450 -10.450
-10.450 -10.450 -10.446 -10.446 -10.446 -10.445 -10.445 -10.445
-10.444 -10.444 -10.432 -10.432 -10.432 -10.431 -10.428 -10.428
-10.428 -10.428 -10.428 -10.427 -10.423 -10.423 -10.423 -10.423
-10.416 -10.414  -6.941  -6.938  -1.012  -1.012  -0.958  -0.954
 -0.953  -0.951  -0.933  -0.932  -0.904  -0.895  -0.870  -0.866
 -0.865  -0.865  -0.855  -0.854  -0.847  -0.847  -0.815  -0.812
 -0.810  -0.796  -0.778  -0.778  -0.756  -0.754  -0.754  -0.754
 -0.731  -0.729  -0.729  -0.717  -0.687  -0.681  -0.676  -0.665
 -0.648  -0.641  -0.636  -0.636  -0.636  -0.634  -0.596  -0.592
 -0.588  -0.588  -0.582  -0.575  -0.573  -0.549  -0.544  -0.541
 -0.538  -0.537  -0.526  -0.526  -0.519  -0.507  -0.500  -0.498
 -0.493  -0.492  -0.491  -0.485  -0.481  -0.481  -0.479  -0.478
 -0.478  -0.477  -0.474  -0.466  -0.464  -0.463  -0.462  -0.461
 -0.460  -0.459  -0.453  -0.453  -0.448  -0.447  -0.444  -0.443
 -0.442  -0.437  -0.432  -0.426  -0.424  -0.418  -0.414  -0.410
 -0.409  -0.399  -0.398  -0.394  -0.394  -0.393  -0.389  -0.386
 -0.379  -0.377  -0.376  -0.376  -0.373  -0.363  -0.352  -0.346
 -0.344  -0.332  -0.320  -0.314  -0.295  -0.294  -0.274  -0.269
 -0.268  -0.262  -0.260  -0.260  -0.253  -0.246

          Ground-State Mulliken Net Atomic Charges

     Atom                 Charge (a.u.)
  ----------------------------------------
      1 C                    -0.154261
      2 C                    -0.388155
      3 H                     0.235353
      4 C                     0.096647
      5 C                     0.205414
      6 C                    -0.376587
      7 H                     0.222234
      8 C                    -0.203696
      9 H                     0.226498
     10 C                    -0.335390
     11 H                     0.220477
     12 C                    -0.079341
     13 C                     0.255805
     14 C                     0.197522
     15 C                    -0.369997
     16 H                     0.221969
     17 C                    -0.205355
     18 H                     0.226590
     19 C                    -0.333445
     20 H                     0.220220
     21 C                     0.090194
     22 C                    -0.385003
     23 H                     0.233844
     24 C                    -0.153579
     25 B                     0.688787
     26 C                    -0.154233
     27 C                    -0.386242
     28 H                     0.236941
     29 C                     0.095406
     30 C                     0.206744
     31 C                    -0.376563
     32 H                     0.222309
     33 C                    -0.203897
     34 H                     0.226362
     35 C                    -0.334994
     36 H                     0.220432
     37 C                    -0.080858
     38 C                     0.254448
     39 C                    -0.332656
     40 H                     0.220174
     41 C                    -0.205378
     42 H                     0.226639
     43 C                    -0.370530
     44 H                     0.221919
     45 C                     0.199395
     46 C                     0.089777
     47 C                    -0.385763
     48 H                     0.234411
     49 C                    -0.152877
     50 B                     0.691414
     51 C                    -0.226645
     52 C                     0.064369
     53 C                    -0.342665
     54 H                     0.195643
     55 C                     0.130098
     56 C                    -0.339830
     57 H                     0.196190
     58 C                     0.063352
     59 C                    -0.709396
     60 H                     0.225512
     61 H                     0.228555
     62 H                     0.230605
     63 C                    -0.760215
     64 H                     0.233595
     65 H                     0.244406
     66 H                     0.244454
     67 C                    -0.757855
     68 H                     0.233185
     69 H                     0.243469
     70 H                     0.243384
     71 C                    -0.222309
     72 C                     0.058364
     73 C                    -0.343454
     74 H                     0.196059
     75 C                     0.130536
     76 C                    -0.335794
     77 H                     0.196162
     78 C                     0.060558
     79 C                    -0.709477
     80 H                     0.225909
     81 H                     0.228640
     82 H                     0.230682
     83 C                    -0.759092
     84 H                     0.233787
     85 H                     0.243705
     86 H                     0.243837
     87 C                    -0.755933
     88 H                     0.232888
     89 H                     0.242652
     90 H                     0.242947
  ----------------------------------------
  Sum of atomic charges =    -0.000000

                    Cartesian Multipole Moments
 -----------------------------------------------------------------
    Charge (ESU x 10^10)
                -0.0000
    Dipole Moment (Debye)
         X      -0.0252      Y       0.0321      Z      -0.0423
       Tot       0.0588
    Quadrupole Moments (Debye-Ang)
        XX    -260.8205     XY      -0.4612     YY    -303.2680
        XZ      -6.5587     YZ       0.0977     ZZ    -253.3777

 Total job time:  15865.42s(wall), 114404.20s(cpu)
        *  Thank you very much for using Q-Chem.  Have a nice day.  *
