 Q-Chem 5.1, Q-Chem, Inc., Pleasanton, CA (2018)
 Q-Chem 5.1.1 for Intel X86 EM64T Linux

User input:
--------------------------------------------------------------
$rem
threads 8
jobtype	sp
method PBEh-3c
basis def2-mSVP
mem_static	1024
mem_total	10000
sym_ignore	true
cis_n_roots             6
cis_singlets            true
cis_triplets		true
rpa                     false
calc_soc 		true
cis_moments             true
cis_relaxed_density	true
$end

$molecule
read s2opt.mol
$end

--------------------------------------------------------------

             Standard Nuclear Orientation (Angstroms)
    I     Atom           X                Y                Z
 ----------------------------------------------------------------
    1      C       0.0000000000     0.0000000000     0.0000000000
    2      C       0.0000000000     0.0000000000     1.3992710000
    3      H       0.9444089875     0.0000000000     1.9321059585
    4      C      -1.1851890996     0.0012462369     2.0909997197
    5      C      -1.4482873352     0.0077761336     3.5099790377
    6      C      -0.6678587350     0.0151332516     4.6443691101
    7      H       0.4135513931     0.0161636577     4.5930210347
    8      C      -1.3102220568     0.0215405131     5.8972433061
    9      H      -0.7011884493     0.0275225428     6.7919402792
   10      C      -2.6837235358     0.0206464231     6.0261219466
   11      H      -3.1297793393     0.0259497050     7.0130029342
   12      C      -2.8537206095     0.0070740969     3.6470618637
   13      C      -3.5095726535     0.0134310324     4.8780070878
   14      C      -4.9212123863     0.0121194068     4.8230940869
   15      H      -5.4992343137     0.0166845025     5.7388597169
   16      C      -5.5662027902     0.0047434410     3.6042743412
   17      H      -6.6481515713     0.0037825942     3.5889307079
   18      C      -4.8784923620    -0.0017158386     2.3730373081
   19      H      -5.4369154552    -0.0078115900     1.4460899602
   20      C      -3.5032252417    -0.0000831646     2.3906605121
   21      C      -2.4513874674    -0.0030584119     1.3912603971
   22      C      -2.4692369436    -0.0095388029     0.0166925591
   23      H      -3.4104547605    -0.0174220423    -0.5212362341
   24      C      -1.2658054605    -0.0072343470    -0.7107933809
   25      B       1.3339593464     0.0094734583    -0.7549630533
   26      C       1.2962442390     0.0267436825    -2.2879049181
   27      C       2.4968137704     0.0472923736    -3.0057856839
   28      H       3.4375289326     0.0562559840    -2.4660923532
   29      C       2.4826037275     0.0527059510    -4.3788584841
   30      C       3.5652752270     0.0675645139    -5.3293712877
   31      C       4.9383452540     0.0870573282    -5.2339024417
   32      H       5.4433812092     0.0970377246    -4.2762829671
   33      C       5.6871246895     0.0925870556    -6.4253582350
   34      H       6.7672929980     0.1072035694    -6.3591697119
   35      C       5.0962801941     0.0797183719    -7.6727360713
   36      H       5.7182963173     0.0838138105    -8.5591391568
   37      C       2.9653116026     0.0561359460    -6.6078861936
   38      C       3.6877817033     0.0608155919    -7.7993773065
   39      C       2.9170582095     0.0453607244    -8.9835152307
   40      H       3.4069077768     0.0474414347    -9.9491481518
   41      C       1.5396299017     0.0267359703    -8.9136253911
   42      H       0.9730458743     0.0143375313    -9.8353455041
   43      C       0.8332493040     0.0226563778    -7.6935089988
   44      H      -0.2488199182     0.0072193897    -7.6975833861
   45      C       1.5533433493     0.0373533280    -6.5220921937
   46      C       1.2322411674     0.0356587682    -5.1084793623
   47      C       0.0420895847     0.0179456321    -4.4181798678
   48      H      -0.9030894492     0.0044423301    -4.9496658806
   49      C       0.0349720570     0.0129649245    -3.0118146980
   50      B      -1.2960620395    -0.0156839231    -2.2455059029
   51      C      -2.6673022830    -0.0660250765    -3.0149017905
   52      C      -3.2510763214    -1.2948227019    -3.3379264927
   53      C      -4.4601245442    -1.3297071346    -4.0252264094
   54      H      -4.9014835675    -2.2902145189    -4.2709545452
   55      C      -5.1132694184    -0.1653346898    -4.4032846527
   56      C      -4.5292422077     1.0523487130    -4.0715927949
   57      H      -5.0272406853     1.9745600747    -4.3543722748
   58      C      -3.3230279551     1.1147652669    -3.3866068165
   59      C      -6.4088769937    -0.2117795495    -5.1603365401
   60      H      -6.8000348187    -1.2268531429    -5.2230084516
   61      H      -7.1724267772     0.4073614608    -4.6872848972
   62      H      -6.2859347096     0.1544120130    -6.1814005066
   63      C      -2.7132963164     2.4438352011    -3.0377568548
   64      H      -3.3330199500     3.2751225916    -3.3737325022
   65      H      -1.7267452861     2.5616909005    -3.4915026213
   66      H      -2.5753701449     2.5477534351    -1.9592006187
   67      C      -2.5699054256    -2.5755145398    -2.9403384739
   68      H      -3.1373873549    -3.4510122948    -3.2560791970
   69      H      -2.4394860762    -2.6400419146    -1.8578040568
   70      H      -1.5731927632    -2.6523952554    -3.3806213106
   71      C       2.7003584449    -0.0074426522     0.0361666724
   72      C       3.3236075247     1.1840895195     0.4239783839
   73      C       4.5131210344     1.1488825825     1.1456219547
   74      H       4.9815773409     2.0827642900     1.4390071209
   75      C       5.1120777008    -0.0509080183     1.5005822470
   76      C       4.4885595776    -1.2308267408     1.1123311727
   77      H       4.9397862799    -2.1815620124     1.3793192874
   78      C       3.3018590890    -1.2237964013     0.3916911144
   79      C       6.3920310394    -0.0863286330     2.2849912113
   80      H       6.7824621863     0.9151758241     2.4625517032
   81      H       7.1648965758    -0.6530484996     1.7630805257
   82      H       6.2501481796    -0.5602715665     3.2581133630
   83      C       2.7023269233     2.5054761701     0.0687964542
   84      H       3.3063092326     3.3429771791     0.4180656792
   85      H       2.5800353838     2.6131702465    -1.0108586995
   86      H       1.7083933599     2.6093631299     0.5095769210
   87      C       2.6556214371    -2.5235231559     0.0009027585
   88      H       3.2533708915    -3.3807567228     0.3110098235
   89      H       2.5150365234    -2.5917247041    -1.0796600754
   90      H       1.6676591433    -2.6293283160     0.4543648590
 ----------------------------------------------------------------

   15   -1973.6977491643      7.97e-09  Convergence criterion met
 Total energy in the final basis set =    -1973.6977491643

         TDDFT/TDA Excitation Energies
 ---------------------------------------------------

 Excited state   1: excitation energy (eV) =    1.9985
 Total energy for state  1:                 -1973.62430640 au
    Multiplicity: Triplet
    Trans. Mom.:  0.0000 X   0.0000 Y   0.0000 Z
    Strength   :     0.0000000000
    D(167) --> V(  2) amplitude =  0.2585
    D(174) --> V(  1) amplitude =  0.9237

 Excited state   2: excitation energy (eV) =    2.3611
 Total energy for state  2:                 -1973.61098189 au
    Multiplicity: Triplet
    Trans. Mom.:  0.0000 X   0.0000 Y   0.0000 Z
    Strength   :     0.0000000000
    D(171) --> V(  2) amplitude =  0.4799
    D(173) --> V(  1) amplitude =  0.8036

 Excited state   3: excitation energy (eV) =    2.4213
 Total energy for state  3:                 -1973.60876910 au
    Multiplicity: Triplet
    Trans. Mom.:  0.0000 X   0.0000 Y   0.0000 Z
    Strength   :     0.0000000000
    D(171) --> V(  1) amplitude =  0.7194
    D(171) --> V(  4) amplitude =  0.2209
    D(173) --> V(  2) amplitude =  0.5388

 Excited state   4: excitation energy (eV) =    2.5050
 Total energy for state  4:                 -1973.60569206 au
    Multiplicity: Triplet
    Trans. Mom.:  0.0000 X   0.0000 Y   0.0000 Z
    Strength   :     0.0000000000
    D(167) --> V(  1) amplitude =  0.7146
    D(174) --> V(  2) amplitude =  0.5629

 Excited state   5: excitation energy (eV) =    2.6812
 Total energy for state  5:                 -1973.59921549 au
    Multiplicity: Singlet
    Trans. Mom.:  0.0665 X   0.0030 Y  -0.0982 Z
    Strength   :     0.0009240534
    D(174) --> V(  1) amplitude =  0.9658

 Excited state   6: excitation energy (eV) =    3.0124
 Total energy for state  6:                 -1973.58704669 au
    Multiplicity: Triplet
    Trans. Mom.:  0.0000 X   0.0000 Y   0.0000 Z
    Strength   :     0.0000000000
    D(172) --> V(  1) amplitude =  0.9285

 Excited state   7: excitation energy (eV) =    3.0875
 Total energy for state  7:                 -1973.58428420 au
    Multiplicity: Singlet
    Trans. Mom.: -0.1320 X  -0.0028 Y   0.2063 Z
    Strength   :     0.0045365645
    D(172) --> V(  1) amplitude =  0.9464

 Excited state   8: excitation energy (eV) =    3.1732
 Total energy for state  8:                 -1973.58113472 au
    Multiplicity: Triplet
    Trans. Mom.:  0.0000 X   0.0000 Y   0.0000 Z
    Strength   :     0.0000000000
    D(170) --> V(  1) amplitude =  0.9580

 Excited state   9: excitation energy (eV) =    3.1744
 Total energy for state  9:                 -1973.58109204 au
    Multiplicity: Singlet
    Trans. Mom.:  1.7822 X   0.0110 Y  -3.1291 Z
    Strength   :     1.0084990965
    D(173) --> V(  1) amplitude =  0.9400

 Excited state  10: excitation energy (eV) =    3.2056
 Total energy for state 10:                 -1973.57994517 au
    Multiplicity: Singlet
    Trans. Mom.: -0.0257 X  -0.0035 Y   0.0847 Z
    Strength   :     0.0006157702
    D(170) --> V(  1) amplitude =  0.9664

 Excited state  11: excitation energy (eV) =    3.4536
 Total energy for state 11:                 -1973.57083199 au
    Multiplicity: Singlet
    Trans. Mom.: -0.7427 X  -0.0124 Y  -0.4328 Z
    Strength   :     0.0625268459
    D(167) --> V(  1) amplitude =  0.6684
    D(171) --> V(  1) amplitude =  0.2562
    D(174) --> V(  2) amplitude =  0.6100

 Excited state  12: excitation energy (eV) =    3.4946
 Total energy for state 12:                 -1973.56932367 au
    Multiplicity: Singlet
    Trans. Mom.:  0.1328 X  -0.0194 Y   0.0881 Z
    Strength   :     0.0022060513
    D(171) --> V(  1) amplitude =  0.8857

 ---------------------------------------------------

                    Orbital Energies (a.u.)
 --------------------------------------------------------------

 Alpha MOs
 -- Occupied --
-10.465 -10.464 -10.464 -10.464 -10.464 -10.463 -10.462 -10.462
-10.462 -10.462 -10.462 -10.462 -10.460 -10.460 -10.460 -10.459
-10.459 -10.459 -10.459 -10.459 -10.458 -10.458 -10.451 -10.451
-10.449 -10.449 -10.446 -10.446 -10.446 -10.445 -10.445 -10.444
-10.444 -10.444 -10.433 -10.432 -10.431 -10.431 -10.428 -10.428
-10.428 -10.428 -10.428 -10.427 -10.423 -10.423 -10.423 -10.422
-10.416 -10.414  -6.940  -6.939  -1.013  -1.012  -0.958  -0.954
 -0.953  -0.951  -0.933  -0.932  -0.904  -0.895  -0.870  -0.866
 -0.865  -0.864  -0.855  -0.854  -0.847  -0.846  -0.815  -0.812
 -0.810  -0.796  -0.778  -0.778  -0.757  -0.754  -0.754  -0.754
 -0.731  -0.729  -0.728  -0.717  -0.687  -0.681  -0.676  -0.665
 -0.648  -0.641  -0.636  -0.636  -0.636  -0.634  -0.596  -0.592
 -0.589  -0.588  -0.582  -0.575  -0.573  -0.549  -0.544  -0.541
 -0.538  -0.537  -0.526  -0.526  -0.519  -0.507  -0.500  -0.497
 -0.493  -0.491  -0.491  -0.485  -0.481  -0.481  -0.479  -0.478
 -0.478  -0.477  -0.474  -0.466  -0.464  -0.463  -0.462  -0.461
 -0.460  -0.459  -0.453  -0.453  -0.448  -0.447  -0.444  -0.443
 -0.442  -0.437  -0.432  -0.426  -0.424  -0.419  -0.414  -0.410
 -0.409  -0.399  -0.398  -0.394  -0.394  -0.393  -0.389  -0.386
 -0.379  -0.377  -0.376  -0.376  -0.373  -0.363  -0.351  -0.346
 -0.344  -0.332  -0.320  -0.314  -0.295  -0.294  -0.274  -0.269
 -0.268  -0.262  -0.260  -0.259  -0.253  -0.247

          Ground-State Mulliken Net Atomic Charges

     Atom                 Charge (a.u.)
  ----------------------------------------
      1 C                    -0.151417
      2 C                    -0.382131
      3 H                     0.235811
      4 C                     0.081345
      5 C                     0.200352
      6 C                    -0.369095
      7 H                     0.222141
      8 C                    -0.206030
      9 H                     0.226658
     10 C                    -0.331339
     11 H                     0.220090
     12 C                    -0.080014
     13 C                     0.253984
     14 C                    -0.335822
     15 H                     0.220515
     16 C                    -0.203407
     17 H                     0.226238
     18 C                    -0.378687
     19 H                     0.222199
     20 C                     0.204535
     21 C                     0.105957
     22 C                    -0.391520
     23 H                     0.235629
     24 C                    -0.154855
     25 B                     0.689654
     26 C                    -0.152752
     27 C                    -0.382924
     28 H                     0.234193
     29 C                     0.081500
     30 C                     0.199591
     31 C                    -0.367832
     32 H                     0.222235
     33 C                    -0.206403
     34 H                     0.226732
     35 C                    -0.332224
     36 H                     0.220179
     37 C                    -0.079667
     38 C                     0.256022
     39 C                    -0.336324
     40 H                     0.220539
     41 C                    -0.203300
     42 H                     0.226325
     43 C                    -0.377908
     44 H                     0.222059
     45 C                     0.202660
     46 C                     0.106460
     47 C                    -0.391124
     48 H                     0.234834
     49 C                    -0.154618
     50 B                     0.691043
     51 C                    -0.222462
     52 C                     0.060927
     53 C                    -0.344395
     54 H                     0.195762
     55 C                     0.130376
     56 C                    -0.338241
     57 H                     0.195867
     58 C                     0.063095
     59 C                    -0.709136
     60 H                     0.225630
     61 H                     0.228071
     62 H                     0.230765
     63 C                    -0.758199
     64 H                     0.233121
     65 H                     0.243561
     66 H                     0.243510
     67 C                    -0.759935
     68 H                     0.233608
     69 H                     0.244267
     70 H                     0.243752
     71 C                    -0.226735
     72 C                     0.061413
     73 C                    -0.341746
     74 H                     0.195940
     75 C                     0.130351
     76 C                    -0.337348
     77 H                     0.196394
     78 C                     0.060818
     79 C                    -0.709750
     80 H                     0.225831
     81 H                     0.229420
     82 H                     0.230153
     83 C                    -0.757175
     84 H                     0.233266
     85 H                     0.243093
     86 H                     0.243277
     87 C                    -0.757945
     88 H                     0.233367
     89 H                     0.243874
     90 H                     0.243467
  ----------------------------------------
  Sum of atomic charges =    -0.000000

                    Cartesian Multipole Moments
 -----------------------------------------------------------------
    Charge (ESU x 10^10)
                -0.0000
    Dipole Moment (Debye)
         X       0.1121      Y      -0.0017      Z       0.0564
       Tot       0.1255
    Quadrupole Moments (Debye-Ang)
        XX    -261.4849     XY      -0.2293     YY    -303.2725
        XZ      -6.4229     YZ      -0.1660     ZZ    -253.0166

 Total job time:  6952.09s(wall), 22073.04s(cpu)
        *  Thank you very much for using Q-Chem.  Have a nice day.  *
