 Q-Chem 5.0, Q-Chem, Inc., Pleasanton, CA (2017)
 Q-Chem 5.0.1 for Intel X86 EM64T Linux

User input:
--------------------------------------------------------------
$rem
threads 8
jobtype	opt
method PBEh-3c
basis def2-mSVP
mem_static	1024
mem_total	14000
sym_ignore	true
cis_n_roots             3
cis_singlets            true
cis_triplets		false
rpa                     false
cis_state_deriv         1
state_follow		true
$end

$molecule
read s2preopt.mol
$end

--------------------------------------------------------------

             Standard Nuclear Orientation (Angstroms)
    I     Atom           X                Y                Z
 ----------------------------------------------------------------
    1      C      -6.2190650000     4.0241920000     1.7376080000
    2      C      -6.7446370000     2.7223340000     1.9915070000
    3      B      -5.8853590000     1.4628600000     1.8090490000
    4      C      -4.4264040000     1.6219500000     1.3583280000
    5      C      -3.8639560000     2.9136650000     1.1292440000
    6      B      -4.7533090000     4.1403880000     1.3224780000
    7      C      -2.5261410000     3.0137120000     0.6789310000
    8      C      -1.7788190000     1.8850860000     0.4446140000
    9      C      -2.3526240000     0.5993330000     0.6642980000
   10      C      -3.6432420000     0.4825360000     1.1197970000
   11      C      -7.0756100000     5.1477330000     1.8307080000
   12      C      -8.4003400000     4.9926270000     2.1597570000
   13      C      -8.9083240000     3.6912560000     2.4394330000
   14      C      -8.0926430000     2.5905050000     2.3557730000
   15      H      -6.6953430000     6.1430590000     1.6203020000
   16      C      -6.5196220000     0.0329200000     2.0198970000
   17      C      -4.1673340000     5.5624570000     1.0374520000
   18      C      -7.1286430000    -0.6328950000     0.9495400000
   19      C      -7.6906700000    -1.8914230000     1.1386800000
   20      C      -7.6692920000    -2.5184680000     2.3758320000
   21      C      -7.0650130000    -1.8517760000     3.4355390000
   22      C      -6.4958650000    -0.5955290000     3.2725510000
   23      C      -5.8580670000     0.1019500000     4.4406680000
   24      C      -7.1817260000     0.0118840000    -0.4077790000
   25      H      -8.1567430000    -2.3941020000     0.2970560000
   26      C      -8.2893530000    -3.8718410000     2.5730690000
   27      H      -7.0360960000    -2.3246340000     4.4124370000
   28      H      -4.8224550000     0.3713770000     4.2239040000
   29      H      -5.8608990000    -0.5213550000     5.3351360000
   30      H      -6.3827820000     1.0296040000     4.6796240000
   31      H      -7.7280350000     0.9569130000    -0.3764040000
   32      H      -7.6732590000    -0.6298600000    -1.1395360000
   33      H      -6.1813600000     0.2364540000    -0.7831750000
   34      H      -8.6006570000    -4.3115630000     1.6258020000
   35      H      -9.1726260000    -3.8168270000     3.2126990000
   36      H      -7.5942010000    -4.5671440000     3.0461870000
   37      C      -3.5614100000     6.3266150000     2.1004730000
   38      C      -3.0030160000     7.5480290000     1.8247060000
   39      C      -3.0272690000     8.0725760000     0.5221290000
   40      C      -3.6455000000     7.3393140000    -0.5188290000
   41      C      -4.2145720000     6.1186720000    -0.2880870000
   42      C      -4.8715330000     5.3360500000    -1.3739890000
   43      C      -3.5556410000     5.7495440000     3.4713420000
   44      H      -2.5348970000     8.1224570000     2.6138490000
   45      C      -2.4107850000     9.3866070000     0.2140520000
   46      H      -3.6596150000     7.7665600000    -1.5144690000
   47      H      -4.8851520000     5.8828520000    -2.3151950000
   48      H      -5.8963800000     5.0836790000    -1.0993410000
   49      H      -4.3540560000     4.3878910000    -1.5293140000
   50      H      -4.5761000000     5.5571210000     3.8078990000
   51      H      -3.0664110000     6.4052800000     4.1889880000
   52      H      -3.0503790000     4.7819750000     3.4745540000
   53      H      -2.0186570000     9.8822690000     1.0983380000
   54      H      -3.1341510000    10.0490920000    -0.2662340000
   55      H      -1.5923140000     9.2594790000    -0.4995340000
   56      C      -0.4224120000     1.6822280000    -0.0695340000
   57      C     -10.3298770000     3.8029390000     2.7305570000
   58      C     -11.3294330000     2.9158310000     3.0435710000
   59      C       1.7883570000     1.9015570000    -0.9658310000
   60      C       1.9573940000     0.5386070000    -1.0435660000
   61      C       0.9179880000    -0.3283230000    -0.6302020000
   62      C     -12.9501490000     4.7446980000     3.0970720000
   63      C     -12.6395520000     3.4112020000     3.2276530000
   64      H     -13.4269970000     2.7105780000     3.4748460000
   65      H       2.8843280000     0.1302170000    -1.4272410000
   66      C      -0.2340790000     0.2869860000    -0.1502780000
   67      H      -4.0812200000    -0.4974610000     1.2812360000
   68      C       0.5995980000     2.4964440000    -0.4838120000
   69      H       2.5936050000     2.5474120000    -1.2914790000
   70      H       0.5165090000     3.5756910000    -0.4548160000
   71      H      -2.0854260000     3.9886640000     0.4936360000
   72      C      -1.3779810000    -0.4116850000     0.2832450000
   73      C       0.9030920000    -1.7449280000    -0.6636910000
   74      C      -0.2109930000    -2.4335890000    -0.2422200000
   75      C      -1.3705930000    -1.7833650000     0.2361410000
   76      H      -0.2046660000    -3.5155540000    -0.2812010000
   77      H      -2.2264380000    -2.3699030000     0.5469550000
   78      H      -8.4914300000     1.5994030000     2.5477380000
   79      H     -11.1392400000     1.8545920000     3.1450640000
   80      C     -10.6528220000     5.1670010000     2.6058020000
   81      C      -9.5209920000     5.9342180000     2.2614680000
   82      C      -9.6940240000     7.2818020000     2.0741060000
   83      C     -10.9865750000     7.8329840000     2.2370930000
   84      C     -12.0813510000     7.0717800000     2.5739730000
   85      C     -11.9376340000     5.6785110000     2.7698500000
   86      H     -11.1160490000     8.8968600000     2.0852870000
   87      H     -13.0532410000     7.5375050000     2.6829740000
   88      H      -8.8718840000     7.9305670000     1.7990220000
   89      H     -13.9707380000     5.0786610000     3.2391840000
   90      H       1.7667930000    -2.2879110000    -1.0273400000
 ----------------------------------------------------------------

   15   -1973.6945778814      6.61E-09 Convergence criterion met
 Total energy in the final basis set = -1973.69457788

         TDDFT/TDA Excitation Energies
 ---------------------------------------------------

 Excited state   1: excitation energy (eV) =    2.8078
 Total energy for state  1:                 -1973.59139157 au
    Multiplicity: Singlet
    Trans. Mom.: -0.0252 X  -0.0115 Y   0.0137 Z
    Strength   :     0.0000655550
    D(174) --> V(  1) amplitude =  0.9690

 Excited state   2: excitation energy (eV) =    2.8887
 Total energy for state  2:                 -1973.58842052 au
    Multiplicity: Singlet
    Trans. Mom.:  0.2153 X  -0.1088 Y  -0.0711 Z
    Strength   :     0.0044767886
    D(172) --> V(  1) amplitude =  0.6163
    D(173) --> V(  1) amplitude =  0.7447

 Excited state   3: excitation energy (eV) =    3.2042
 Total energy for state  3:                 -1973.57682467 au
    Multiplicity: Singlet
    Trans. Mom.: -0.7288 X   0.3611 Y   0.1846 Z
    Strength   :     0.0546039036
    D(170) --> V(  1) amplitude = -0.9249

 ---------------------------------------------------

 Final energy is   -1973.59139157095
 **  OPTIMIZATION CONVERGED  **

                    Orbital Energies (a.u.)
 --------------------------------------------------------------

 Alpha MOs
 -- Occupied --
-10.464 -10.464 -10.464 -10.464 -10.463 -10.463 -10.462 -10.462
-10.462 -10.461 -10.461 -10.461 -10.461 -10.461 -10.460 -10.460
-10.459 -10.459 -10.459 -10.459 -10.458 -10.458 -10.453 -10.453
-10.450 -10.449 -10.446 -10.446 -10.446 -10.446 -10.445 -10.445
-10.445 -10.445 -10.432 -10.432 -10.431 -10.430 -10.429 -10.429
-10.428 -10.427 -10.427 -10.425 -10.424 -10.423 -10.422 -10.421
-10.417 -10.417  -6.943  -6.937  -1.014  -1.014  -0.960  -0.957
 -0.953  -0.946  -0.932  -0.932  -0.906  -0.897  -0.869  -0.869
 -0.866  -0.864  -0.853  -0.852  -0.846  -0.845  -0.821  -0.812
 -0.810  -0.802  -0.779  -0.777  -0.757  -0.756  -0.755  -0.748
 -0.734  -0.726  -0.726  -0.719  -0.688  -0.680  -0.679  -0.665
 -0.649  -0.644  -0.638  -0.637  -0.634  -0.629  -0.594  -0.591
 -0.590  -0.588  -0.582  -0.575  -0.575  -0.550  -0.543  -0.543
 -0.539  -0.536  -0.526  -0.526  -0.518  -0.506  -0.503  -0.495
 -0.494  -0.493  -0.489  -0.485  -0.482  -0.482  -0.479  -0.478
 -0.478  -0.477  -0.474  -0.466  -0.466  -0.464  -0.462  -0.462
 -0.461  -0.458  -0.457  -0.453  -0.451  -0.449  -0.447  -0.444
 -0.443  -0.441  -0.430  -0.428  -0.425  -0.420  -0.411  -0.410
 -0.408  -0.401  -0.398  -0.394  -0.393  -0.393  -0.391  -0.387
 -0.379  -0.377  -0.377  -0.373  -0.371  -0.364  -0.351  -0.348
 -0.347  -0.332  -0.318  -0.312  -0.294  -0.293  -0.279  -0.272
 -0.269  -0.262  -0.260  -0.254  -0.252  -0.247

          Ground-State Mulliken Net Atomic Charges

     Atom                 Charge (a.u.)
  ----------------------------------------
      1 C                    -0.150498
      2 C                    -0.150698
      3 B                     0.696204
      4 C                    -0.148831
      5 C                    -0.150343
      6 B                     0.683319
      7 C                    -0.393358
      8 C                     0.113307
      9 C                     0.094647
     10 C                    -0.392002
     11 C                    -0.396811
     12 C                     0.115246
     13 C                     0.091611
     14 C                    -0.388463
     15 H                     0.233418
     16 C                    -0.228550
     17 C                    -0.247351
     18 C                     0.057746
     19 C                    -0.344136
     20 C                     0.130506
     21 C                    -0.336818
     22 C                     0.064724
     23 C                    -0.757004
     24 C                    -0.758516
     25 H                     0.196296
     26 C                    -0.709610
     27 H                     0.196502
     28 H                     0.243482
     29 H                     0.233683
     30 H                     0.241985
     31 H                     0.244412
     32 H                     0.234035
     33 H                     0.243938
     34 H                     0.225884
     35 H                     0.231004
     36 H                     0.228694
     37 C                     0.077504
     38 C                    -0.340876
     39 C                     0.117337
     40 C                    -0.336980
     41 C                     0.073777
     42 C                    -0.756173
     43 C                    -0.759483
     44 H                     0.196175
     45 C                    -0.710139
     46 H                     0.195233
     47 H                     0.232498
     48 H                     0.244977
     49 H                     0.244914
     50 H                     0.245505
     51 H                     0.233056
     52 H                     0.244355
     53 H                     0.226120
     54 H                     0.228025
     55 H                     0.228580
     56 C                     0.199120
     57 C                     0.195511
     58 C                    -0.376234
     59 C                    -0.202677
     60 C                    -0.335773
     61 C                     0.251010
     62 C                    -0.331276
     63 C                    -0.205640
     64 H                     0.226266
     65 H                     0.220447
     66 C                    -0.065239
     67 H                     0.234913
     68 C                    -0.383372
     69 H                     0.226427
     70 H                     0.221282
     71 H                     0.233910
     72 C                     0.195300
     73 C                    -0.331847
     74 C                    -0.205411
     75 C                    -0.375878
     76 H                     0.226413
     77 H                     0.221863
     78 H                     0.235546
     79 H                     0.221522
     80 C                    -0.064035
     81 C                     0.200085
     82 C                    -0.385959
     83 C                    -0.202034
     84 C                    -0.335947
     85 C                     0.251095
     86 H                     0.226346
     87 H                     0.220452
     88 H                     0.221023
     89 H                     0.220357
     90 H                     0.220377
  ----------------------------------------
  Sum of atomic charges =    -0.000000

                    Cartesian Multipole Moments
 -----------------------------------------------------------------
    Charge (ESU x 10^10)
                -0.0000
    Dipole Moment (Debye)
         X      -0.2839      Y      -0.3460      Z      -0.5914
       Tot       0.7417
    Quadrupole Moments (Debye-Ang)
        XX    -253.9626     XY      -4.6693     YY    -266.3035
        XZ     -10.7566     YZ      -3.5483     ZZ    -299.9104

 Total job time:  2607.84s(wall), 16094.98s(cpu)
        *  Thank you very much for using Q-Chem.  Have a nice day.  *
