 Q-Chem 5.1, Q-Chem, Inc., Pleasanton, CA (2018)
 Q-Chem 5.1.1 for Intel X86 EM64T Linux

User input:
--------------------------------------------------------------
$rem
threads 8
jobtype	opt
method PBEh-3c
basis def2-mSVP
mem_static	1024
mem_total	14000
sym_ignore	true
cis_n_roots             3
cis_singlets            true
cis_triplets		false
rpa                     false
cis_state_deriv         2
state_follow		true
$end

$molecule
read s2opt.mol
$end

--------------------------------------------------------------

   15   -1973.6960064307      6.06e-09  Convergence criterion met
 Total energy in the final basis set =    -1973.6960064307
   12   -1973.6978757012      8.08e-09  Convergence criterion met
 Total energy in the final basis set =    -1973.6978757012
   11   -1973.6978005409      6.23e-09  Convergence criterion met
 Total energy in the final basis set =    -1973.6978005409
   10   -1973.6977667393      5.29e-09  Convergence criterion met
 Total energy in the final basis set =    -1973.6977667393
    9   -1973.6977504399      6.74e-09  Convergence criterion met
 Total energy in the final basis set =    -1973.6977504399
    9   -1973.6977425528      6.78e-09  Convergence criterion met
 Total energy in the final basis set =    -1973.6977425528
    9   -1973.6977446745      4.93e-09  Convergence criterion met
 Total energy in the final basis set =    -1973.6977446745
    8   -1973.6977502235      8.22e-09  Convergence criterion met
    9   -1973.6977568950      4.67e-09  Convergence criterion met
 Total energy in the final basis set =    -1973.6977568950
    9   -1973.6977567542      4.89e-09  Convergence criterion met
 Total energy in the final basis set =    -1973.6977567542
    8   -1973.6977548591      9.16e-09  Convergence criterion met
 Total energy in the final basis set =    -1973.6977548591
    9   -1973.6977526604      5.85e-09  Convergence criterion met
 Total energy in the final basis set =    -1973.6977526604
    9   -1973.6977534537      5.30e-09  Convergence criterion met
 Total energy in the final basis set =    -1973.6977534537
    9   -1973.6977535002      5.15e-09  Convergence criterion met
 Total energy in the final basis set =    -1973.6977535002

             Standard Nuclear Orientation (Angstroms)
    I     Atom           X                Y                Z
 ----------------------------------------------------------------
    1      C       0.0715707692     0.0202992310     0.0814727625
    2      C       0.0623825419     0.0331811167     1.4877494348
    3      H       1.0066291761     0.0343778468     2.0210357156
    4      C      -1.1289489817     0.0436997122     2.1763968712
    5      C      -1.1890911992     0.0151947622    -0.6434578902
    6      C      -2.3908425148     0.0210651751     0.0728516133
    7      H      -3.3308078258     0.0135781331    -0.4679432094
    8      C      -2.3787526540     0.0368231672     1.4454423416
    9      C      -1.4516082406     0.0596779274     3.5895701239
   10      C      -0.7327258015     0.0723679118     4.7617638615
   11      H       0.3494531446     0.0717462849     4.7671244937
   12      C      -2.8638553020     0.0617161472     3.6738419158
   13      C      -3.5876253565     0.0753957313     4.8644465361
   14      C      -3.4625151753     0.0479435089     2.3947228793
   15      C      -4.8355600527     0.0473637520     2.2977406215
   16      H      -5.3397871343     0.0367631120     1.3397112480
   17      C      -1.4404823111     0.0865574788     5.9810410776
   18      H      -0.8748058250     0.0966643275     6.9033426172
   19      C      -2.8181006448     0.0881956055     6.0493751736
   20      H      -3.3089855845     0.0993334988     7.0144215267
   21      C      -4.9961773451     0.0744562198     4.7362949738
   22      H      -5.6191131572     0.0844401825     5.6220097214
   23      C      -5.5857093684     0.0606754004     3.4884102914
   24      H      -6.6658931294     0.0600787216     3.4208439002
   25      B      -1.2263391896     0.0019892890    -2.1764663624
   26      C       0.1074882120     0.0243342648    -2.9310577281
   27      C       0.1080667455     0.0365676900    -4.3303379774
   28      H      -0.8360977448     0.0281851204    -4.8635442953
   29      C       1.2934489166     0.0588348473    -5.0213807775
   30      C       2.5590911784     0.0675120214    -4.3207476498
   31      C       2.5764322098     0.0506141671    -2.9462699576
   32      H       3.5176051512     0.0522672595    -2.4082402922
   33      C       1.3729390113     0.0299432399    -2.2192666019
   34      C       3.6114335768     0.0912555649    -5.3192973676
   35      C       4.9865634973     0.1095929254    -5.3006478088
   36      H       5.5443624399     0.1081498727    -4.3733022075
   37      C       2.9627880949     0.0952042242    -6.5761577126
   38      C       3.6194273657     0.1158218572    -7.8064913889
   39      C       1.5573750076     0.0757190184    -6.4401696926
   40      C       0.7777829632     0.0761768731    -7.5751700096
   41      H      -0.3035702088     0.0613219020    -7.5248500255
   42      C       5.6750584766     0.1307289613    -6.5312817711
   43      H       6.7568982058     0.1450916619    -6.5150790420
   44      C       5.0309106456     0.1340153559    -7.7505464564
   45      H       5.6094142252     0.1507454333    -8.6658740834
   46      C       2.7944401333     0.1159867571    -8.9552302661
   47      H       3.2413523606     0.1311879850    -9.9416147717
   48      C       1.4209745926     0.0964367335    -8.8275948193
   49      H       0.8124929694     0.0966590733    -9.7227096575
   50      B       1.4030257745     0.0083911331    -0.6844933652
   51      C      -2.5928912312    -0.0401608090    -2.9664991952
   52      C      -3.2360389774     1.1425961717    -3.3585687621
   53      C      -4.4234398699     1.0865991635    -4.0772744445
   54      H      -4.9060354110     2.0120591883    -4.3757642577
   55      C      -5.0062566944    -0.1261820501    -4.4255846048
   56      C      -4.3636884818    -1.2928061387    -4.0374582670
   57      H      -4.7981325566    -2.2511726992    -4.3033870265
   58      C      -3.1737851847    -1.2647772691    -3.3172057799
   59      C      -6.3026066290    -0.1673489158    -5.1822573148
   60      H      -6.5074735853    -1.1635343812    -5.5736689315
   61      H      -7.1439268236     0.1100772686    -4.5438230227
   62      H      -6.2983275002     0.5245290738    -6.0254379533
   63      C      -2.5072600591    -2.5542619701    -2.9262598931
   64      H      -3.0875246740    -3.4208974048    -3.2434432205
   65      H      -2.3736228697    -2.6242962019    -1.8448616347
   66      H      -1.5143254858    -2.6417364129    -3.3728518101
   67      C      -2.6323974641     2.4738285217    -3.0100021102
   68      H      -3.2563942557     3.3011293996    -3.3482046957
   69      H      -2.4958691606     2.5808503798    -1.9319944056
   70      H      -1.6471541193     2.5958763232    -3.4653115897
   71      C       2.7756149062    -0.0404991774     0.0825654253
   72      C       3.4313283361     1.1358970143     0.4570849696
   73      C       4.6423632892     1.0690041174     1.1394716685
   74      H       5.1404782083     1.9893224059     1.4267555727
   75      C       5.2258398691    -0.1480201737     1.4620919365
   76      C       4.5687641378    -1.3130173368     1.0814692804
   77      H       5.0103582080    -2.2749648826     1.3229346203
   78      C       3.3602944606    -1.2740665270     0.3996431062
   79      C       6.5315933744    -0.2173836846     2.1997094430
   80      H       6.9102539906     0.7755085864     2.4398435907
   81      H       6.4314080145    -0.7667018357     3.1374581712
   82      H       7.2959506155    -0.7269146418     1.6102636131
   83      C       2.8225788381     2.4680781347     0.1184103594
   84      H       3.4391579279     3.2964168556     0.4672796686
   85      H       2.6917580142     2.5838932841    -0.9598455011
   86      H       1.8328489659     2.5808534890     0.5666108262
   87      C       2.6748841297    -2.5505388210    -0.0032424284
   88      H       3.2383891497    -3.4293920433     0.3102133296
   89      H       2.5465947096    -2.6097356167    -1.0863710971
   90      H       1.6769023405    -2.6248127262     0.4345981080
 ----------------------------------------------------------------

    9   -1973.6977549489      4.89e-09  Convergence criterion met
 Total energy in the final basis set =    -1973.6977549489

         TDDFT/TDA Excitation Energies
 ---------------------------------------------------

 Excited state   1: excitation energy (eV) =    2.6813
 Total energy for state  1:                 -1973.59922055 au
    Multiplicity: Singlet
    Trans. Mom.: -0.0629 X   0.0000 Y   0.0939 Z
    Strength   :     0.0008393328
    D(174) --> V(  1) amplitude =  0.9660

 Excited state   2: excitation energy (eV) =    3.0869
 Total energy for state  2:                 -1973.58431325 au
    Multiplicity: Singlet
    Trans. Mom.: -0.1767 X   0.0008 Y   0.2897 Z
    Strength   :     0.0087052071
    D(172) --> V(  1) amplitude =  0.9505

 Excited state   3: excitation energy (eV) =    3.1749
 Total energy for state  3:                 -1973.58107835 au
    Multiplicity: Singlet
    Trans. Mom.:  1.7755 X   0.0102 Y  -3.1175 Z
    Strength   :     1.0011663488
    D(173) --> V(  1) amplitude =  0.9350

 ---------------------------------------------------

 Final energy is   -1973.59922055460
 **  OPTIMIZATION CONVERGED  **

                    Orbital Energies (a.u.)
 --------------------------------------------------------------

 Alpha MOs
 -- Occupied --
-10.465 -10.464 -10.464 -10.464 -10.464 -10.463 -10.462 -10.462
-10.462 -10.462 -10.462 -10.462 -10.460 -10.460 -10.459 -10.459
-10.459 -10.459 -10.459 -10.459 -10.458 -10.458 -10.451 -10.451
-10.449 -10.449 -10.446 -10.446 -10.446 -10.445 -10.445 -10.445
-10.444 -10.444 -10.433 -10.432 -10.431 -10.431 -10.428 -10.428
-10.428 -10.428 -10.428 -10.427 -10.423 -10.423 -10.423 -10.422
-10.416 -10.414  -6.940  -6.939  -1.013  -1.012  -0.958  -0.954
 -0.953  -0.951  -0.933  -0.932  -0.904  -0.895  -0.870  -0.866
 -0.865  -0.864  -0.855  -0.854  -0.847  -0.846  -0.815  -0.812
 -0.810  -0.796  -0.778  -0.778  -0.756  -0.754  -0.754  -0.754
 -0.731  -0.729  -0.728  -0.717  -0.687  -0.681  -0.676  -0.665
 -0.648  -0.641  -0.636  -0.636  -0.636  -0.634  -0.596  -0.592
 -0.589  -0.588  -0.582  -0.575  -0.573  -0.549  -0.544  -0.541
 -0.538  -0.537  -0.526  -0.526  -0.519  -0.507  -0.500  -0.497
 -0.493  -0.491  -0.491  -0.485  -0.481  -0.481  -0.479  -0.478
 -0.478  -0.477  -0.474  -0.466  -0.464  -0.463  -0.462  -0.461
 -0.460  -0.459  -0.453  -0.453  -0.448  -0.447  -0.444  -0.443
 -0.442  -0.437  -0.432  -0.426  -0.424  -0.419  -0.414  -0.410
 -0.409  -0.399  -0.398  -0.394  -0.394  -0.393  -0.389  -0.386
 -0.379  -0.377  -0.376  -0.376  -0.373  -0.363  -0.351  -0.346
 -0.344  -0.332  -0.320  -0.314  -0.295  -0.294  -0.274  -0.269
 -0.268  -0.262  -0.260  -0.259  -0.253  -0.247

          Ground-State Mulliken Net Atomic Charges

     Atom                 Charge (a.u.)
  ----------------------------------------
      1 C                    -0.154356
      2 C                    -0.391335
      3 H                     0.234651
      4 C                     0.106045
      5 C                    -0.152862
      6 C                    -0.382711
      7 H                     0.234179
      8 C                     0.081978
      9 C                     0.202791
     10 C                    -0.377933
     11 H                     0.222124
     12 C                    -0.079654
     13 C                     0.255977
     14 C                     0.199663
     15 C                    -0.367907
     16 H                     0.222088
     17 C                    -0.203280
     18 H                     0.226353
     19 C                    -0.336344
     20 H                     0.220539
     21 C                    -0.332168
     22 H                     0.220179
     23 C                    -0.206398
     24 H                     0.226684
     25 B                     0.689460
     26 C                    -0.151399
     27 C                    -0.382386
     28 H                     0.235843
     29 C                     0.081222
     30 C                     0.105962
     31 C                    -0.391284
     32 H                     0.235564
     33 C                    -0.154884
     34 C                     0.204533
     35 C                    -0.378705
     36 H                     0.222116
     37 C                    -0.080056
     38 C                     0.254031
     39 C                     0.200454
     40 C                    -0.369245
     41 H                     0.222292
     42 C                    -0.203403
     43 H                     0.226213
     44 C                    -0.335789
     45 H                     0.220510
     46 C                    -0.331361
     47 H                     0.220079
     48 C                    -0.206033
     49 H                     0.226702
     50 B                     0.691000
     51 C                    -0.226845
     52 C                     0.061718
     53 C                    -0.336740
     54 H                     0.196073
     55 C                     0.130089
     56 C                    -0.342232
     57 H                     0.195957
     58 C                     0.060376
     59 C                    -0.708614
     60 H                     0.225710
     61 H                     0.231932
     62 H                     0.227267
     63 C                    -0.758554
     64 H                     0.233644
     65 H                     0.243798
     66 H                     0.243495
     67 C                    -0.756493
     68 H                     0.233029
     69 H                     0.243218
     70 H                     0.243194
     71 C                    -0.222290
     72 C                     0.062500
     73 C                    -0.342973
     74 H                     0.195610
     75 C                     0.130333
     76 C                    -0.339512
     77 H                     0.196174
     78 C                     0.061688
     79 C                    -0.709676
     80 H                     0.225527
     81 H                     0.229469
     82 H                     0.229709
     83 C                    -0.758104
     84 H                     0.233239
     85 H                     0.243333
     86 H                     0.243270
     87 C                    -0.760149
     88 H                     0.233566
     89 H                     0.244328
     90 H                     0.244200
  ----------------------------------------
  Sum of atomic charges =    -0.000000

                    Cartesian Multipole Moments
 -----------------------------------------------------------------
    Charge (ESU x 10^10)
                -0.0000
    Dipole Moment (Debye)
         X      -0.1222      Y       0.0260      Z      -0.0474
       Tot       0.1336
    Quadrupole Moments (Debye-Ang)
        XX    -261.1367     XY      -0.1804     YY    -303.2404
        XZ      -6.3054     YZ      -0.3081     ZZ    -253.1244

 Total job time:  35653.38s(wall), 252008.96s(cpu)
        *  Thank you very much for using Q-Chem.  Have a nice day.  *
