 Q-Chem 5.1, Q-Chem, Inc., Pleasanton, CA (2018)
 Q-Chem 5.1.1 for Intel X86 EM64T Linux

User input:
--------------------------------------------------------------
$rem
threads 8
jobtype	opt
method PBEh-3c
basis def2-mSVP
mem_static	1024
mem_total	14000
sym_ignore	true
cis_n_roots             3
cis_singlets            true
cis_triplets		false
rpa                     false
cis_state_deriv         2
state_follow		true
$end

$molecule
read s2opt.mol
$end

--------------------------------------------------------------

   15   -1973.6945433813      7.07e-09  Convergence criterion met
 Total energy in the final basis set =    -1973.6945433813
   12   -1973.6973760071      9.98e-09  Convergence criterion met
 Total energy in the final basis set =    -1973.6973760071
   12   -1973.6976391593      5.59e-09  Convergence criterion met
 Total energy in the final basis set =    -1973.6976391593
   10   -1973.6977090541      9.50e-09  Convergence criterion met
 Total energy in the final basis set =    -1973.6977090541
   10   -1973.6977551348      6.45e-09  Convergence criterion met
 Total energy in the final basis set =    -1973.6977551348
    9   -1973.6977746448      8.12e-09  Convergence criterion met
 Total energy in the final basis set =    -1973.6977746448

             Standard Nuclear Orientation (Angstroms)
    I     Atom           X                Y                Z
 ----------------------------------------------------------------
    1      C       0.0762884447    -0.2059826521     0.0789083003
    2      C       0.0649637546    -0.1671972731     1.4847199009
    3      H       1.0078645044    -0.1916033045     2.0198509251
    4      C      -1.1264915258    -0.1032460620     2.1700174576
    5      C      -2.3737789519    -0.0724096555     1.4356017662
    6      C      -2.3838884761    -0.1102985556     0.0630047290
    7      H      -3.3224150732    -0.0907373122    -0.4802065194
    8      C      -1.1820047572    -0.1780034938    -0.6497601028
    9      C      -1.4518051723    -0.0597251113     3.5819969522
   10      C      -0.7359195631    -0.0643968390     4.7560730542
   11      H       0.3454051310    -0.1067680454     4.7644956555
   12      C      -2.8631166231    -0.0036171302     3.6621232749
   13      C      -3.5889110600     0.0476058164     4.8504982958
   14      C      -3.4586618653    -0.0077748791     2.3815003962
   15      C      -4.8305105120     0.0437363270     2.2805425156
   16      H      -5.3321838650     0.0434324571     1.3211051516
   17      C      -1.4457328592    -0.0134911720     5.9731384802
   18      H      -0.8824810740    -0.0180004421     6.8969709232
   19      C      -2.8224705533     0.0412155918     6.0374958842
   20      H      -3.3150875183     0.0786271209     7.0009958184
   21      C      -4.9960950972     0.0986672535     4.7182612161
   22      H      -5.6205420559     0.1395005604     5.6020204764
   23      C      -5.5825843062     0.0964654500     3.4687648830
   24      H      -6.6618371043     0.1364838293     3.3982727740
   25      B      -1.2154163962    -0.2309774373    -2.1819840395
   26      C       0.1202066098    -0.2918339015    -2.9315934948
   27      C       0.1245190549    -0.3252940211    -4.3304572980
   28      H      -0.8179460182    -0.3144347275    -4.8666121578
   29      C       1.3114930193    -0.3702073421    -5.0176535799
   30      C       2.5750227137    -0.3894191105    -4.3133561323
   31      C       2.5884677043    -0.3634722814    -2.9389681450
   32      H       3.5275299578    -0.3820085574    -2.3975444409
   33      C       1.3832362875    -0.3136994890    -2.2161769509
   34      C       3.6296799561    -0.4366291934    -5.3086651091
   35      C       5.0044129519    -0.4722073126    -5.2859477481
   36      H       5.5596484197    -0.4700887111    -4.3570696332
   37      C       2.9844340712    -0.4432888906    -6.5672625424
   38      C       3.6440297282    -0.4827604869    -7.7955878405
   39      C       1.5790441592    -0.4041875664    -6.4354076748
   40      C       0.8025451168    -0.4044581291    -7.5725149354
   41      H      -0.2786524020    -0.3751760805    -7.5251854678
   42      C       5.6958605099    -0.5123797567    -6.5144504065
   43      H       6.7773925542    -0.5400109499    -6.4951072250
   44      C       5.0550168917    -0.5180350123    -7.7354653250
   45      H       5.6357913169    -0.5498156868    -8.6489469224
   46      C       1.4487255185    -0.4440667518    -8.8228142489
   47      H       0.8427937898    -0.4442630633    -9.7196343666
   48      C       2.8221635132    -0.4823658545    -8.9465802087
   49      H       3.2712513192    -0.5118114926    -9.9316591385
   50      B       1.4085415099    -0.2862012313    -0.6815975786
   51      C      -2.5793651078    -0.2326551011    -2.9775083301
   52      C      -3.2100727301    -1.4417512359    -3.3061594263
   53      C      -4.3943502553    -1.4363540848    -4.0307892806
   54      H      -4.8684459058    -2.3816290198    -4.2767061729
   55      C      -4.9868916416    -0.2508433858    -4.4493368723
   56      C      -4.3591403473     0.9417496532    -4.1208642708
   57      H      -4.8031299387     1.8797637202    -4.4381403187
   58      C      -3.1713477918     0.9644659520    -3.3958924627
   59      C      -6.2649070122    -0.2730140271    -5.2373834719
   60      H      -6.6295579903     0.7334022791    -5.4401927442
   61      H      -7.0533424516    -0.8076006650    -4.7049646359
   62      H      -6.1319524482    -0.7734886692    -6.1984072392
   63      C      -2.5182319491     2.2780296075    -3.0700135655
   64      H      -3.0999485189     3.1217712633    -3.4413596302
   65      H      -1.5206524646     2.3464758604    -3.5094840718
   66      H      -2.3966068722     2.4084205195    -1.9927882463
   67      C      -2.5978308827    -2.7475047078    -2.8821371485
   68      H      -3.2159253231    -3.5967030367    -3.1739274741
   69      H      -2.4623309456    -2.7933396494    -1.7997463520
   70      H      -1.6114388182    -2.8887791625    -3.3293110562
   71      C       2.7757106176    -0.3523812545     0.0938196029
   72      C       3.3274961531    -1.5873079672     0.4481781637
   73      C       4.5331662356    -1.6359505150     1.1405585508
   74      H       4.9495466341    -2.6010369431     1.4107262010
   75      C       5.2141292166    -0.4795564095     1.4931656884
   76      C       4.6618389054     0.7440613328     1.1304065440
   77      H       5.1819274141     1.6600378471     1.3929618848
   78      C       3.4596853131     0.8202040543     0.4396939918
   79      C       6.5058259416    -0.5402476358     2.2558715739
   80      H       6.8712172045    -1.5629902032     2.3441516295
   81      H       7.2861120213     0.0481297647     1.7710143553
   82      H       6.3889567501    -0.1467867710     3.2674604003
   83      C       2.8845441167     2.1553739016     0.0570329910
   84      H       3.5238756785     2.9787112912     0.3753835716
   85      H       2.7525913428     2.2368856833    -1.0241930107
   86      H       1.8998645659     2.3086631036     0.5042083153
   87      C       2.6156599813    -2.8597187040     0.0787153995
   88      H       3.1600382569    -3.7413235229     0.4173135855
   89      H       2.4870008203    -2.9468344272    -1.0024464562
   90      H       1.6159806170    -2.9011173536     0.5170348133
 ----------------------------------------------------------------

    9   -1973.6977765279      6.09e-09  Convergence criterion met
 Total energy in the final basis set =    -1973.6977765279

         TDDFT/TDA Excitation Energies
 ---------------------------------------------------

 Excited state   1: excitation energy (eV) =    2.6812
 Total energy for state  1:                 -1973.59924578 au
    Multiplicity: Singlet
    Trans. Mom.: -0.0667 X   0.0070 Y   0.0983 Z
    Strength   :     0.0009299381
    D(174) --> V(  1) amplitude =  0.9659

 Excited state   2: excitation energy (eV) =    3.0874
 Total energy for state  2:                 -1973.58431695 au
    Multiplicity: Singlet
    Trans. Mom.: -0.1324 X   0.0111 Y   0.2041 Z
    Strength   :     0.0044869983
    D(172) --> V(  1) amplitude =  0.9463

 Excited state   3: excitation energy (eV) =    3.1743
 Total energy for state  3:                 -1973.58112232 au
    Multiplicity: Singlet
    Trans. Mom.:  1.7925 X  -0.1308 Y  -3.1263 Z
    Strength   :     1.0112925016
    D(173) --> V(  1) amplitude =  0.9401

 ---------------------------------------------------

 Final energy is   -1973.59924578043
 **  OPTIMIZATION CONVERGED  **

                    Orbital Energies (a.u.)
 --------------------------------------------------------------

 Alpha MOs
 -- Occupied --
-10.465 -10.464 -10.464 -10.464 -10.464 -10.463 -10.462 -10.462
-10.462 -10.462 -10.462 -10.462 -10.460 -10.460 -10.460 -10.459
-10.459 -10.459 -10.459 -10.459 -10.458 -10.458 -10.451 -10.451
-10.449 -10.449 -10.446 -10.446 -10.446 -10.445 -10.445 -10.444
-10.444 -10.444 -10.433 -10.432 -10.431 -10.431 -10.428 -10.428
-10.428 -10.428 -10.428 -10.427 -10.423 -10.423 -10.423 -10.422
-10.416 -10.414  -6.940  -6.939  -1.013  -1.012  -0.958  -0.954
 -0.953  -0.951  -0.933  -0.932  -0.904  -0.895  -0.870  -0.866
 -0.865  -0.864  -0.855  -0.854  -0.847  -0.846  -0.815  -0.812
 -0.810  -0.796  -0.778  -0.778  -0.757  -0.754  -0.754  -0.754
 -0.731  -0.729  -0.728  -0.717  -0.687  -0.681  -0.676  -0.665
 -0.648  -0.641  -0.636  -0.636  -0.636  -0.634  -0.596  -0.592
 -0.589  -0.588  -0.582  -0.575  -0.573  -0.549  -0.544  -0.541
 -0.538  -0.537  -0.526  -0.526  -0.519  -0.507  -0.500  -0.497
 -0.493  -0.491  -0.491  -0.485  -0.481  -0.481  -0.479  -0.478
 -0.478  -0.477  -0.474  -0.466  -0.464  -0.463  -0.462  -0.461
 -0.460  -0.459  -0.453  -0.453  -0.448  -0.447  -0.444  -0.443
 -0.442  -0.437  -0.432  -0.426  -0.424  -0.419  -0.414  -0.410
 -0.409  -0.399  -0.398  -0.394  -0.394  -0.393  -0.389  -0.386
 -0.379  -0.377  -0.376  -0.376  -0.373  -0.363  -0.351  -0.346
 -0.344  -0.332  -0.320  -0.314  -0.295  -0.294  -0.274  -0.269
 -0.268  -0.262  -0.260  -0.259  -0.253  -0.247

          Ground-State Mulliken Net Atomic Charges

     Atom                 Charge (a.u.)
  ----------------------------------------
      1 C                    -0.154614
      2 C                    -0.391092
      3 H                     0.234852
      4 C                     0.106487
      5 C                     0.081485
      6 C                    -0.382938
      7 H                     0.234220
      8 C                    -0.152710
      9 C                     0.202715
     10 C                    -0.377907
     11 H                     0.222065
     12 C                    -0.079621
     13 C                     0.256024
     14 C                     0.199545
     15 C                    -0.367832
     16 H                     0.222231
     17 C                    -0.203311
     18 H                     0.226322
     19 C                    -0.336342
     20 H                     0.220546
     21 C                    -0.332210
     22 H                     0.220173
     23 C                    -0.206392
     24 H                     0.226733
     25 B                     0.689409
     26 C                    -0.151408
     27 C                    -0.382084
     28 H                     0.235815
     29 C                     0.081356
     30 C                     0.105941
     31 C                    -0.391516
     32 H                     0.235632
     33 C                    -0.154886
     34 C                     0.204489
     35 C                    -0.378689
     36 H                     0.222195
     37 C                    -0.080020
     38 C                     0.253987
     39 C                     0.200393
     40 C                    -0.369075
     41 H                     0.222145
     42 C                    -0.203400
     43 H                     0.226239
     44 C                    -0.335806
     45 H                     0.220513
     46 C                    -0.206044
     47 H                     0.226657
     48 C                    -0.331336
     49 H                     0.220095
     50 B                     0.690925
     51 C                    -0.226590
     52 C                     0.060634
     53 C                    -0.337308
     54 H                     0.196401
     55 C                     0.130379
     56 C                    -0.341801
     57 H                     0.195958
     58 C                     0.061430
     59 C                    -0.709759
     60 H                     0.225833
     61 H                     0.229417
     62 H                     0.230156
     63 C                    -0.757187
     64 H                     0.233270
     65 H                     0.243296
     66 H                     0.243097
     67 C                    -0.757789
     68 H                     0.233343
     69 H                     0.243852
     70 H                     0.243423
     71 C                    -0.222212
     72 C                     0.060849
     73 C                    -0.344434
     74 H                     0.195773
     75 C                     0.130391
     76 C                    -0.338194
     77 H                     0.195878
     78 C                     0.062836
     79 C                    -0.709133
     80 H                     0.225627
     81 H                     0.228067
     82 H                     0.230761
     83 C                    -0.758046
     84 H                     0.233098
     85 H                     0.243492
     86 H                     0.243517
     87 C                    -0.759914
     88 H                     0.233609
     89 H                     0.244261
     90 H                     0.243760
  ----------------------------------------
  Sum of atomic charges =    -0.000000

                    Cartesian Multipole Moments
 -----------------------------------------------------------------
    Charge (ESU x 10^10)
                -0.0000
    Dipole Moment (Debye)
         X      -0.1120      Y      -0.0003      Z      -0.0569
       Tot       0.1257
    Quadrupole Moments (Debye-Ang)
        XX    -261.4856     XY      -0.9409     YY    -303.2148
        XZ      -6.1007     YZ       1.5432     ZZ    -252.7652

 Total job time:  13450.23s(wall), 97312.51s(cpu)
        *  Thank you very much for using Q-Chem.  Have a nice day.  *
