 Q-Chem 5.1, Q-Chem, Inc., Pleasanton, CA (2018)
 Q-Chem 5.1.1 for Intel X86 EM64T Linux

User input:
--------------------------------------------------------------
$rem
threads 8
jobtype	opt
method PBEh-3c
basis def2-mSVP
mem_static	1024
mem_total	14000
sym_ignore	true
cis_n_roots             2
cis_singlets            false
cis_triplets		true
rpa                     false
cis_state_deriv         1
$end

$molecule
read t1opt.mol
$end

--------------------------------------------------------------

   15   -1973.6967229524      8.12e-09  Convergence criterion met
 Total energy in the final basis set =    -1973.6967229524
   12   -1973.6975216501      5.44e-09  Convergence criterion met
 Total energy in the final basis set =    -1973.6975216501
   11   -1973.6976202215      7.80e-09  Convergence criterion met
 Total energy in the final basis set =    -1973.6976202215
   10   -1973.6976931390      6.54e-09  Convergence criterion met
 Total energy in the final basis set =    -1973.6976931390
   10   -1973.6977335562      5.81e-09  Convergence criterion met
 Total energy in the final basis set =    -1973.6977335562
    9   -1973.6977442310      5.95e-09  Convergence criterion met
 Total energy in the final basis set =    -1973.6977442310
    9   -1973.6977314220      5.88e-09  Convergence criterion met
 Total energy in the final basis set =    -1973.6977314220
    8   -1973.6977210547      9.24e-09  Convergence criterion met
    8   -1973.6977286790      6.51e-09  Convergence criterion met
 Total energy in the final basis set =    -1973.6977286790
    8   -1973.6977341022      9.42e-09  Convergence criterion met
 Total energy in the final basis set =    -1973.6977341022
    9   -1973.6977390566      4.62e-09  Convergence criterion met
 Total energy in the final basis set =    -1973.6977390566
    9   -1973.6977399614      4.84e-09  Convergence criterion met
 Total energy in the final basis set =    -1973.6977399614
    8   -1973.6977361766      7.42e-09  Convergence criterion met
 Total energy in the final basis set =    -1973.6977361766
    9   -1973.6977273327      5.18e-09  Convergence criterion met
 Total energy in the final basis set =    -1973.6977273327

             Standard Nuclear Orientation (Angstroms)
    I     Atom           X                Y                Z
 ----------------------------------------------------------------
    1      C       0.0072550803    -0.2415978535     0.0607060379
    2      C       0.0087893222    -0.1962725648     1.4650442388
    3      H       0.9553349287    -0.2323385411     1.9930829196
    4      C      -1.1745006392    -0.1113374370     2.1565000356
    5      C      -1.4811822589    -0.0585184582     3.5738708959
    6      C      -0.7460623043    -0.0703025497     4.7348505235
    7      H       0.3346912090    -0.1278613211     4.7248052540
    8      C      -1.4345528177    -0.0062727440     5.9647292182
    9      H      -0.8569635740    -0.0160305389     6.8797322526
   10      C      -2.8077403686     0.0671715242     6.0469282230
   11      H      -3.2868421585     0.1138297801     7.0169494203
   12      C      -2.8877665395     0.0174061335     3.6708488877
   13      C      -3.5916607317     0.0806751682     4.8685194010
   14      C      -3.5010314198     0.0175783224     2.3973885272
   15      C      -4.8735128047     0.0859534641     2.3200477663
   16      H      -5.3916061645     0.0898614043     1.3694134033
   17      C      -5.6073947012     0.1510189418     3.5206266090
   18      H      -6.6869823101     0.2040870189     3.4657144252
   19      C      -5.0024910630     0.1491389261     4.7593217390
   20      H      -5.6119057437     0.2001430179     5.6530282068
   21      C      -2.4331690344    -0.0651018190     1.4297763444
   22      C      -2.4518060532    -0.1063140433     0.0537142204
   23      H      -3.3932024013    -0.0715221836    -0.4843353866
   24      C      -1.2546498635    -0.1946278147    -0.6654144427
   25      B       1.3347644006    -0.3481670214    -0.6995713433
   26      C       1.3133445571    -0.3810297888    -2.2324664793
   27      C       2.5241384242    -0.4546455315    -2.9398833619
   28      H       3.4578562940    -0.4873829056    -2.3897848600
   29      C       2.5223282404    -0.4853676162    -4.3117020631
   30      C       3.5924526063    -0.5560777926    -5.2891290890
   31      C       4.9645143795    -0.6173723899    -5.2365798666
   32      H       5.4995422487    -0.6213718076    -4.2957948047
   33      C       5.6807780479    -0.6760958595    -6.4506248639
   34      H       6.7610753962    -0.7238058301    -6.4102530409
   35      C       5.0616755311    -0.6756015937    -7.6812074047
   36      H       5.6581477079    -0.7223927885    -8.5838804812
   37      C       2.9690050578    -0.5568538783    -6.5559538786
   38      C       3.6506111342    -0.6146659597    -7.7679244974
   39      C       1.5616378225    -0.4922739642    -6.4489777601
   40      C       0.8081910798    -0.4850469805    -7.6010901806
   41      H      -0.2730372116    -0.4364516227    -7.5748630206
   42      C       1.4772695480    -0.5427320209    -8.8399200998
   43      H       0.8878991160    -0.5369896814    -9.7476915908
   44      C       2.8504844226    -0.6060206845    -8.9369197416
   45      H       3.3181350352    -0.6489566565    -9.9128454103
   46      C       1.2630001298    -0.4467229766    -5.0363541093
   47      C       0.0677062488    -0.3778815618    -4.3587027331
   48      H      -0.8703818951    -0.3516541589    -4.9030839881
   49      C       0.0532945613    -0.3385297133    -2.9591339294
   50      B      -1.2820337262    -0.2468715580    -2.2029023009
   51      C      -2.6449023643    -0.2080674414    -2.9955418468
   52      C      -3.1971175008     1.0082167111    -3.4110824279
   53      C      -4.3886114460     1.0236763836    -4.1298334950
   54      H      -4.8028168245     1.9754715773    -4.4460532929
   55      C      -5.0574695237    -0.1482126949    -4.4523956874
   56      C      -4.5013692301    -1.3528375641    -4.0380154667
   57      H      -5.0066175378    -2.2821936674    -4.2823129580
   58      C      -3.3140500458    -1.3969905984    -3.3199267984
   59      C      -6.3485063233    -0.1277041097    -5.2187527422
   60      H      -6.6062009542     0.8793397127    -5.5450344246
   61      H      -7.1774323223    -0.4971878796    -4.6120687100
   62      H      -6.2965164066    -0.7587788673    -6.1073998829
   63      C      -2.4974580724     2.2991562835    -3.0908022349
   64      H      -3.0601277882     3.1624613746    -3.4457457479
   65      H      -1.5075322673     2.3402691417    -3.5506329460
   66      H      -2.3518640079     2.4201707297    -2.0154119744
   67      C      -2.7395337710    -2.7209102161    -2.8987711720
   68      H      -3.3801248653    -3.5514780354    -3.1951804380
   69      H      -2.6096844569    -2.7748106069    -1.8159001755
   70      H      -1.7564853466    -2.8884477268    -3.3442151797
   71      C       2.7017842980    -0.4354496359     0.0713742314
   72      C       3.2319732748    -1.6799722074     0.4237918657
   73      C       4.4457845763    -1.7491534780     1.0994720593
   74      H       4.8472182887    -2.7210337719     1.3677484763
   75      C       5.1542081860    -0.6045027279     1.4366298519
   76      C       4.6212808854     0.6282489969     1.0760057101
   77      H       5.1635384806     1.5346890085     1.3262504180
   78      C       3.4113798183     0.7255108124     0.4017089744
   79      C       6.4532136748    -0.6874144340     2.1844993032
   80      H       6.8274429702    -1.7099181686     2.2259256968
   81      H       7.2241490859    -0.0716740995     1.7194682994
   82      H       6.3414532899    -0.3394556356     3.2132933712
   83      C       2.8573483631     2.0692817021     0.0174581548
   84      H       3.5115725433     2.8824012377     0.3312700536
   85      H       2.7243085501     2.1509045511    -1.0637409352
   86      H       1.8773366752     2.2409616020     0.4681327021
   87      C       2.4911272837    -2.9390699129     0.0654400532
   88      H       3.0140574847    -3.8295495539     0.4140105417
   89      H       2.3642465953    -3.0348807903    -1.0153504202
   90      H       1.4900496581    -2.9536754097     0.5021292461
 ----------------------------------------------------------------

    8   -1973.6977276556      9.56e-09  Convergence criterion met
 Total energy in the final basis set =    -1973.6977276556

         TDDFT/TDA Excitation Energies
 ---------------------------------------------------

 Excited state   1: excitation energy (eV) =    1.9843
 Total energy for state  1:                 -1973.62480577 au
    Multiplicity: Triplet
    Trans. Mom.:  0.0000 X   0.0000 Y   0.0000 Z
    Strength   :     0.0000000000
    D(167) --> V(  2) amplitude =  0.2584
    D(174) --> V(  1) amplitude =  0.9233

 Excited state   2: excitation energy (eV) =    2.3740
 Total energy for state  2:                 -1973.61048640 au
    Multiplicity: Triplet
    Trans. Mom.:  0.0000 X   0.0000 Y   0.0000 Z
    Strength   :     0.0000000000
    D(171) --> V(  2) amplitude =  0.4846
    D(173) --> V(  1) amplitude =  0.8033

 ---------------------------------------------------

 Final energy is   -1973.62480577363
 **  OPTIMIZATION CONVERGED  **

                    Orbital Energies (a.u.)
 --------------------------------------------------------------

 Alpha MOs
 -- Occupied --
-10.465 -10.464 -10.464 -10.464 -10.464 -10.464 -10.462 -10.462
-10.462 -10.462 -10.462 -10.462 -10.461 -10.461 -10.460 -10.460
-10.459 -10.459 -10.459 -10.459 -10.459 -10.459 -10.450 -10.450
-10.450 -10.450 -10.446 -10.446 -10.445 -10.445 -10.445 -10.444
-10.444 -10.444 -10.433 -10.432 -10.432 -10.431 -10.428 -10.428
-10.428 -10.428 -10.428 -10.428 -10.423 -10.423 -10.423 -10.422
-10.416 -10.414  -6.941  -6.938  -1.012  -1.012  -0.957  -0.954
 -0.953  -0.951  -0.933  -0.932  -0.903  -0.894  -0.870  -0.866
 -0.865  -0.865  -0.855  -0.854  -0.847  -0.846  -0.815  -0.812
 -0.811  -0.795  -0.778  -0.778  -0.756  -0.754  -0.754  -0.754
 -0.731  -0.729  -0.728  -0.717  -0.687  -0.681  -0.676  -0.665
 -0.647  -0.640  -0.636  -0.636  -0.636  -0.634  -0.596  -0.592
 -0.588  -0.588  -0.582  -0.575  -0.573  -0.549  -0.544  -0.541
 -0.538  -0.537  -0.526  -0.526  -0.519  -0.507  -0.500  -0.498
 -0.493  -0.492  -0.491  -0.485  -0.481  -0.481  -0.479  -0.478
 -0.478  -0.477  -0.474  -0.466  -0.464  -0.463  -0.462  -0.461
 -0.461  -0.459  -0.453  -0.453  -0.448  -0.447  -0.444  -0.443
 -0.442  -0.437  -0.432  -0.426  -0.423  -0.418  -0.414  -0.410
 -0.409  -0.399  -0.398  -0.394  -0.394  -0.393  -0.389  -0.385
 -0.379  -0.377  -0.376  -0.376  -0.373  -0.363  -0.351  -0.346
 -0.345  -0.331  -0.320  -0.314  -0.295  -0.294  -0.274  -0.269
 -0.269  -0.262  -0.260  -0.259  -0.253  -0.246

          Ground-State Mulliken Net Atomic Charges

     Atom                 Charge (a.u.)
  ----------------------------------------
      1 C                    -0.155209
      2 C                    -0.386972
      3 H                     0.235338
      4 C                     0.094347
      5 C                     0.204998
      6 C                    -0.377195
      7 H                     0.222074
      8 C                    -0.204120
      9 H                     0.226518
     10 C                    -0.334248
     11 H                     0.220527
     12 C                    -0.071205
     13 C                     0.250960
     14 C                     0.196667
     15 C                    -0.370046
     16 H                     0.222004
     17 C                    -0.205378
     18 H                     0.226662
     19 C                    -0.332340
     20 H                     0.220271
     21 C                     0.086870
     22 C                    -0.383598
     23 H                     0.233792
     24 C                    -0.153692
     25 B                     0.689880
     26 C                    -0.155427
     27 C                    -0.385847
     28 H                     0.237150
     29 C                     0.093634
     30 C                     0.206196
     31 C                    -0.377782
     32 H                     0.222445
     33 C                    -0.204015
     34 H                     0.226405
     35 C                    -0.334199
     36 H                     0.220446
     37 C                    -0.072333
     38 C                     0.249603
     39 C                     0.198048
     40 C                    -0.370625
     41 H                     0.221982
     42 C                    -0.205448
     43 H                     0.226677
     44 C                    -0.331497
     45 H                     0.220198
     46 C                     0.086481
     47 C                    -0.383796
     48 H                     0.234941
     49 C                    -0.153114
     50 B                     0.693104
     51 C                    -0.223607
     52 C                     0.060685
     53 C                    -0.342879
     54 H                     0.195920
     55 C                     0.130716
     56 C                    -0.337715
     57 H                     0.196230
     58 C                     0.060205
     59 C                    -0.709668
     60 H                     0.225792
     61 H                     0.230759
     62 H                     0.228723
     63 C                    -0.757913
     64 H                     0.233471
     65 H                     0.243363
     66 H                     0.243507
     67 C                    -0.757679
     68 H                     0.233399
     69 H                     0.243646
     70 H                     0.243277
     71 C                    -0.226256
     72 C                     0.063508
     73 C                    -0.345162
     74 H                     0.195737
     75 C                     0.130533
     76 C                    -0.339207
     77 H                     0.195786
     78 C                     0.064772
     79 C                    -0.708823
     80 H                     0.225594
     81 H                     0.227452
     82 H                     0.231277
     83 C                    -0.758064
     84 H                     0.233165
     85 H                     0.243723
     86 H                     0.243589
     87 C                    -0.760224
     88 H                     0.233671
     89 H                     0.244397
     90 H                     0.244176
  ----------------------------------------
  Sum of atomic charges =    -0.000000

                    Cartesian Multipole Moments
 -----------------------------------------------------------------
    Charge (ESU x 10^10)
                -0.0000
    Dipole Moment (Debye)
         X      -0.0552      Y      -0.0106      Z      -0.0145
       Tot       0.0581
    Quadrupole Moments (Debye-Ang)
        XX    -261.2195     XY      -1.6378     YY    -303.1673
        XZ      -6.3111     YZ       1.7695     ZZ    -253.1575

 Total job time:  39387.25s(wall), 295177.59s(cpu)
        *  Thank you very much for using Q-Chem.  Have a nice day.  *
