 Q-Chem 5.1, Q-Chem, Inc., Pleasanton, CA (2018)
 Q-Chem 5.1.1 for Intel X86 EM64T Linux

User input:
--------------------------------------------------------------
$rem
threads 8
jobtype	sp
method PBEh-3c
basis def2-mSVP
mem_static	1024
mem_total	10000
sym_ignore	true
cis_n_roots             6
cis_singlets            true
cis_triplets		true
rpa                     false
calc_soc 		true
cis_moments             true
cis_relaxed_density	true
$end

$molecule
read t1opt.mol
$end

--------------------------------------------------------------

             Standard Nuclear Orientation (Angstroms)
    I     Atom           X                Y                Z
 ----------------------------------------------------------------
    1      C       0.0000000000     0.0000000000     0.0000000000
    2      C       0.0000000000     0.0000000000     1.4042360000
    3      H       0.9460150642     0.0000000000     1.9339195413
    4      C      -1.1853966296     0.0007176006     2.0953715572
    5      C      -1.4895099247    -0.0013577683     3.5141877844
    6      C      -0.7519850166    -0.0047429234     4.6739796278
    7      H       0.3302313540    -0.0057790951     4.6615712180
    8      C      -1.4389191232    -0.0070151854     5.9062555902
    9      H      -0.8590952884    -0.0102522298     6.8198982496
   10      C      -2.8137664897    -0.0047978712     5.9923471931
   11      H      -3.2922769684    -0.0064253886     6.9638472050
   12      C      -2.8978385177     0.0015424888     3.6148573844
   13      C      -3.6004609615     0.0000662509     4.8161569217
   14      C      -3.5154232744     0.0068329190     2.3440864401
   15      C      -4.8902813532     0.0104831233     2.2744564915
   16      H      -5.4130672535     0.0143394343     1.3264137338
   17      C      -5.6224157402     0.0088919622     3.4784785664
   18      H      -6.7035332452     0.0115147198     3.4273077236
   19      C      -5.0134427497     0.0041670992     4.7147084709
   20      H      -5.6201859437     0.0032579618     5.6118334229
   21      C      -2.4463595831     0.0065975002     1.3725577898
   22      C      -2.4642233066     0.0099704981    -0.0030680921
   23      H      -3.4074709996     0.0168060775    -0.5390590444
   24      C      -1.2630878083     0.0020202836    -0.7226229178
   25      B       1.3343717725    -0.0002667077    -0.7554854475
   26      C       1.3209962962    -0.0264237936    -2.2887160099
   27      C       2.5342591913    -0.0409987745    -2.9972373026
   28      H       3.4677102197    -0.0387726632    -2.4452052358
   29      C       2.5342844897    -0.0539699740    -4.3703110354
   30      C       3.6033536379    -0.0609738626    -5.3515481032
   31      C       4.9766528137    -0.0590008820    -5.3019484308
   32      H       5.5132202769    -0.0535289908    -4.3619973820
   33      C       5.6912361437    -0.0630115958    -6.5185318524
   34      H       6.7726793319    -0.0609015518    -6.4809518044
   35      C       5.0694424917    -0.0687537661    -7.7478142520
   36      H       5.6652935720    -0.0711423807    -8.6520338238
   37      C       2.9774703428    -0.0672689090    -6.6172014753
   38      C       3.6564772614    -0.0704873076    -7.8308012523
   39      C       1.5685405984    -0.0659488910    -6.5044588244
   40      C       0.8093580357    -0.0701574115    -7.6524943068
   41      H      -0.2728246339    -0.0700570895    -7.6205176193
   42      C       1.4757462974    -0.0736691298    -8.8935096260
   43      H       0.8836959119    -0.0761352687    -9.7994958734
   44      C       2.8504475449    -0.0736445574    -8.9958584007
   45      H       3.3146667046    -0.0758003469    -9.9742214846
   46      C       1.2718253286    -0.0557475268    -5.0919099995
   47      C       0.0743352445    -0.0438410166    -4.4125958294
   48      H      -0.8651570621    -0.0452608147    -4.9550775599
   49      C       0.0574222111    -0.0287664475    -3.0134482481
   50      B      -1.2838212186    -0.0089604557    -2.2597758794
   51      C       2.6898680355     0.0382775337     0.0394126166
   52      C       3.2680713765     1.2633859132     0.3842690335
   53      C       4.4639539645     1.2891086026     1.0941070226
   54      H       4.9031429271     2.2462795519     1.3560400127
   55      C       5.1062993564     0.1194872074     1.4750823664
   56      C       4.5196904657    -1.0939149230     1.1326162423
   57      H       5.0044482362    -2.0195982259     1.4265885566
   58      C       3.3268265579    -1.1478362252     0.4239807137
   59      C       6.4075507596     0.1564202369     2.2227314649
   60      H       6.6373905514     1.1604794103     2.5781426754
   61      H       6.3914577018    -0.5055921947     3.0894561925
   62      H       7.2377946337    -0.1631652072     1.5898461500
   63      C       2.7085902603    -2.4716097110     0.0694000530
   64      H       3.3051882473    -3.3080749873     0.4327836601
   65      H       2.6027287065    -2.5862198436    -1.0116463650
   66      H       1.7074018129    -2.5704270301     0.4950875957
   67      C       2.5916765740     2.5483850953    -0.0079856725
   68      H       3.1610376045     3.4202052545     0.3139894422
   69      H       2.4640944353     2.6205046740    -1.0903850556
   70      H       1.5948787222     2.6264688387     0.4321084057
   71      C      -2.6557036312     0.0002323477    -3.0376242459
   72      C      -3.2993750384    -1.1970040166    -3.3681925216
   73      C      -4.5209171660    -1.1710925666    -4.0342735152
   74      H      -5.0078422491    -2.1086444626    -4.2820132353
   75      C      -5.1305658353     0.0241537610    -4.3870588800
   76      C      -4.4859986545     1.2095355981    -4.0531672962
   77      H      -4.9468393172     2.1564599413    -4.3170232776
   78      C      -3.2669832378     1.2124631869    -3.3888482805
   79      C      -6.4434363943     0.0487503711    -5.1152519513
   80      H      -6.8604247025    -0.9516937204    -5.2258687842
   81      H      -7.1813054606     0.6569923066    -4.5896637498
   82      H      -6.3355513861     0.4707298163    -6.1162494931
   83      C      -2.6767919061    -2.5126608744    -2.9939405608
   84      H      -3.2715514168    -3.3555799364    -3.3455457794
   85      H      -1.6753536941    -2.6169282300    -3.4165001223
   86      H      -2.5749559831    -2.6112235766    -1.9108876792
   87      C      -2.6066526833     2.5162401452    -3.0362369533
   88      H      -3.1812567006     3.3698573508    -3.3957177873
   89      H      -1.6057742606     2.5875630550    -3.4669712881
   90      H      -2.4947648379     2.6266827037    -1.9554242988
 ----------------------------------------------------------------

   15   -1973.6976506050      7.47e-09  Convergence criterion met
 Total energy in the final basis set =    -1973.6976506050

         TDDFT/TDA Excitation Energies
 ---------------------------------------------------

 Excited state   1: excitation energy (eV) =    1.9845
 Total energy for state  1:                 -1973.62472158 au
    Multiplicity: Triplet
    Trans. Mom.:  0.0000 X   0.0000 Y   0.0000 Z
    Strength   :     0.0000000000
    D(167) --> V(  2) amplitude =  0.2588
    D(174) --> V(  1) amplitude =  0.9232

 Excited state   2: excitation energy (eV) =    2.3740
 Total energy for state  2:                 -1973.61040644 au
    Multiplicity: Triplet
    Trans. Mom.:  0.0000 X   0.0000 Y   0.0000 Z
    Strength   :     0.0000000000
    D(171) --> V(  2) amplitude =  0.4846
    D(173) --> V(  1) amplitude =  0.8030

 Excited state   3: excitation energy (eV) =    2.4289
 Total energy for state  3:                 -1973.60838966 au
    Multiplicity: Triplet
    Trans. Mom.:  0.0000 X   0.0000 Y   0.0000 Z
    Strength   :     0.0000000000
    D(171) --> V(  1) amplitude =  0.7068
    D(173) --> V(  2) amplitude =  0.5074
    D(174) --> V(  2) amplitude =  0.2517

 Excited state   4: excitation energy (eV) =    2.4945
 Total energy for state  4:                 -1973.60597785 au
    Multiplicity: Triplet
    Trans. Mom.:  0.0000 X   0.0000 Y   0.0000 Z
    Strength   :     0.0000000000
    D(167) --> V(  1) amplitude =  0.6967
    D(173) --> V(  2) amplitude = -0.2460
    D(174) --> V(  2) amplitude =  0.5305

 Excited state   5: excitation energy (eV) =    2.6748
 Total energy for state  5:                 -1973.59935451 au
    Multiplicity: Singlet
    Trans. Mom.:  0.0875 X  -0.0026 Y  -0.1581 Z
    Strength   :     0.0021401080
    D(174) --> V(  1) amplitude =  0.9652

 Excited state   6: excitation energy (eV) =    3.0160
 Total energy for state  6:                 -1973.58681388 au
    Multiplicity: Triplet
    Trans. Mom.:  0.0000 X   0.0000 Y   0.0000 Z
    Strength   :     0.0000000000
    D(172) --> V(  1) amplitude =  0.9407

 Excited state   7: excitation energy (eV) =    3.0908
 Total energy for state  7:                 -1973.58406649 au
    Multiplicity: Singlet
    Trans. Mom.: -0.0799 X   0.0041 Y   0.1649 Z
    Strength   :     0.0025433505
    D(172) --> V(  1) amplitude =  0.9586

 Excited state   8: excitation energy (eV) =    3.1721
 Total energy for state  8:                 -1973.58107746 au
    Multiplicity: Triplet
    Trans. Mom.:  0.0000 X   0.0000 Y   0.0000 Z
    Strength   :     0.0000000000
    D(170) --> V(  1) amplitude =  0.9606

 Excited state   9: excitation energy (eV) =    3.1845
 Total energy for state  9:                 -1973.58062407 au
    Multiplicity: Singlet
    Trans. Mom.:  1.7507 X  -0.0161 Y  -3.0679 Z
    Strength   :     0.9734299154
    D(173) --> V(  1) amplitude =  0.9310

 Excited state  10: excitation energy (eV) =    3.2052
 Total energy for state 10:                 -1973.57986214 au
    Multiplicity: Singlet
    Trans. Mom.: -0.2844 X   0.0046 Y   0.4819 Z
    Strength   :     0.0245904437
    D(170) --> V(  1) amplitude =  0.9581

 Excited state  11: excitation energy (eV) =    3.4568
 Total energy for state 11:                 -1973.57061482 au
    Multiplicity: Singlet
    Trans. Mom.:  0.7775 X   0.0060 Y   0.4247 Z
    Strength   :     0.0664780553
    D(167) --> V(  1) amplitude =  0.6692
    D(171) --> V(  1) amplitude =  0.2356
    D(174) --> V(  2) amplitude =  0.6159

 Excited state  12: excitation energy (eV) =    3.5006
 Total energy for state 12:                 -1973.56900444 au
    Multiplicity: Singlet
    Trans. Mom.: -0.1613 X   0.0148 Y  -0.0652 Z
    Strength   :     0.0026141721
    D(171) --> V(  1) amplitude =  0.8984

 ---------------------------------------------------

                    Orbital Energies (a.u.)
 --------------------------------------------------------------

 Alpha MOs
 -- Occupied --
-10.465 -10.464 -10.464 -10.464 -10.464 -10.464 -10.462 -10.462
-10.462 -10.462 -10.462 -10.462 -10.461 -10.461 -10.460 -10.460
-10.459 -10.459 -10.459 -10.459 -10.459 -10.459 -10.450 -10.450
-10.450 -10.450 -10.446 -10.446 -10.445 -10.445 -10.445 -10.444
-10.444 -10.444 -10.433 -10.432 -10.432 -10.431 -10.428 -10.428
-10.428 -10.428 -10.428 -10.428 -10.423 -10.423 -10.423 -10.422
-10.416 -10.414  -6.941  -6.938  -1.012  -1.012  -0.957  -0.954
 -0.953  -0.951  -0.933  -0.932  -0.903  -0.894  -0.870  -0.866
 -0.865  -0.865  -0.855  -0.854  -0.847  -0.846  -0.815  -0.812
 -0.811  -0.795  -0.778  -0.778  -0.756  -0.754  -0.754  -0.754
 -0.731  -0.729  -0.728  -0.717  -0.687  -0.681  -0.676  -0.665
 -0.647  -0.640  -0.636  -0.636  -0.636  -0.634  -0.596  -0.592
 -0.588  -0.588  -0.582  -0.575  -0.573  -0.549  -0.544  -0.541
 -0.538  -0.537  -0.526  -0.526  -0.519  -0.507  -0.500  -0.498
 -0.493  -0.492  -0.491  -0.485  -0.481  -0.481  -0.479  -0.478
 -0.478  -0.477  -0.474  -0.466  -0.464  -0.463  -0.462  -0.461
 -0.461  -0.459  -0.453  -0.453  -0.448  -0.447  -0.444  -0.443
 -0.442  -0.437  -0.432  -0.426  -0.423  -0.418  -0.414  -0.410
 -0.409  -0.399  -0.398  -0.394  -0.394  -0.393  -0.389  -0.385
 -0.379  -0.377  -0.376  -0.376  -0.373  -0.363  -0.351  -0.346
 -0.345  -0.331  -0.320  -0.314  -0.295  -0.294  -0.274  -0.269
 -0.269  -0.262  -0.260  -0.259  -0.253  -0.246

          Ground-State Mulliken Net Atomic Charges

     Atom                 Charge (a.u.)
  ----------------------------------------
      1 C                    -0.155225
      2 C                    -0.385790
      3 H                     0.237153
      4 C                     0.093376
      5 C                     0.205569
      6 C                    -0.377472
      7 H                     0.222380
      8 C                    -0.203998
      9 H                     0.226469
     10 C                    -0.333966
     11 H                     0.220382
     12 C                    -0.072334
     13 C                     0.249591
     14 C                     0.198654
     15 C                    -0.370989
     16 H                     0.222032
     17 C                    -0.205456
     18 H                     0.226610
     19 C                    -0.331725
     20 H                     0.220261
     21 C                     0.086760
     22 C                    -0.383942
     23 H                     0.234908
     24 C                    -0.153524
     25 B                     0.690547
     26 C                    -0.155609
     27 C                    -0.387096
     28 H                     0.235275
     29 C                     0.094561
     30 C                     0.205600
     31 C                    -0.377516
     32 H                     0.222131
     33 C                    -0.204126
     34 H                     0.226456
     35 C                    -0.334494
     36 H                     0.220585
     37 C                    -0.071293
     38 C                     0.250978
     39 C                     0.196052
     40 C                    -0.369710
     41 H                     0.221947
     42 C                    -0.205361
     43 H                     0.226730
     44 C                    -0.332133
     45 H                     0.220206
     46 C                     0.086578
     47 C                    -0.383480
     48 H                     0.233774
     49 C                    -0.153469
     50 B                     0.693685
     51 C                    -0.226710
     52 C                     0.063556
     53 C                    -0.344996
     54 H                     0.195724
     55 C                     0.130264
     56 C                    -0.339143
     57 H                     0.195757
     58 C                     0.065152
     59 C                    -0.708692
     60 H                     0.225575
     61 H                     0.227444
     62 H                     0.231271
     63 C                    -0.758314
     64 H                     0.233202
     65 H                     0.243624
     66 H                     0.243782
     67 C                    -0.760361
     68 H                     0.233682
     69 H                     0.244163
     70 H                     0.244432
     71 C                    -0.224078
     72 C                     0.060776
     73 C                    -0.342836
     74 H                     0.195903
     75 C                     0.130699
     76 C                    -0.337936
     77 H                     0.196219
     78 C                     0.060806
     79 C                    -0.709617
     80 H                     0.225782
     81 H                     0.228710
     82 H                     0.230733
     83 C                    -0.757849
     84 H                     0.233449
     85 H                     0.243495
     86 H                     0.243296
     87 C                    -0.757969
     88 H                     0.233440
     89 H                     0.243703
     90 H                     0.243321
  ----------------------------------------
  Sum of atomic charges =    -0.000000

                    Cartesian Multipole Moments
 -----------------------------------------------------------------
    Charge (ESU x 10^10)
                -0.0000
    Dipole Moment (Debye)
         X      -0.0401      Y       0.0129      Z      -0.0400
       Tot       0.0581
    Quadrupole Moments (Debye-Ang)
        XX    -260.8156     XY      -0.5483     YY    -303.2721
        XZ      -6.5975     YZ      -0.2814     ZZ    -253.3883

 Total job time:  5688.33s(wall), 27655.72s(cpu)
        *  Thank you very much for using Q-Chem.  Have a nice day.  *
