 Q-Chem 5.0, Q-Chem, Inc., Pleasanton, CA (2017)
 Q-Chem 5.0.1 for Intel X86 EM64T Linux

User input:
--------------------------------------------------------------
$rem
threads 8
jobtype	opt
method PBEh-3c
basis def2-mSVP
mem_static	1024
mem_total	14000
sym_ignore	true
cis_n_roots             3
cis_singlets            false
cis_triplets		true
rpa                     false
cis_state_deriv         1
state_follow		true
$end

$molecule
read t1pre.mol
$end

--------------------------------------------------------------

             Standard Nuclear Orientation (Angstroms)
    I     Atom           X                Y                Z
 ----------------------------------------------------------------
    1      C      -6.1988010000     4.0057630000     1.7474870000
    2      C      -6.7400660000     2.6873220000     2.0256700000
    3      B      -5.8847570000     1.4261410000     1.8519080000
    4      C      -4.4342130000     1.5836130000     1.3806360000
    5      C      -3.8643550000     2.9050380000     1.1474620000
    6      B      -4.7251830000     4.1654670000     1.3399220000
    7      C      -2.5423080000     3.0140290000     0.6848750000
    8      C      -1.8012760000     1.8850530000     0.4237560000
    9      C      -2.3844150000     0.5699300000     0.6418180000
   10      C      -3.6659500000     0.4449160000     1.1227640000
   11      C      -7.0451790000     5.1275670000     1.8042790000
   12      C      -8.3759360000     4.9778060000     2.1167830000
   13      C      -8.8971360000     3.6622920000     2.4320170000
   14      C      -8.0852210000     2.5565590000     2.3866440000
   15      H      -6.6383500000     6.1062980000     1.5757930000
   16      C      -6.5159670000     0.0004640000     2.0816420000
   17      C      -4.1230250000     5.5941080000     1.0779280000
   18      C      -7.1390110000    -0.6712070000     1.0237360000
   19      C      -7.7013100000    -1.9266010000     1.2321830000
   20      C      -7.6665890000    -2.5417540000     2.4750280000
   21      C      -7.0475390000    -1.8672290000     3.5211100000
   22      C      -6.4768470000    -0.6141010000     3.3401170000
   23      C      -5.8227820000     0.0932340000     4.4934820000
   24      C      -7.2092840000    -0.0385600000    -0.3388930000
   25      H      -8.1784210000    -2.4358910000     0.4010070000
   26      C      -8.2888900000    -3.8907510000     2.6926860000
   27      H      -7.0075970000    -2.3312110000     4.5016540000
   28      H      -4.7896830000     0.3613800000     4.2629440000
   29      H      -5.8117900000    -0.5225910000     5.3926510000
   30      H      -6.3442690000     1.0219680000     4.7359430000
   31      H      -7.7617300000     0.9032390000    -0.3137180000
   32      H      -7.7049100000    -0.6890260000    -1.0596050000
   33      H      -6.2155070000     0.1875470000    -0.7307890000
   34      H      -8.6016160000    -4.3441780000     1.7525340000
   35      H      -9.1716880000    -3.8236410000     3.3315820000
   36      H      -7.5950470000    -4.5797350000     3.1763580000
   37      C      -3.5674340000     6.3288280000     2.1289630000
   38      C      -3.0300490000     7.5891670000     1.8872550000
   39      C      -3.0325620000     8.1452880000     0.6157650000
   40      C      -3.5964360000     7.4107240000    -0.4213040000
   41      C      -4.1383390000     6.1502130000    -0.2081980000
   42      C      -4.7408320000     5.3811200000    -1.3517960000
   43      C      -3.5564320000     5.7521010000     3.5174490000
   44      H      -2.5984460000     8.1477360000     2.7112930000
   45      C      -2.4381430000     9.4985420000     0.3535710000
   46      H      -3.6133490000     7.8321550000    -1.4217310000
   47      H      -4.7461700000     5.9650910000    -2.2721250000
   48      H      -5.7720950000     5.0903450000    -1.1401640000
   49      H      -4.1897130000     4.4592850000    -1.5516040000
   50      H      -4.5702400000     5.5756210000     3.8839010000
   51      H      -3.0618420000     6.4144750000     4.2276880000
   52      H      -3.0381660000     4.7911990000     3.5478280000
   53      H      -2.1102930000     9.9785800000     1.2750090000
   54      H      -3.1556160000    10.1645350000    -0.1282330000
   55      H      -1.5709950000     9.4305700000    -0.3060970000
   56      C      -0.4707010000     1.6844150000    -0.1154870000
   57      C     -10.3121940000     3.7867850000     2.6976390000
   58      C     -11.3179210000     2.9064520000     3.0226220000
   59      C       1.7158170000     1.9163820000    -1.0571870000
   60      C       1.8797680000     0.5521620000    -1.1589910000
   61      C       0.8499200000    -0.3219690000    -0.7361130000
   62      C     -12.9313430000     4.7401950000     2.9880610000
   63      C     -12.6265140000     3.4086920000     3.1678470000
   64      H     -13.4206700000     2.7195150000     3.4240450000
   65      H       2.7971130000     0.1493570000    -1.5699380000
   66      C      -0.2893000000     0.2868100000    -0.2206030000
   67      H      -4.1004640000    -0.5358720000     1.2839520000
   68      C       0.5440240000     2.5077860000    -0.5411620000
   69      H       2.5154970000     2.5636640000    -1.3922510000
   70      H       0.4597750000     3.5856240000    -0.4932830000
   71      H      -2.1245110000     3.9991660000     0.5111130000
   72      C      -1.4251410000    -0.4231950000     0.2281540000
   73      C       0.8284950000    -1.7378090000    -0.7895060000
   74      C      -0.2771540000    -2.4369030000    -0.3532840000
   75      C      -1.4224230000    -1.7983730000     0.1603490000
   76      H      -0.2687630000    -3.5176320000    -0.4111960000
   77      H      -2.2721230000    -2.3873530000     0.4818120000
   78      H      -8.4865400000     1.5713920000     2.5984570000
   79      H     -11.1286660000     1.8495600000     3.1609870000
   80      C     -10.6290160000     5.1496430000     2.5233890000
   81      C      -9.4912560000     5.9097400000     2.1734710000
   82      C      -9.6582400000     7.2533330000     1.9394520000
   83      C     -10.9521990000     7.8046200000     2.0616450000
   84      C     -12.0534810000     7.0521940000     2.4039670000
   85      C     -11.9157210000     5.6657360000     2.6481240000
   86      H     -11.0809110000     8.8623140000     1.8732380000
   87      H     -13.0266700000     7.5212510000     2.4798500000
   88      H      -8.8293610000     7.8899900000     1.6587100000
   89      H     -13.9541810000     5.0776720000     3.1020920000
   90      H       1.6823650000    -2.2765110000    -1.1812300000
 ----------------------------------------------------------------

   15   -1973.6967926669      7.70E-09 Convergence criterion met
 Total energy in the final basis set = -1973.69679267

         TDDFT/TDA Excitation Energies
 ---------------------------------------------------

 Excited state   1: excitation energy (eV) =    1.9910
 Total energy for state  1:                 -1973.62362643 au
    Multiplicity: Triplet
    Trans. Mom.:  0.0000 X   0.0000 Y   0.0000 Z
    Strength   :     0.0000000000
    D(167) --> V(  2) amplitude =  0.2580
    D(174) --> V(  1) amplitude =  0.9241

 Excited state   2: excitation energy (eV) =    2.3747
 Total energy for state  2:                 -1973.60952308 au
    Multiplicity: Triplet
    Trans. Mom.:  0.0000 X   0.0000 Y   0.0000 Z
    Strength   :     0.0000000000
    D(171) --> V(  2) amplitude =  0.4577
    D(173) --> V(  1) amplitude =  0.7937

 Excited state   3: excitation energy (eV) =    2.4353
 Total energy for state  3:                 -1973.60729624 au
    Multiplicity: Triplet
    Trans. Mom.:  0.0000 X   0.0000 Y   0.0000 Z
    Strength   :     0.0000000000
    D(171) --> V(  1) amplitude =  0.6785
    D(172) --> V(  1) amplitude =  0.2223
    D(173) --> V(  2) amplitude =  0.5367

 ---------------------------------------------------

 Final energy is   -1973.62362642744
 **  OPTIMIZATION CONVERGED  **

                    Orbital Energies (a.u.)
 --------------------------------------------------------------

 Alpha MOs
 -- Occupied --
-10.464 -10.464 -10.464 -10.464 -10.464 -10.463 -10.462 -10.462
-10.462 -10.462 -10.462 -10.461 -10.461 -10.460 -10.460 -10.460
-10.459 -10.459 -10.459 -10.458 -10.458 -10.458 -10.451 -10.451
-10.449 -10.449 -10.446 -10.446 -10.445 -10.445 -10.445 -10.444
-10.444 -10.444 -10.433 -10.432 -10.431 -10.431 -10.428 -10.428
-10.428 -10.428 -10.428 -10.427 -10.423 -10.423 -10.423 -10.422
-10.416 -10.414  -6.940  -6.939  -1.012  -1.012  -0.958  -0.954
 -0.953  -0.951  -0.933  -0.932  -0.904  -0.895  -0.870  -0.866
 -0.865  -0.865  -0.855  -0.854  -0.847  -0.846  -0.815  -0.812
 -0.811  -0.796  -0.778  -0.778  -0.757  -0.754  -0.754  -0.754
 -0.731  -0.729  -0.728  -0.717  -0.687  -0.681  -0.676  -0.665
 -0.648  -0.641  -0.636  -0.636  -0.636  -0.634  -0.596  -0.592
 -0.589  -0.588  -0.582  -0.575  -0.573  -0.549  -0.544  -0.541
 -0.538  -0.537  -0.526  -0.526  -0.519  -0.507  -0.500  -0.498
 -0.493  -0.492  -0.491  -0.485  -0.481  -0.481  -0.479  -0.478
 -0.477  -0.477  -0.474  -0.466  -0.464  -0.463  -0.462  -0.461
 -0.461  -0.459  -0.453  -0.453  -0.448  -0.447  -0.444  -0.443
 -0.442  -0.437  -0.432  -0.426  -0.424  -0.418  -0.414  -0.410
 -0.409  -0.399  -0.398  -0.394  -0.394  -0.393  -0.389  -0.385
 -0.379  -0.377  -0.376  -0.376  -0.373  -0.363  -0.351  -0.346
 -0.344  -0.331  -0.320  -0.314  -0.295  -0.294  -0.274  -0.269
 -0.268  -0.262  -0.260  -0.259  -0.253  -0.246

          Ground-State Mulliken Net Atomic Charges

     Atom                 Charge (a.u.)
  ----------------------------------------
      1 C                    -0.154532
      2 C                    -0.153134
      3 B                     0.688826
      4 C                    -0.152361
      5 C                    -0.154600
      6 B                     0.690005
      7 C                    -0.388302
      8 C                     0.100342
      9 C                     0.079569
     10 C                    -0.382101
     11 C                    -0.391274
     12 C                     0.104882
     13 C                     0.078600
     14 C                    -0.379536
     15 H                     0.235337
     16 C                    -0.228079
     17 C                    -0.221263
     18 C                     0.059004
     19 C                    -0.344252
     20 C                     0.131034
     21 C                    -0.337341
     22 C                     0.066146
     23 C                    -0.757252
     24 C                    -0.757919
     25 H                     0.196015
     26 C                    -0.709497
     27 H                     0.196229
     28 H                     0.243985
     29 H                     0.233384
     30 H                     0.241871
     31 H                     0.244772
     32 H                     0.233443
     33 H                     0.244043
     34 H                     0.225745
     35 H                     0.230946
     36 H                     0.228465
     37 C                     0.064683
     38 C                    -0.344864
     39 C                     0.131200
     40 C                    -0.338624
     41 C                     0.058684
     42 C                    -0.756534
     43 C                    -0.760739
     44 H                     0.195937
     45 C                    -0.709683
     46 H                     0.195900
     47 H                     0.232983
     48 H                     0.243310
     49 H                     0.243926
     50 H                     0.244631
     51 H                     0.233930
     52 H                     0.243391
     53 H                     0.225933
     54 H                     0.228581
     55 H                     0.230223
     56 C                     0.200203
     57 C                     0.198943
     58 C                    -0.370749
     59 C                    -0.204075
     60 C                    -0.334296
     61 C                     0.250039
     62 C                    -0.331263
     63 C                    -0.205913
     64 H                     0.226495
     65 H                     0.220580
     66 C                    -0.071366
     67 H                     0.235562
     68 C                    -0.376068
     69 H                     0.226486
     70 H                     0.222118
     71 H                     0.235211
     72 C                     0.199486
     73 C                    -0.331719
     74 C                    -0.205587
     75 C                    -0.368922
     76 H                     0.226745
     77 H                     0.222585
     78 H                     0.236351
     79 H                     0.222017
     80 C                    -0.068328
     81 C                     0.200223
     82 C                    -0.379782
     83 C                    -0.203428
     84 C                    -0.334701
     85 C                     0.250142
     86 H                     0.226274
     87 H                     0.220440
     88 H                     0.221726
     89 H                     0.220185
     90 H                     0.220318
  ----------------------------------------
  Sum of atomic charges =    -0.000000

                    Cartesian Multipole Moments
 -----------------------------------------------------------------
    Charge (ESU x 10^10)
                -0.0000
    Dipole Moment (Debye)
         X      -0.2341      Y      -0.1748      Z      -0.7382
       Tot       0.7940
    Quadrupole Moments (Debye-Ang)
        XX    -254.5029     XY      -5.1733     YY    -264.2861
        XZ     -10.1139     YZ      -4.0818     ZZ    -299.9655

 Total job time:  2374.26s(wall), 14340.92s(cpu)
        *  Thank you very much for using Q-Chem.  Have a nice day.  *
