 Q-Chem 5.0, Q-Chem, Inc., Pleasanton, CA (2017)
 Q-Chem 5.0.1 for Intel X86 EM64T Linux

User input:
--------------------------------------------------------------
$rem
threads 8
jobtype	sp
method PBEh-3c
basis def2-mSVP
mem_static	1024
mem_total	14000
sym_ignore	true
cis_n_roots             6
cis_singlets            true
cis_triplets		true
rpa                     false
calc_soc 		true
cis_moments             true
cis_relaxed_density	true
$end

$molecule
read t1opt.mol
$end

--------------------------------------------------------------

             Standard Nuclear Orientation (Angstroms)
    I     Atom           X                Y                Z
 ----------------------------------------------------------------
    1      C       0.0000000000     0.0000000000     0.0000000000
    2      C       0.0000000000     0.0000000000     1.3988720000
    3      H       0.9448561229     0.0000000000     1.9315289027
    4      C      -1.1863498739    -0.0405783022     2.0879564297
    5      C      -1.4547527786    -0.1226899322     3.5055817794
    6      C      -0.6757023209    -0.1525614092     4.6388409563
    7      H       0.4036854380    -0.0843646429     4.5913535501
    8      C      -1.3150435106    -0.2841644343     5.8877104935
    9      H      -0.7058158779    -0.3075240141     6.7819043927
   10      C      -2.6831092951    -0.3918214811     6.0099752794
   11      H      -3.1282606283    -0.5000247731     6.9914144190
   12      C      -2.8548316420    -0.2246693055     3.6378766922
   13      C      -3.5069304616    -0.3691041915     4.8591157874
   14      C      -3.5013198385    -0.1987915100     2.3824601561
   15      C      -4.8694459126    -0.3231901992     2.3570485111
   16      H      -5.4245372766    -0.3204149902     1.4280408782
   17      C      -5.5574373376    -0.4681433420     3.5813179363
   18      H      -6.6344519811    -0.5694208678     3.5575990591
   19      C      -4.9148600867    -0.4914724399     4.7989801481
   20      H      -5.4874471804    -0.6101486609     5.7105334821
   21      C      -2.4523088015    -0.0754173073     1.3824548818
   22      C      -2.4689911387    -0.0303035481     0.0081593470
   23      H      -3.4081413274    -0.0456732966    -0.5334967102
   24      C      -1.2635856471     0.0061264972    -0.7155091596
   25      B       1.3352262812    -0.0887559931    -0.7494116339
   26      C       1.3124724207    -0.1659870551    -2.2805842942
   27      C       2.5096081768    -0.3443516172    -2.9794460152
   28      H       3.4422486204    -0.4008711878    -2.4283421561
   29      C       2.4983912269    -0.4762685594    -4.3475620897
   30      C       3.5615709382    -0.7418334465    -5.2839095792
   31      C       4.9179333437    -0.9521688508    -5.1754719528
   32      H       5.4265874010    -0.9158466009    -4.2203918295
   33      C       5.6440351004    -1.2302762926    -6.3496149672
   34      H       6.7103474415    -1.3984771849    -6.2716039655
   35      C       5.0473770933    -1.3019332902    -7.5907215446
   36      H       5.6500501949    -1.5243701093    -8.4625292704
   37      C       2.9566678706    -0.8169138837    -6.5583037233
   38      C       3.6524599260    -1.0951771284    -7.7298960350
   39      C       1.5600702340    -0.6126057278    -6.4873883108
   40      C       0.8305419352    -0.6834962312    -7.6499578512
   41      H      -0.2426000965    -0.5440831050    -7.6573425839
   42      C       1.5129154715    -0.9523329149    -8.8546295536
   43      H       0.9396038175    -1.0079839464    -9.7705701642
   44      C       2.8746761036    -1.1542436622    -8.9110311300
   45      H       3.3487518326    -1.3650423537    -9.8615398712
   46      C       1.2477357108    -0.4022129489    -5.0875134054
   47      C       0.0636742594    -0.2149957647    -4.4130901927
   48      H      -0.8762233579    -0.1742706065    -4.9517704186
   49      C       0.0528297966    -0.1091102842    -3.0122531471
   50      B      -1.2808273351    -0.0037985619    -2.2526394242
   51      C      -2.6450873987     0.0447014383    -3.0328266837
   52      C      -3.2245146242     1.2724613240    -3.3645466208
   53      C      -4.4281663779     1.3065910559    -4.0614810908
   54      H      -4.8656259445     2.2663435671    -4.3160838339
   55      C      -5.0790723232     0.1405510344    -4.4391528772
   56      C      -4.4996721656    -1.0757996927    -4.0958785800
   57      H      -4.9975960236    -1.9986722191    -4.3771660160
   58      C      -3.2986317885    -1.1386100350    -3.4019643970
   59      C      -6.3696258827     0.1789501235    -5.2049030230
   60      H      -6.7338529648     1.1984293200    -5.3272624481
   61      H      -7.1510549326    -0.3924235617    -4.7015643976
   62      H      -6.2524894485    -0.2483212479    -6.2026235934
   63      C      -2.5430051471     2.5510821990    -2.9629211546
   64      H      -3.0847925642     3.4278818047    -3.3171609682
   65      H      -1.5285324275     2.6070961176    -3.3636236753
   66      H      -2.4584304867     2.6337200762    -1.8769848976
   67      C      -2.6979656261    -2.4707794239    -3.0458159859
   68      H      -3.3491363714    -3.2964288103    -3.3327587529
   69      H      -2.5144759210    -2.5536627779    -1.9723618697
   70      H      -1.7364283776    -2.6241270721    -3.5411610137
   71      C       2.6906042461    -0.1752135860     0.0501106592
   72      C       3.1991585604    -1.4196443113     0.4390268069
   73      C       4.3923730107    -1.4914589273     1.1508731944
   74      H       4.7751458718    -2.4641540613     1.4427881653
   75      C       5.1032439214    -0.3512663390     1.4957001571
   76      C       4.5904649206     0.8810903509     1.1073067154
   77      H       5.1316504045     1.7860214758     1.3652962022
   78      C       3.4026393929     0.9811832005     0.3946858573
   79      C       6.3828061382    -0.4390165661     2.2763714109
   80      H       6.7209912601    -1.4699438768     2.3768709865
   81      H       7.1843697165     0.1258572359     1.7983863876
   82      H       6.2630516141    -0.0357210240     3.2838616669
   83      C       2.8699322806     2.3290088319    -0.0027609674
   84      H       3.5516356771     3.1323102905     0.2762623244
   85      H       2.7075720202     2.3917448431    -1.0807439087
   86      H       1.9083998936     2.5315106665     0.4744513713
   87      C       2.4573696831    -2.6821461626     0.0958415365
   88      H       2.9864228459    -3.5680257936     0.4472619848
   89      H       2.3193126559    -2.7889956899    -0.9820376967
   90      H       1.4621693042    -2.6951702379     0.5455327964
 ----------------------------------------------------------------

   15   -1973.6967229784      7.63E-09 Convergence criterion met
 Total energy in the final basis set = -1973.69672298

         TDDFT/TDA Excitation Energies
 ---------------------------------------------------

 Excited state   1: excitation energy (eV) =    1.9910
 Total energy for state  1:                 -1973.62355636 au
    Multiplicity: Triplet
    Trans. Mom.:  0.0000 X   0.0000 Y   0.0000 Z
    Strength   :     0.0000000000
    D(167) --> V(  2) amplitude = -0.2583
    D(174) --> V(  1) amplitude =  0.9241

 Excited state   2: excitation energy (eV) =    2.3747
 Total energy for state  2:                 -1973.60945423 au
    Multiplicity: Triplet
    Trans. Mom.:  0.0000 X   0.0000 Y   0.0000 Z
    Strength   :     0.0000000000
    D(171) --> V(  2) amplitude = -0.4576
    D(173) --> V(  1) amplitude =  0.7937

 Excited state   3: excitation energy (eV) =    2.4349
 Total energy for state  3:                 -1973.60724068 au
    Multiplicity: Triplet
    Trans. Mom.:  0.0000 X   0.0000 Y   0.0000 Z
    Strength   :     0.0000000000
    D(171) --> V(  1) amplitude =  0.6687
    D(172) --> V(  1) amplitude = -0.2218
    D(173) --> V(  2) amplitude = -0.5223

 Excited state   4: excitation energy (eV) =    2.5000
 Total energy for state  4:                 -1973.60485139 au
    Multiplicity: Triplet
    Trans. Mom.:  0.0000 X   0.0000 Y   0.0000 Z
    Strength   :     0.0000000000
    D(167) --> V(  1) amplitude =  0.7048
    D(174) --> V(  2) amplitude = -0.5500

 Excited state   5: excitation energy (eV) =    2.6811
 Total energy for state  5:                 -1973.59819610 au
    Multiplicity: Singlet
    Trans. Mom.: -0.0871 X   0.0308 Y   0.0892 Z
    Strength   :     0.0010841432
    D(174) --> V(  1) amplitude =  0.9665

 Excited state   6: excitation energy (eV) =    3.0191
 Total energy for state  6:                 -1973.58577216 au
    Multiplicity: Triplet
    Trans. Mom.:  0.0000 X   0.0000 Y   0.0000 Z
    Strength   :     0.0000000000
    D(171) --> V(  1) amplitude =  0.2677
    D(172) --> V(  1) amplitude =  0.9016

 Excited state   7: excitation energy (eV) =    3.0944
 Total energy for state  7:                 -1973.58300762 au
    Multiplicity: Singlet
    Trans. Mom.: -0.0678 X   0.0130 Y   0.0404 Z
    Strength   :     0.0004854200
    D(171) --> V(  1) amplitude =  0.2551
    D(172) --> V(  1) amplitude =  0.9269

 Excited state   8: excitation energy (eV) =    3.1761
 Total energy for state  8:                 -1973.58000300 au
    Multiplicity: Triplet
    Trans. Mom.:  0.0000 X   0.0000 Y   0.0000 Z
    Strength   :     0.0000000000
    D(170) --> V(  1) amplitude =  0.9519

 Excited state   9: excitation energy (eV) =    3.1837
 Total energy for state  9:                 -1973.57972451 au
    Multiplicity: Singlet
    Trans. Mom.:  1.7004 X  -0.1711 Y  -2.9584 Z
    Strength   :     0.9104744591
    D(170) --> V(  1) amplitude = -0.2454
    D(173) --> V(  1) amplitude =  0.9150

 Excited state  10: excitation energy (eV) =    3.2116
 Total energy for state 10:                 -1973.57869955 au
    Multiplicity: Singlet
    Trans. Mom.:  0.4447 X  -0.0524 Y  -0.8985 Z
    Strength   :     0.0792899463
    D(170) --> V(  1) amplitude =  0.9306
    D(173) --> V(  1) amplitude =  0.2348

 Excited state  11: excitation energy (eV) =    3.4628
 Total energy for state 11:                 -1973.56946800 au
    Multiplicity: Singlet
    Trans. Mom.:  0.7730 X  -0.0879 Y   0.4278 Z
    Strength   :     0.0668796112
    D(167) --> V(  1) amplitude = -0.6677
    D(171) --> V(  1) amplitude =  0.2365
    D(174) --> V(  2) amplitude =  0.6133

 Excited state  12: excitation energy (eV) =    3.5029
 Total energy for state 12:                 -1973.56799515 au
    Multiplicity: Singlet
    Trans. Mom.: -0.1453 X  -0.2389 Y  -0.0603 Z
    Strength   :     0.0070202078
    D(171) --> V(  1) amplitude =  0.8577
    D(172) --> V(  1) amplitude = -0.2471

 ---------------------------------------------------

                    Orbital Energies (a.u.)
 --------------------------------------------------------------

 Alpha MOs
 -- Occupied --
-10.464 -10.464 -10.464 -10.464 -10.464 -10.463 -10.462 -10.462
-10.462 -10.462 -10.462 -10.461 -10.461 -10.460 -10.460 -10.460
-10.459 -10.459 -10.459 -10.458 -10.458 -10.458 -10.451 -10.451
-10.449 -10.449 -10.446 -10.446 -10.445 -10.445 -10.445 -10.444
-10.444 -10.444 -10.433 -10.432 -10.431 -10.431 -10.428 -10.428
-10.428 -10.428 -10.428 -10.427 -10.423 -10.423 -10.423 -10.422
-10.416 -10.414  -6.940  -6.939  -1.012  -1.012  -0.958  -0.954
 -0.953  -0.951  -0.933  -0.932  -0.904  -0.895  -0.870  -0.866
 -0.865  -0.865  -0.855  -0.854  -0.847  -0.846  -0.815  -0.812
 -0.811  -0.796  -0.778  -0.778  -0.757  -0.754  -0.754  -0.754
 -0.731  -0.729  -0.728  -0.717  -0.687  -0.681  -0.676  -0.665
 -0.648  -0.641  -0.636  -0.636  -0.636  -0.634  -0.596  -0.592
 -0.589  -0.588  -0.582  -0.575  -0.573  -0.549  -0.544  -0.541
 -0.538  -0.537  -0.526  -0.526  -0.519  -0.507  -0.500  -0.498
 -0.493  -0.492  -0.491  -0.485  -0.481  -0.481  -0.479  -0.478
 -0.477  -0.477  -0.474  -0.466  -0.464  -0.463  -0.462  -0.461
 -0.461  -0.459  -0.453  -0.453  -0.448  -0.447  -0.444  -0.443
 -0.442  -0.437  -0.432  -0.426  -0.424  -0.418  -0.414  -0.410
 -0.409  -0.399  -0.398  -0.394  -0.394  -0.393  -0.389  -0.385
 -0.379  -0.377  -0.376  -0.376  -0.373  -0.363  -0.351  -0.346
 -0.344  -0.331  -0.320  -0.314  -0.295  -0.294  -0.274  -0.269
 -0.268  -0.262  -0.260  -0.259  -0.253  -0.246

          Ground-State Mulliken Net Atomic Charges

     Atom                 Charge (a.u.)
  ----------------------------------------
      1 C                    -0.152814
      2 C                    -0.379531
      3 H                     0.236304
      4 C                     0.078246
      5 C                     0.198707
      6 C                    -0.370614
      7 H                     0.221974
      8 C                    -0.205944
      9 H                     0.226526
     10 C                    -0.330973
     11 H                     0.220112
     12 C                    -0.069073
     13 C                     0.250249
     14 C                     0.200453
     15 C                    -0.379699
     16 H                     0.221756
     17 C                    -0.203409
     18 H                     0.226246
     19 C                    -0.334767
     20 H                     0.220486
     21 C                     0.105091
     22 C                    -0.391499
     23 H                     0.235365
     24 C                    -0.154911
     25 B                     0.688951
     26 C                    -0.152642
     27 C                    -0.381650
     28 H                     0.235541
     29 C                     0.079191
     30 C                     0.199719
     31 C                    -0.369108
     32 H                     0.222587
     33 C                    -0.205541
     34 H                     0.226768
     35 C                    -0.331683
     36 H                     0.220312
     37 C                    -0.071430
     38 C                     0.250147
     39 C                     0.200483
     40 C                    -0.376152
     41 H                     0.222144
     42 C                    -0.204169
     43 H                     0.226498
     44 C                    -0.334398
     45 H                     0.220628
     46 C                     0.100263
     47 C                    -0.388751
     48 H                     0.235209
     49 C                    -0.154484
     50 B                     0.691168
     51 C                    -0.221639
     52 C                     0.064949
     53 C                    -0.344793
     54 H                     0.195945
     55 C                     0.130910
     56 C                    -0.338457
     57 H                     0.195793
     58 C                     0.058716
     59 C                    -0.709456
     60 H                     0.225897
     61 H                     0.228564
     62 H                     0.230168
     63 C                    -0.760907
     64 H                     0.233931
     65 H                     0.243436
     66 H                     0.244619
     67 C                    -0.756592
     68 H                     0.232976
     69 H                     0.243329
     70 H                     0.243890
     71 C                    -0.228033
     72 C                     0.059408
     73 C                    -0.344298
     74 H                     0.196018
     75 C                     0.130852
     76 C                    -0.337106
     77 H                     0.196142
     78 C                     0.065887
     79 C                    -0.709351
     80 H                     0.225720
     81 H                     0.228450
     82 H                     0.230898
     83 C                    -0.757047
     84 H                     0.233342
     85 H                     0.243982
     86 H                     0.241783
     87 C                    -0.758176
     88 H                     0.233463
     89 H                     0.244080
     90 H                     0.244826
  ----------------------------------------
  Sum of atomic charges =    -0.000000

                    Cartesian Multipole Moments
 -----------------------------------------------------------------
    Charge (ESU x 10^10)
                -0.0000
    Dipole Moment (Debye)
         X       0.0871      Y      -0.7881      Z       0.0505
       Tot       0.7945
    Quadrupole Moments (Debye-Ang)
        XX    -262.1489     XY      -1.3339     YY    -301.8186
        XZ      -5.5837     YZ       3.7137     ZZ    -254.0209

 Total job time:  6552.05s(wall), 32090.56s(cpu)
        *  Thank you very much for using Q-Chem.  Have a nice day.  *
