 Q-Chem 5.1, Q-Chem, Inc., Pleasanton, CA (2018)
 Q-Chem 5.1.1 for Intel X86 EM64T Linux

User input:
--------------------------------------------------------------
$rem
threads 8
jobtype	opt
method PBEh-3c
basis def2-mSVP
mem_static	1024
mem_total	14000
sym_ignore	true
cis_n_roots             3
cis_singlets            false
cis_triplets		true
rpa                     false
cis_state_deriv         2
state_follow		true
$end

$molecule
read gsopt.mol
$end

--------------------------------------------------------------

   15   -1973.6968027229      8.23e-09  Convergence criterion met
 Total energy in the final basis set =    -1973.6968027229
   12   -1973.7004155727      8.41e-09  Convergence criterion met
 Total energy in the final basis set =    -1973.7004155727
   12   -1973.6979144367      7.57e-09  Convergence criterion met
 Total energy in the final basis set =    -1973.6979144367
   12   -1973.6835418615      9.37e-09  Convergence criterion met
 Total energy in the final basis set =    -1973.6835418615
   12   -1973.6940110788      7.03e-09  Convergence criterion met
 Total energy in the final basis set =    -1973.6940110788
   10   -1973.6945945995      9.14e-09  Convergence criterion met
 Total energy in the final basis set =    -1973.6945945995
   12   -1973.6946912545      5.09e-09  Convergence criterion met
 Total energy in the final basis set =    -1973.6946912545
   12   -1973.6888674146      8.86e-09  Convergence criterion met
   12   -1973.6975430505      6.14e-09  Convergence criterion met
 Total energy in the final basis set =    -1973.6975430505
   11   -1973.6976988981      6.14e-09  Convergence criterion met
 Total energy in the final basis set =    -1973.6976988981
   10   -1973.6978737419      6.07e-09  Convergence criterion met
 Total energy in the final basis set =    -1973.6978737419
    9   -1973.6977239232      6.52e-09  Convergence criterion met
 Total energy in the final basis set =    -1973.6977239232
    9   -1973.6976961085      6.63e-09  Convergence criterion met
 Total energy in the final basis set =    -1973.6976961085
    8   -1973.6977128016      8.53e-09  Convergence criterion met
 Total energy in the final basis set =    -1973.6977128016

             Standard Nuclear Orientation (Angstroms)
    I     Atom           X                Y                Z
 ----------------------------------------------------------------
    1      C       0.0022529698    -0.2491995988     0.0619321640
    2      C       0.0069927185    -0.2021963185     1.4656920511
    3      H       0.9546255206    -0.2388131624     1.9916890217
    4      C      -1.1744047282    -0.1147805414     2.1593365875
    5      C      -1.4753063402    -0.0587392907     3.5766274713
    6      C      -0.7344883422    -0.0689703248     4.7342190602
    7      H       0.3460762658    -0.1285548709     4.7189162011
    8      C      -1.4169738792    -0.0004456575     5.9668546311
    9      H      -0.8353781052    -0.0089784459     6.8793237661
   10      C      -2.7896639337     0.0761003859     6.0546174323
   11      H      -3.2647582422     0.1263764328     7.0264223751
   12      C      -2.8812921383     0.0200058158     3.6785447155
   13      C      -3.5787413398     0.0881255445     4.8796774351
   14      C      -4.9895491336     0.1600439404     4.7773152620
   15      H      -5.5944100030     0.2149592120     5.6738596028
   16      C      -5.6003433132     0.1604799684     3.5412979491
   17      H      -6.6800153548     0.2164313862     3.4918825752
   18      C      -4.8733090164     0.0906494770     2.3370486982
   19      H      -5.3963850423     0.0938726298     1.3892157678
   20      C      -3.5003543780     0.0186632282     2.4069564446
   21      C      -2.4365798971    -0.0677477400     1.4355960738
   22      C      -2.4576543080    -0.1107853349     0.0590887360
   23      H      -3.4000985408    -0.0756376963    -0.4771236651
   24      C      -1.2622033678    -0.2011568861    -0.6625153004
   25      B       1.3280869109    -0.3584662290    -0.6997755697
   26      C       1.3042407397    -0.3910813496    -2.2322105655
   27      C       2.5145758638    -0.4660377767    -2.9399287358
   28      H       3.4484295470    -0.5013817728    -2.3902001667
   29      C       2.5122015802    -0.4948439344    -4.3115136561
   30      C       3.5837585015    -0.5648368470    -5.2875631239
   31      C       4.9554274517    -0.6275860798    -5.2320377098
   32      H       5.4883297274    -0.6340791388    -4.2900409957
   33      C       5.6745082191    -0.6846595582    -6.4445689316
   34      H       6.7546575115    -0.7334773084    -6.4020323981
   35      C       5.0576229877    -0.6811756509    -7.6761433262
   36      H       5.6555439615    -0.7267503832    -8.5779205014
   37      C       2.9623050231    -0.5626456364    -6.5549105045
   38      C       3.6468283853    -0.6187962379    -7.7652137992
   39      C       2.8495217426    -0.6074034696    -8.9356115667
   40      H       3.3193245930    -0.6489075212    -9.9105405448
   41      C       1.4764543785    -0.5433400488    -8.8412479352
   42      H       0.8889537825    -0.5355192777    -9.7501656047
   43      C       0.8043896833    -0.4874505179    -7.6034341196
   44      H      -0.2768523949    -0.4382597321    -7.5795303767
   45      C       1.5548831964    -0.4971803422    -6.4502499634
   46      C       1.2544959911    -0.4538156030    -5.0361277773
   47      C       0.0595137615    -0.3846830198    -4.3582194124
   48      H      -0.8787123812    -0.3572723292    -4.9022933996
   49      C       0.0450088097    -0.3466457156    -2.9576589274
   50      B      -1.2902119183    -0.2542587959    -2.2001450783
   51      C      -2.6536029129    -0.2153238782    -2.9918081272
   52      C      -3.2068165531     1.0008953693    -3.4059690799
   53      C      -4.3995006034     1.0163033747    -4.1228692780
   54      H      -4.8148604979     1.9682260307    -4.4371404508
   55      C      -5.0682247269    -0.1556540685    -4.4452705197
   56      C      -4.5118147423    -1.3602211518    -4.0309383913
   57      H      -5.0181669967    -2.2895228011    -4.2731878987
   58      C      -3.3232479674    -1.4043409865    -3.3150384559
   59      C      -6.3539508771    -0.1367485796    -5.2206747496
   60      H      -6.6751665525     0.8805697443    -5.4416047006
   61      H      -7.1598290739    -0.6235074327    -4.6687847916
   62      H      -6.2537391856    -0.6632674752    -6.1715289187
   63      C      -2.5079887043     2.2920106309    -3.0845669944
   64      H      -3.0687896640     3.1550472715    -3.4431049324
   65      H      -1.5160884117     2.3321564705    -3.5401828706
   66      H      -2.3669384324     2.4144490168    -2.0087227105
   67      C      -2.7484666898    -2.7281417244    -2.8938519771
   68      H      -3.3894464040    -3.5587624713    -3.1892707983
   69      H      -2.6174221196    -2.7816511945    -1.8111124027
   70      H      -1.7659263025    -2.8959314470    -3.3403254006
   71      C       2.6955921239    -0.4488815033     0.0699830794
   72      C       3.2226467706    -1.6945628534     0.4224062059
   73      C       4.4368132554    -1.7667848358     1.0973993228
   74      H       4.8355681787    -2.7396420793     1.3660086878
   75      C       5.1485666069    -0.6241014971     1.4336029820
   76      C       4.6183775664     0.6101184722     1.0734250250
   77      H       5.1627750877     1.5152442201     1.3238708192
   78      C       3.4085113044     0.7104031719     0.3997758187
   79      C       6.4506220345    -0.7098742842     2.1759600280
   80      H       6.7920395473    -1.7404773560     2.2682398877
   81      H       7.2370054338    -0.1455951371     1.6727010587
   82      H       6.3598823520    -0.3042487650     3.1853418960
   83      C       2.8575232583     2.0555411228     0.0158817076
   84      H       3.5112089581     2.8673348173     0.3342196565
   85      H       2.7293865105     2.1393557220    -1.0657462147
   86      H       1.8757089217     2.2273554140     0.4625326533
   87      C       2.4781654546    -2.9518899716     0.0653062575
   88      H       3.0007429403    -3.8437257382     0.4109252888
   89      H       2.3471722358    -3.0461634166    -1.0151202218
   90      H       1.4786607078    -2.9652161043     0.5056215609
 ----------------------------------------------------------------

    9   -1973.6977263687      6.71e-09  Convergence criterion met
 Total energy in the final basis set =    -1973.6977263687

         TDDFT/TDA Excitation Energies
 ---------------------------------------------------

 Excited state   1: excitation energy (eV) =    1.9836
 Total energy for state  1:                 -1973.62482955 au
    Multiplicity: Triplet
    Trans. Mom.:  0.0000 X   0.0000 Y   0.0000 Z
    Strength   :     0.0000000000
    D(167) --> V(  2) amplitude =  0.2582
    D(174) --> V(  1) amplitude =  0.9235

 Excited state   2: excitation energy (eV) =    2.3737
 Total energy for state  2:                 -1973.61049436 au
    Multiplicity: Triplet
    Trans. Mom.:  0.0000 X   0.0000 Y   0.0000 Z
    Strength   :     0.0000000000
    D(171) --> V(  2) amplitude =  0.4827
    D(173) --> V(  1) amplitude =  0.7991

 Excited state   3: excitation energy (eV) =    2.4309
 Total energy for state  3:                 -1973.60839169 au
    Multiplicity: Triplet
    Trans. Mom.:  0.0000 X   0.0000 Y   0.0000 Z
    Strength   :     0.0000000000
    D(171) --> V(  1) amplitude =  0.7057
    D(173) --> V(  2) amplitude =  0.5135
    D(174) --> V(  2) amplitude = -0.2340

 ---------------------------------------------------

 Final energy is   -1973.62482955378
 **  OPTIMIZATION CONVERGED  **

                    Orbital Energies (a.u.)
 --------------------------------------------------------------

 Alpha MOs
 -- Occupied --
-10.465 -10.464 -10.464 -10.464 -10.464 -10.463 -10.462 -10.462
-10.462 -10.462 -10.462 -10.461 -10.461 -10.461 -10.460 -10.459
-10.459 -10.459 -10.459 -10.459 -10.459 -10.459 -10.450 -10.450
-10.450 -10.450 -10.446 -10.446 -10.445 -10.445 -10.445 -10.444
-10.444 -10.444 -10.433 -10.432 -10.432 -10.431 -10.428 -10.428
-10.428 -10.428 -10.428 -10.427 -10.423 -10.423 -10.423 -10.422
-10.416 -10.414  -6.941  -6.938  -1.012  -1.012  -0.957  -0.954
 -0.953  -0.951  -0.933  -0.932  -0.903  -0.894  -0.870  -0.866
 -0.865  -0.865  -0.855  -0.854  -0.847  -0.846  -0.815  -0.812
 -0.811  -0.795  -0.778  -0.778  -0.756  -0.754  -0.754  -0.754
 -0.731  -0.729  -0.728  -0.717  -0.687  -0.681  -0.676  -0.665
 -0.647  -0.640  -0.636  -0.636  -0.636  -0.634  -0.596  -0.592
 -0.588  -0.588  -0.582  -0.575  -0.573  -0.549  -0.544  -0.541
 -0.538  -0.537  -0.526  -0.526  -0.519  -0.507  -0.500  -0.498
 -0.493  -0.492  -0.491  -0.485  -0.481  -0.481  -0.479  -0.478
 -0.478  -0.477  -0.474  -0.466  -0.464  -0.463  -0.462  -0.461
 -0.461  -0.459  -0.453  -0.453  -0.448  -0.447  -0.444  -0.443
 -0.442  -0.437  -0.432  -0.426  -0.423  -0.418  -0.414  -0.410
 -0.409  -0.399  -0.398  -0.394  -0.394  -0.393  -0.389  -0.385
 -0.379  -0.377  -0.376  -0.376  -0.373  -0.363  -0.351  -0.346
 -0.345  -0.331  -0.320  -0.314  -0.295  -0.294  -0.274  -0.269
 -0.269  -0.262  -0.260  -0.259  -0.253  -0.246

          Ground-State Mulliken Net Atomic Charges

     Atom                 Charge (a.u.)
  ----------------------------------------
      1 C                    -0.155294
      2 C                    -0.386005
      3 H                     0.235506
      4 C                     0.092515
      5 C                     0.205213
      6 C                    -0.376188
      7 H                     0.222175
      8 C                    -0.204525
      9 H                     0.226563
     10 C                    -0.333706
     11 H                     0.220531
     12 C                    -0.072124
     13 C                     0.250943
     14 C                    -0.332473
     15 H                     0.220325
     16 C                    -0.205294
     17 H                     0.226662
     18 C                    -0.370166
     19 H                     0.222117
     20 C                     0.197525
     21 C                     0.087173
     22 C                    -0.384016
     23 H                     0.233758
     24 C                    -0.153697
     25 B                     0.689609
     26 C                    -0.155097
     27 C                    -0.385597
     28 H                     0.237162
     29 C                     0.093365
     30 C                     0.205901
     31 C                    -0.377580
     32 H                     0.222358
     33 C                    -0.204254
     34 H                     0.226390
     35 C                    -0.334006
     36 H                     0.220384
     37 C                    -0.072065
     38 C                     0.249664
     39 C                    -0.331624
     40 H                     0.220153
     41 C                    -0.205539
     42 H                     0.226597
     43 C                    -0.371360
     44 H                     0.221853
     45 C                     0.198477
     46 C                     0.087796
     47 C                    -0.384658
     48 H                     0.234780
     49 C                    -0.153384
     50 B                     0.693309
     51 C                    -0.223134
     52 C                     0.060548
     53 C                    -0.342974
     54 H                     0.195929
     55 C                     0.130688
     56 C                    -0.337653
     57 H                     0.196257
     58 C                     0.060070
     59 C                    -0.709734
     60 H                     0.225827
     61 H                     0.229534
     62 H                     0.229921
     63 C                    -0.757886
     64 H                     0.233449
     65 H                     0.243367
     66 H                     0.243435
     67 C                    -0.757709
     68 H                     0.233397
     69 H                     0.243623
     70 H                     0.243275
     71 C                    -0.226731
     72 C                     0.063727
     73 C                    -0.345493
     74 H                     0.195819
     75 C                     0.130569
     76 C                    -0.339032
     77 H                     0.195894
     78 C                     0.065023
     79 C                    -0.709133
     80 H                     0.225663
     81 H                     0.228017
     82 H                     0.230769
     83 C                    -0.757976
     84 H                     0.233145
     85 H                     0.243675
     86 H                     0.243648
     87 C                    -0.760287
     88 H                     0.233699
     89 H                     0.244433
     90 H                     0.244192
  ----------------------------------------
  Sum of atomic charges =    -0.000000

                    Cartesian Multipole Moments
 -----------------------------------------------------------------
    Charge (ESU x 10^10)
                -0.0000
    Dipole Moment (Debye)
         X      -0.0434      Y       0.0014      Z      -0.0018
       Tot       0.0435
    Quadrupole Moments (Debye-Ang)
        XX    -261.2963     XY      -1.6779     YY    -303.1668
        XZ      -6.2947     YZ       1.8132     ZZ    -253.1168

 Total job time:  58373.61s(wall), 438352.12s(cpu)
        *  Thank you very much for using Q-Chem.  Have a nice day.  *
