 Q-Chem 5.0, Q-Chem, Inc., Pleasanton, CA (2017)
 Q-Chem 5.0.1 for Intel X86 EM64T Linux

User input:
--------------------------------------------------------------
$rem
threads 4
jobtype	opt
method PBEh-3c
basis def2-mSVP
mem_static	1024
mem_total	6000
sym_ignore	true
cis_n_roots             6
cis_singlets            false
cis_triplets		true
rpa                     false
cis_state_deriv         5
state_follow		true
$end

$molecule
read s2opt.mol
$end

--------------------------------------------------------------

   15   -1973.6945434160      6.84E-09 Convergence criterion met
 Total energy in the final basis set = -1973.69454342
   12   -1973.6964309341      8.73E-09 Convergence criterion met
 Total energy in the final basis set = -1973.69643093
   12   -1973.6967973790      5.75E-09 Convergence criterion met
 Total energy in the final basis set = -1973.69679738
   10   -1973.6970091815      9.84E-09 Convergence criterion met
 Total energy in the final basis set = -1973.69700918
   10   -1973.6971106791      7.23E-09 Convergence criterion met
 Total energy in the final basis set = -1973.69711068
    9   -1973.6971399223      8.17E-09 Convergence criterion met
 Total energy in the final basis set = -1973.69713992

             Standard Nuclear Orientation (Angstroms)
    I     Atom           X                Y                Z
 ----------------------------------------------------------------
    1      C       0.0445744687    -0.2075059517     0.0699907772
    2      C       0.0318088043    -0.1724718584     1.4791236976
    3      H       0.9779078293    -0.1935240075     2.0102962185
    4      C      -1.1556135932    -0.1150816124     2.1746945873
    5      C      -2.3868466090    -0.0889727486     1.4579223894
    6      C      -2.4006146231    -0.1218950167     0.0886569184
    7      H      -3.3529445293    -0.1030522007    -0.4332687789
    8      C      -1.1926396401    -0.1823859332    -0.6366952594
    9      C      -1.4757281946    -0.0764862461     3.6015377734
   10      C      -0.7569575734    -0.0801587615     4.7693355109
   11      H       0.3250463364    -0.1165551747     4.7728601694
   12      C      -2.8834172968    -0.0279889760     3.6927969236
   13      C      -3.6014902468     0.0161492677     4.8834041306
   14      C      -3.4817822898    -0.0323702892     2.4186729673
   15      C      -4.8498863570     0.0111808685     2.3279271630
   16      H      -5.3604679693     0.0106390923     1.3723698456
   17      C      -1.4591799875    -0.0358361866     5.9967542103
   18      H      -0.8869463959    -0.0395240302     6.9154626210
   19      C      -2.8317393199     0.0111294336     6.0707058185
   20      H      -3.3214538361     0.0435391932     7.0360877940
   21      C      -5.0120455789     0.0596309896     4.7643026901
   22      H      -5.6294908914     0.0948692628     5.6535291285
   23      C      -5.6031260702     0.0569450286     3.5218673236
   24      H      -6.6831427591     0.0908575979     3.4535984402
   25      B      -1.1919281743    -0.2282173633    -2.1641084329
   26      C       0.1205299297    -0.2926617905    -2.9434418231
   27      C       0.1306278133    -0.3291631109    -4.3531878477
   28      H      -0.8011143777    -0.3165443114    -4.9110234970
   29      C       1.3153517152    -0.3813756238    -5.0372366715
   30      C       2.5571307059    -0.4031351632    -4.3396754549
   31      C       2.5614928594    -0.3716906960    -2.9637441412
   32      H       3.4995480085    -0.3905063306    -2.4190145604
   33      C       1.3556621817    -0.3153495569    -2.2366258454
   34      C       3.6249508561    -0.4597372141    -5.3390325489
   35      C       4.9958178412    -0.5018221646    -5.3130565807
   36      H       5.5488442180    -0.4982472221    -4.3823889360
   37      C       2.9889299908    -0.4689569502    -6.5989176076
   38      C       3.6518704376    -0.5170030686    -7.8225208645
   39      C       1.5879278670    -0.4228767314    -6.4705729306
   40      C       0.8198517237    -0.4247295608    -7.6080015819
   41      H      -0.2622222632    -0.3902364285    -7.5682545431
   42      C       5.6972951963    -0.5508912411    -6.5409458562
   43      H       6.7788464987    -0.5835883629    -6.5133015626
   44      C       5.0646555064    -0.5589487198    -7.7619267923
   45      H       5.6469215136    -0.5975216074    -8.6744187730
   46      C       1.4678882469    -0.4730295109    -8.8625686612
   47      H       0.8621789920    -0.4742738675    -9.7600323828
   48      C       2.8373869957    -0.5181893511    -8.9810017048
   49      H       3.2927010975    -0.5541720110    -9.9632761391
   50      B       1.3770135695    -0.2821296056    -0.6981175369
   51      C      -2.5400336913    -0.2181161919    -2.9510117834
   52      C      -3.1924767055    -1.4523296313    -3.2972106414
   53      C      -4.3499386183    -1.4222971616    -4.0257491079
   54      H      -4.8443677215    -2.3477706105    -4.2963777542
   55      C      -4.9252599310    -0.2019115769    -4.4411443332
   56      C      -4.3005147452     1.0078087643    -4.1012180832
   57      H      -4.7495944221     1.9384204678    -4.4248218743
   58      C      -3.1377396875     1.0233839064    -3.3724939860
   59      C      -6.1801710303    -0.2202194653    -5.2361700648
   60      H      -6.5543123815     0.7782586144    -5.4479453537
   61      H      -6.9594345706    -0.7794833448    -4.7139631824
   62      H      -6.0186873835    -0.7340544716    -6.1873508801
   63      C      -2.4640573065     2.3006466425    -3.0127896275
   64      H      -3.0199956858     3.1671838743    -3.3660530960
   65      H      -1.4590049826     2.3325574253    -3.4377376807
   66      H      -2.3403389705     2.3782174272    -1.9315307141
   67      C      -2.5788372711    -2.7393805283    -2.8622535138
   68      H      -3.1823189349    -3.5958836068    -3.1581217327
   69      H      -2.4510910384    -2.7581253574    -1.7792668038
   70      H      -1.5821107868    -2.8509489539    -3.2921588775
   71      C       2.7442017363    -0.3373939414     0.0749622074
   72      C       3.3026655491    -1.5683719983     0.4370433477
   73      C       4.5085257183    -1.6070363963     1.1280918966
   74      H       4.9301445635    -2.5681496321     1.4043496151
   75      C       5.1842077841    -0.4444485113     1.4727273375
   76      C       4.6259697811     0.7751561895     1.1028517229
   77      H       5.1423860782     1.6948784070     1.3596039769
   78      C       3.4236948285     0.8412213284     0.4131185036
   79      C       6.4763598218    -0.4939829223     2.2347453561
   80      H       6.8471998748    -1.5142842643     2.3289023586
   81      H       7.2531885984     0.0959942487     1.7459901129
   82      H       6.3578701841    -0.0949211629     3.2441350007
   83      C       2.8395712193     2.1692927428     0.0214888411
   84      H       3.4727855728     2.9994212943     0.3348042246
   85      H       2.7080688072     2.2391892484    -1.0604886847
   86      H       1.8533186269     2.3148979221     0.4674866061
   87      C       2.5941580261    -2.8442369007     0.0754888853
   88      H       3.1408778719    -3.7226228929     0.4190656785
   89      H       2.4656807682    -2.9343159989    -1.0053421443
   90      H       1.5949218972    -2.8817563355     0.5148990881
 ----------------------------------------------------------------

    9   -1973.6971311593      6.88E-09 Convergence criterion met
 Total energy in the final basis set = -1973.69713116

         TDDFT/TDA Excitation Energies
 ---------------------------------------------------

 Excited state   1: excitation energy (eV) =    2.2175
 Total energy for state  1:                 -1973.61564041 au
    Multiplicity: Triplet
    Trans. Mom.:  0.0000 X   0.0000 Y   0.0000 Z
    Strength   :     0.0000000000
    D(167) --> V(  2) amplitude = -0.2509
    D(172) --> V(  1) amplitude =  0.8989

 Excited state   2: excitation energy (eV) =    2.4414
 Total energy for state  2:                 -1973.60740959 au
    Multiplicity: Triplet
    Trans. Mom.:  0.0000 X   0.0000 Y   0.0000 Z
    Strength   :     0.0000000000
    D(171) --> V(  2) amplitude = -0.4833
    D(173) --> V(  1) amplitude =  0.7830

 Excited state   3: excitation energy (eV) =    2.5014
 Total energy for state  3:                 -1973.60520665 au
    Multiplicity: Triplet
    Trans. Mom.:  0.0000 X   0.0000 Y   0.0000 Z
    Strength   :     0.0000000000
    D(171) --> V(  1) amplitude =  0.7342
    D(171) --> V(  4) amplitude = -0.2379
    D(173) --> V(  2) amplitude = -0.5458

 Excited state   4: excitation energy (eV) =    2.7158
 Total energy for state  4:                 -1973.59732669 au
    Multiplicity: Triplet
    Trans. Mom.:  0.0000 X   0.0000 Y   0.0000 Z
    Strength   :     0.0000000000
    D(167) --> V(  1) amplitude =  0.7125
    D(172) --> V(  2) amplitude = -0.5533

 Excited state   5: excitation energy (eV) =    2.8051
 Total energy for state  5:                 -1973.59404626 au
    Multiplicity: Triplet
    Trans. Mom.:  0.0000 X   0.0000 Y   0.0000 Z
    Strength   :     0.0000000000
    D(174) --> V(  1) amplitude =  0.9521

 Excited state   6: excitation energy (eV) =    3.1390
 Total energy for state  6:                 -1973.58177529 au
    Multiplicity: Triplet
    Trans. Mom.:  0.0000 X   0.0000 Y   0.0000 Z
    Strength   :     0.0000000000
    D(170) --> V(  1) amplitude =  0.9477

 ---------------------------------------------------

 Final energy is   -1973.59404626002
 **  OPTIMIZATION CONVERGED  **

                    Orbital Energies (a.u.)
 --------------------------------------------------------------

 Alpha MOs
 -- Occupied --
-10.464 -10.464 -10.464 -10.463 -10.463 -10.463 -10.462 -10.462
-10.461 -10.461 -10.461 -10.461 -10.461 -10.461 -10.460 -10.459
-10.459 -10.459 -10.459 -10.459 -10.458 -10.458 -10.452 -10.451
-10.451 -10.450 -10.446 -10.446 -10.446 -10.446 -10.446 -10.446
-10.445 -10.445 -10.432 -10.431 -10.431 -10.430 -10.428 -10.428
-10.428 -10.428 -10.427 -10.426 -10.424 -10.423 -10.422 -10.422
-10.419 -10.415  -6.942  -6.937  -1.014  -1.013  -0.960  -0.956
 -0.953  -0.947  -0.932  -0.932  -0.906  -0.897  -0.869  -0.869
 -0.865  -0.865  -0.853  -0.852  -0.846  -0.845  -0.821  -0.812
 -0.810  -0.802  -0.778  -0.778  -0.757  -0.756  -0.755  -0.749
 -0.733  -0.726  -0.725  -0.719  -0.688  -0.680  -0.678  -0.664
 -0.649  -0.644  -0.638  -0.636  -0.634  -0.630  -0.594  -0.591
 -0.589  -0.588  -0.582  -0.574  -0.574  -0.550  -0.544  -0.542
 -0.538  -0.537  -0.526  -0.526  -0.518  -0.506  -0.502  -0.495
 -0.494  -0.493  -0.489  -0.485  -0.482  -0.482  -0.479  -0.478
 -0.478  -0.477  -0.474  -0.466  -0.466  -0.464  -0.462  -0.462
 -0.461  -0.458  -0.457  -0.454  -0.451  -0.448  -0.447  -0.444
 -0.442  -0.441  -0.430  -0.428  -0.425  -0.420  -0.412  -0.410
 -0.409  -0.401  -0.397  -0.394  -0.393  -0.392  -0.390  -0.387
 -0.378  -0.377  -0.377  -0.373  -0.372  -0.364  -0.352  -0.348
 -0.346  -0.333  -0.318  -0.312  -0.294  -0.293  -0.279  -0.272
 -0.269  -0.261  -0.260  -0.253  -0.253  -0.249

          Ground-State Mulliken Net Atomic Charges

     Atom                 Charge (a.u.)
  ----------------------------------------
      1 C                    -0.150009
      2 C                    -0.400977
      3 H                     0.234121
      4 C                     0.119771
      5 C                     0.089542
      6 C                    -0.386937
      7 H                     0.233002
      8 C                    -0.152739
      9 C                     0.196745
     10 C                    -0.384565
     11 H                     0.221315
     12 C                    -0.065760
     13 C                     0.251666
     14 C                     0.199279
     15 C                    -0.375998
     16 H                     0.221181
     17 C                    -0.203008
     18 H                     0.225995
     19 C                    -0.335713
     20 H                     0.220550
     21 C                    -0.332006
     22 H                     0.220062
     23 C                    -0.205591
     24 H                     0.226674
     25 B                     0.686162
     26 C                    -0.151860
     27 C                    -0.385335
     28 H                     0.234783
     29 C                     0.089007
     30 C                     0.118952
     31 C                    -0.401287
     32 H                     0.234841
     33 C                    -0.150095
     34 C                     0.198742
     35 C                    -0.385209
     36 H                     0.221474
     37 C                    -0.066848
     38 C                     0.250047
     39 C                     0.200162
     40 C                    -0.376768
     41 H                     0.221137
     42 C                    -0.203004
     43 H                     0.225900
     44 C                    -0.335295
     45 H                     0.220527
     46 C                    -0.205225
     47 H                     0.226578
     48 C                    -0.331179
     49 H                     0.219974
     50 B                     0.698935
     51 C                    -0.247517
     52 C                     0.074562
     53 C                    -0.335602
     54 H                     0.195967
     55 C                     0.117919
     56 C                    -0.339693
     57 H                     0.196413
     58 C                     0.072801
     59 C                    -0.710030
     60 H                     0.226220
     61 H                     0.228570
     62 H                     0.228953
     63 C                    -0.757177
     64 H                     0.232954
     65 H                     0.244625
     66 H                     0.244793
     67 C                    -0.756922
     68 H                     0.232950
     69 H                     0.245046
     70 H                     0.244771
     71 C                    -0.223444
     72 C                     0.060962
     73 C                    -0.344832
     74 H                     0.196005
     75 C                     0.129914
     76 C                    -0.338905
     77 H                     0.196131
     78 C                     0.063059
     79 C                    -0.709142
     80 H                     0.225718
     81 H                     0.228210
     82 H                     0.230917
     83 C                    -0.758868
     84 H                     0.233782
     85 H                     0.243673
     86 H                     0.243570
     87 C                    -0.760356
     88 H                     0.234214
     89 H                     0.244208
     90 H                     0.243867
  ----------------------------------------
  Sum of atomic charges =    -0.000000

                    Cartesian Multipole Moments
 -----------------------------------------------------------------
    Charge (ESU x 10^10)
                -0.0000
    Dipole Moment (Debye)
         X       0.0176      Y      -0.0323      Z       0.0090
       Tot       0.0378
    Quadrupole Moments (Debye-Ang)
        XX    -262.5181     XY      -0.9015     YY    -302.9503
        XZ      -6.1627     YZ       1.5906     ZZ    -253.8678

 Total job time:  35992.16s(wall), 132517.37s(cpu)
        *  Thank you very much for using Q-Chem.  Have a nice day.  *
