 Q-Chem 5.1, Q-Chem, Inc., Pleasanton, CA (2018)
 Q-Chem 5.1.1 for Intel X86 EM64T Linux

User input:
--------------------------------------------------------------
$rem
threads 8
jobtype	sp
method PBEh-3c
basis def2-mSVP
mem_static	1024
mem_total	8000
sym_ignore	true
unrestricted true
scf_convergence	9
solvent_method	pcm
$end

$molecule
read incoords.mol
$end

$solvent
dielectric	2.38
$end

$pcm
theory iefpcm
$end
--------------------------------------------------------------

   16   -1973.7071506932      5.89e-10  Convergence criterion met
 Total energy in the final basis set =    -1973.7071506932
 Total job time:  1912.60s(wall), 14055.94s(cpu)
        *  Thank you very much for using Q-Chem.  Have a nice day.  *
 Q-Chem 5.1, Q-Chem, Inc., Pleasanton, CA (2018)
 Q-Chem 5.1.1 for Intel X86 EM64T Linux

User input:
--------------------------------------------------------------

$rem
threads 8
jobtype opt
method PBEh-3c
basis def2-mSVP
scf_guess	read
mem_static      1024
mem_total       8000
sym_ignore      true
unrestricted true
mom_start       1
scf_algorithm	diis
scf_max_cycles	250
solvent_method	pcm
geom_opt_tol_energy 25
geom_opt_tol_gradient 75
$end

$solvent
dielectric      2.38
$end

$pcm
theory iefpcm
$end

$occupied
1 2 3 4 5 6 7 8 9 10 11 12 13 14 15 16 17 18 19 20 21 22 23 24 25 26 27 28 29 30 31 32 33 34 35 36 37 38 39 40 41 42 43 44 45 46 47 48 49 50 51 52 53 54 55 56 57 58 59 60 61 62 63 64 65 66 67 68 69 70 71 72 73 74 75 76 77 78 79 80 81 82 83 84 85 86 87 88 89 90 91 92 93 94 95 96 97 98 99 100 101 102 103 104 105 106 107 108 109 110 111 112 113 114 115 116 117 118 119 120 121 122 123 124 125 126 127 128 129 130 131 132 133 134 135 136 137 138 139 140 141 142 143 144 145 146 147 148 149 150 151 152 153 154 155 156 157 158 159 160 161 162 163 164 165 166 167 168 169 170 171 172 173  175
1 2 3 4 5 6 7 8 9 10 11 12 13 14 15 16 17 18 19 20 21 22 23 24 25 26 27 28 29 30 31 32 33 34 35 36 37 38 39 40 41 42 43 44 45 46 47 48 49 50 51 52 53 54 55 56 57 58 59 60 61 62 63 64 65 66 67 68 69 70 71 72 73 74 75 76 77 78 79 80 81 82 83 84 85 86 87 88 89 90 91 92 93 94 95 96 97 98 99 100 101 102 103 104 105 106 107 108 109 110 111 112 113 114 115 116 117 118 119 120 121 122 123 124 125 126 127 128 129 130 131 132 133 134 135 136 137 138 139 140 141 142 143 144 145 146 147 148 149 150 151 152 153 154 155 156 157 158 159 160 161 162 163 164 165 166 167 168 169 170 171 172 173 174
$end

$molecule
read
$end

--------------------------------------------------------------

   22   -1973.6108640899      7.18E-09 Convergence criterion met
 Total energy in the final basis set = -1973.61086409
   18   -1973.6110807336      7.78E-09 Convergence criterion met
 Total energy in the final basis set = -1973.61108073
   17   -1973.6109793513      8.73E-09 Convergence criterion met
 Total energy in the final basis set = -1973.61097935
   17   -1973.6109563430      8.41E-09 Convergence criterion met
 Total energy in the final basis set = -1973.61095634
   17   -1973.6109577549      8.44E-09 Convergence criterion met
 Total energy in the final basis set = -1973.61095775
   17   -1973.6109657391      8.49E-09 Convergence criterion met
 Total energy in the final basis set = -1973.61096574
   17   -1973.6109696845      8.60E-09 Convergence criterion met
 Total energy in the final basis set = -1973.61096968
   17   -1973.6109707416      8.66E-09 Convergence criterion met
 Total energy in the final basis set = -1973.61097074

             Standard Nuclear Orientation (Angstroms)
    I     Atom           X                Y                Z
 ----------------------------------------------------------------
    1      C       0.0370948565    -0.0065090809     0.0662032038
    2      C       0.0310076824    -0.0029943808     1.4833735074
    3      H       0.9703800056     0.0025738325     2.0302351596
    4      C      -1.1542151690    -0.0035752969     2.1774565966
    5      C      -2.3885104997    -0.0094054077     1.4625355113
    6      C      -2.4025639113    -0.0135397113     0.0892596133
    7      H      -3.3474458183    -0.0180028077    -0.4448458612
    8      C      -1.2035717599    -0.0118514512    -0.6426416398
    9      C      -1.4735747440     0.0005949044     3.6090857813
   10      C      -0.7533667892     0.0072256520     4.7763785666
   11      H       0.3297124076     0.0108917285     4.7807771804
   12      C      -2.8816083900    -0.0035492971     3.7001855745
   13      C      -3.6000927271    -0.0015987122     4.8919132519
   14      C      -3.4801524699    -0.0096751960     2.4245740029
   15      C      -4.8500858765    -0.0143550391     2.3346309216
   16      H      -5.3597739617    -0.0191890708     1.3787410666
   17      C      -1.4551119538     0.0094876386     6.0053580246
   18      H      -0.8830985905     0.0148886789     6.9243921743
   19      C      -2.8294895210     0.0052317671     6.0786452317
   20      H      -3.3196202426     0.0072274172     7.0445983167
   21      C      -5.0129105528    -0.0065263940     4.7747477413
   22      H      -5.6304758962    -0.0053455276     5.6646473055
   23      C      -5.6027921535    -0.0127710177     3.5311420604
   24      H      -6.6833612521    -0.0164963506     3.4621658703
   25      B       1.3350355919    -0.0086210351    -0.7380499417
   26      C       1.3375516378     0.0013897253    -2.2663934826
   27      C       2.5417755430     0.0112880980    -3.0128937492
   28      H       3.5005057800     0.0137459252    -2.5008921107
   29      C       2.5125520788     0.0204659982    -4.3851417172
   30      C       1.2582341328     0.0178028890    -5.0642515617
   31      C       0.0811191465     0.0061822999    -4.3582826474
   32      H      -0.8675088995     0.0038801258    -4.8856310474
   33      C       0.0858078625    -0.0022702672    -2.9533352178
   34      C       3.5678699586     0.0336159204    -5.4049775549
   35      C       4.9399349580     0.0422828700    -5.4019014454
   36      H       5.5102377835     0.0399764950    -4.4811401188
   37      C       2.9098957304     0.0378144495    -6.6529731521
   38      C       3.5532131329     0.0500045762    -7.8885350884
   39      C       1.5093974491     0.0285722265    -6.4992772255
   40      C       0.7214112838     0.0313548056    -7.6243153906
   41      H      -0.3601462728     0.0246971200    -7.5645914198
   42      C       5.6224990725     0.0547387349    -6.6418117651
   43      H       6.7050073263     0.0616157169    -6.6336474423
   44      C       4.9674046273     0.0586060951    -7.8520663933
   45      H       5.5343702409     0.0684464829    -8.7751723168
   46      C       1.3509074607     0.0434250476    -8.8904423452
   47      H       0.7287565311     0.0455803598    -9.7766853100
   48      C       2.7192138417     0.0526197113    -9.0348222159
   49      H       3.1585029347     0.0618716434   -10.0250215738
   50      B      -1.2426015677    -0.0162032721    -2.1802837888
   51      C       2.7100002971    -0.0456131290     0.0066322050
   52      C       3.3779968196     1.1770612682     0.3730521520
   53      C       4.5494380286     1.1120902024     1.0703891996
   54      H       5.0591201163     2.0212078047     1.3677927787
   55      C       5.1261696987    -0.1340124067     1.4215297945
   56      C       4.4906300667    -1.3317716212     1.0438772791
   57      H       4.9482449544    -2.2753127179     1.3148428277
   58      C       3.3150969560    -1.3135884207     0.3422101972
   59      C       6.4017990140    -0.1550016405     2.1788681349
   60      H       6.7455181517    -1.1647717170     2.3884642025
   61      H       7.1812361178     0.3708317494     1.6220334438
   62      H       6.2880705572     0.3792676185     3.1253283698
   63      C       2.6308983771    -2.5663813898    -0.0796333565
   64      H       3.1834892839    -3.4529659367     0.2254337482
   65      H       2.5031066033    -2.5867728885    -1.1640206202
   66      H       1.6253524459    -2.6156409754     0.3441721997
   67      C       2.7540016350     2.4733901432    -0.0146415395
   68      H       3.3496221267     3.3235239622     0.3126482204
   69      H       2.6276207602     2.5292757212    -1.0976638046
   70      H       1.7533407700     2.5605549913     0.4137939425
   71      C      -2.6183677748    -0.0382464408    -2.9615114240
   72      C      -3.2530846876     1.1523768439    -3.3338869615
   73      C      -4.4510760967     1.1169822735    -4.0430435451
   74      H      -4.9269957367     2.0510056295    -4.3249577938
   75      C      -5.0494723176    -0.0836130457    -4.3995848778
   76      C      -4.4140182108    -1.2635261192    -4.0285100903
   77      H      -4.8615946665    -2.2151667265    -4.2994926734
   78      C      -3.2184368743    -1.2544853254    -3.3207358526
   79      C      -6.3485228666    -0.1181814709    -5.1529261066
   80      H      -6.6561245276     0.8787243492    -5.4675382873
   81      H      -6.2771734529    -0.7396616475    -6.0471398453
   82      H      -7.1529267804    -0.5312266489    -4.5408222747
   83      C      -2.6353300908     2.4749876436    -2.9763114768
   84      H      -3.2526636758     3.3111680385    -3.3055789144
   85      H      -2.4944728238     2.5693300433    -1.8976992261
   86      H      -1.6503063003     2.5890715489    -3.4340899034
   87      C      -2.5611542347    -2.5539821158    -2.9473037001
   88      H      -3.1512884942    -3.4122191232    -3.2698979710
   89      H      -2.4212972762    -2.6334715901    -1.8673294692
   90      H      -1.5715549431    -2.6427273859    -3.4009189917
 ----------------------------------------------------------------

   17   -1973.6109708789      8.63E-09 Convergence criterion met
 Total energy in the final basis set = -1973.61097088
 Final energy is   -1973.61097087890
 **  OPTIMIZATION CONVERGED  **

                    Orbital Energies (a.u.)
 --------------------------------------------------------------

 Alpha MOs
 -- Occupied --
-10.534 -10.515 -10.510 -10.503 -10.493 -10.490 -10.472 -10.453
-10.452 -10.452 -10.452 -10.451 -10.451 -10.450 -10.449 -10.449
-10.449 -10.448 -10.448 -10.447 -10.447 -10.447 -10.447 -10.446
-10.446 -10.446 -10.445 -10.444 -10.444 -10.442 -10.442 -10.438
-10.438 -10.435 -10.435 -10.434 -10.432 -10.432 -10.432 -10.431
-10.419 -10.419 -10.419 -10.417 -10.417 -10.411 -10.410 -10.408
-10.408 -10.400  -6.912  -6.902  -1.011  -1.000  -1.000  -0.945
 -0.942  -0.940  -0.921  -0.920  -0.920  -0.918  -0.890  -0.882
 -0.856  -0.853  -0.839  -0.839  -0.834  -0.834  -0.823  -0.806
 -0.805  -0.801  -0.797  -0.788  -0.786  -0.767  -0.742  -0.742
 -0.719  -0.715  -0.713  -0.705  -0.692  -0.683  -0.675  -0.665
 -0.663  -0.649  -0.634  -0.630  -0.623  -0.623  -0.603  -0.593
 -0.581  -0.579  -0.575  -0.569  -0.567  -0.560  -0.559  -0.534
 -0.529  -0.528  -0.525  -0.517  -0.514  -0.512  -0.509  -0.509
 -0.495  -0.493  -0.492  -0.489  -0.488  -0.487  -0.481  -0.480
 -0.477  -0.475  -0.472  -0.471  -0.471  -0.467  -0.465  -0.463
 -0.462  -0.452  -0.451  -0.451  -0.449  -0.449  -0.443  -0.441
 -0.435  -0.433  -0.429  -0.426  -0.425  -0.417  -0.417  -0.411
 -0.409  -0.406  -0.398  -0.394  -0.385  -0.384  -0.384  -0.382
 -0.379  -0.375  -0.366  -0.365  -0.361  -0.357  -0.354  -0.336
 -0.329  -0.326  -0.321  -0.310  -0.303  -0.287  -0.285  -0.272
 -0.258  -0.254  -0.248  -0.244  -0.241  -0.155

 Beta MOs
 -- Occupied --
-10.539 -10.516 -10.511 -10.510 -10.492 -10.489 -10.471 -10.453
-10.453 -10.452 -10.452 -10.451 -10.451 -10.450 -10.449 -10.449
-10.449 -10.448 -10.448 -10.447 -10.447 -10.447 -10.446 -10.446
-10.445 -10.445 -10.445 -10.444 -10.444 -10.442 -10.442 -10.437
-10.436 -10.435 -10.435 -10.434 -10.433 -10.432 -10.432 -10.432
-10.421 -10.420 -10.419 -10.417 -10.417 -10.410 -10.410 -10.407
-10.407 -10.401  -6.908  -6.900  -1.021  -1.000  -1.000  -0.944
 -0.941  -0.940  -0.931  -0.923  -0.919  -0.919  -0.890  -0.882
 -0.855  -0.852  -0.839  -0.838  -0.833  -0.833  -0.824  -0.808
 -0.806  -0.801  -0.796  -0.794  -0.785  -0.766  -0.742  -0.741
 -0.718  -0.714  -0.712  -0.705  -0.697  -0.688  -0.674  -0.665
 -0.660  -0.648  -0.634  -0.631  -0.623  -0.623  -0.603  -0.596
 -0.580  -0.578  -0.573  -0.570  -0.568  -0.560  -0.558  -0.536
 -0.534  -0.530  -0.527  -0.525  -0.514  -0.513  -0.509  -0.508
 -0.505  -0.494  -0.493  -0.492  -0.489  -0.487  -0.481  -0.480
 -0.477  -0.475  -0.472  -0.470  -0.469  -0.467  -0.465  -0.463
 -0.463  -0.452  -0.451  -0.450  -0.450  -0.449  -0.442  -0.441
 -0.435  -0.435  -0.432  -0.428  -0.427  -0.424  -0.417  -0.412
 -0.411  -0.406  -0.397  -0.393  -0.385  -0.382  -0.382  -0.382
 -0.378  -0.376  -0.367  -0.363  -0.362  -0.355  -0.350  -0.340
 -0.335  -0.331  -0.320  -0.315  -0.303  -0.299  -0.283  -0.282
 -0.262  -0.258  -0.248  -0.247  -0.241  -0.235

          Ground-State Mulliken Net Atomic Charges

     Atom                 Charge (a.u.)    Spin (a.u.)
  --------------------------------------------------------
      1 C                    -0.133559      -0.051702
      2 C                    -0.411905       0.017474
      3 H                     0.192088      -0.000754
      4 C                     0.089150       0.005159
      5 C                     0.067538       0.117873
      6 C                    -0.399098      -0.076825
      7 H                     0.230592       0.003252
      8 C                    -0.145393       0.085563
      9 C                     0.188685      -0.035276
     10 C                    -0.404361       0.054974
     11 H                     0.216297      -0.003265
     12 C                    -0.074441       0.022792
     13 C                     0.237515      -0.035626
     14 C                     0.186338      -0.063443
     15 C                    -0.394152       0.090183
     16 H                     0.231944      -0.005278
     17 C                    -0.216911      -0.038966
     18 H                     0.231305       0.001960
     19 C                    -0.354161       0.051455
     20 H                     0.229555      -0.002975
     21 C                    -0.351713       0.081425
     22 H                     0.228265      -0.004839
     23 C                    -0.218855      -0.054672
     24 H                     0.235046       0.002631
     25 B                     0.557345       0.407394
     26 C                    -0.135234      -0.056448
     27 C                    -0.412589       0.016543
     28 H                     0.193297      -0.000654
     29 C                     0.088242       0.005603
     30 C                     0.066668       0.116995
     31 C                    -0.398072      -0.076899
     32 H                     0.232044       0.003134
     33 C                    -0.146514       0.085230
     34 C                     0.190579      -0.035211
     35 C                    -0.404983       0.054799
     36 H                     0.216418      -0.003253
     37 C                    -0.075045       0.022631
     38 C                     0.235629      -0.035403
     39 C                     0.187222      -0.062863
     40 C                    -0.394893       0.089392
     41 H                     0.232050      -0.005234
     42 C                    -0.216883      -0.038776
     43 H                     0.231360       0.001949
     44 C                    -0.353484       0.051181
     45 H                     0.229744      -0.002958
     46 C                    -0.218633      -0.054108
     47 H                     0.235205       0.002604
     48 C                    -0.350738       0.080399
     49 H                     0.228470      -0.004775
     50 B                     0.597039       0.252358
     51 C                    -0.112992      -0.523022
     52 C                     0.088171      -0.028572
     53 C                    -0.313727       0.030617
     54 H                     0.259349       0.001019
     55 C                     0.164194      -0.396255
     56 C                    -0.327850       0.081733
     57 H                     0.259973      -0.001412
     58 C                     0.089841      -0.093785
     59 C                    -0.724131       0.029043
     60 H                     0.264073       0.000048
     61 H                     0.275273      -0.021974
     62 H                     0.275304      -0.022221
     63 C                    -0.758507       0.009656
     64 H                     0.254635       0.003059
     65 H                     0.285389      -0.009459
     66 H                     0.286770      -0.010301
     67 C                    -0.755011       0.005000
     68 H                     0.251688       0.003069
     69 H                     0.282022      -0.006055
     70 H                     0.283076      -0.006730
     71 C                    -0.202396      -0.023564
     72 C                     0.047670       0.002377
     73 C                    -0.358573      -0.000204
     74 H                     0.202804       0.000318
     75 C                     0.118977      -0.000588
     76 C                    -0.352447      -0.000266
     77 H                     0.202454       0.000318
     78 C                     0.047363       0.002500
     79 C                    -0.717237       0.000046
     80 H                     0.228974      -0.000004
     81 H                     0.230249      -0.000029
     82 H                     0.232382      -0.000038
     83 C                    -0.757748       0.000572
     84 H                     0.230754       0.001266
     85 H                     0.243472      -0.000733
     86 H                     0.242955      -0.000647
     87 C                    -0.758045       0.000584
     88 H                     0.230837       0.001275
     89 H                     0.243236      -0.000729
     90 H                     0.242763      -0.000663
  --------------------------------------------------------
  Sum of atomic charges =    -0.000000

                    Cartesian Multipole Moments
 -----------------------------------------------------------------
    Charge (ESU x 10^10)
                -0.0000
    Dipole Moment (Debye)
         X      12.9190      Y      -0.2839      Z       7.1770
       Tot      14.7814
    Quadrupole Moments (Debye-Ang)
        XX    -222.4937     XY      -0.2957     YY    -298.0559
        XZ      25.7360     YZ       0.1872     ZZ    -297.7876

 Total job time:  15785.19s(wall), 61785.22s(cpu)
        *  Thank you very much for using Q-Chem.  Have a nice day.  *
