 Q-Chem 5.1, Q-Chem, Inc., Pleasanton, CA (2018)
 Q-Chem 5.1.1 for Intel X86 EM64T Linux

User input:
--------------------------------------------------------------
$rem
threads 8
jobtype	sp
method PBEh-3c
basis def2-mSVP
mem_static	1024
mem_total	8000
sym_ignore	true
unrestricted true
scf_convergence	9
solvent_method	pcm
$end

$molecule
read incoords.mol
$end

$solvent
dielectric	8.93
$end

$pcm
theory iefpcm
$end
--------------------------------------------------------------

   16   -1973.7177790707      4.12e-10  Convergence criterion met
 Total energy in the final basis set =    -1973.7177790707
 Total job time:  1900.63s(wall), 13922.26s(cpu)
        *  Thank you very much for using Q-Chem.  Have a nice day.  *
 Q-Chem 5.1, Q-Chem, Inc., Pleasanton, CA (2018)
 Q-Chem 5.1.1 for Intel X86 EM64T Linux

User input:
--------------------------------------------------------------

$rem
threads 8
jobtype opt
method PBEh-3c
basis def2-mSVP
scf_guess	read
mem_static      1024
mem_total       8000
sym_ignore      true
unrestricted true
mom_start       1
scf_algorithm	diis
scf_max_cycles	250
solvent_method	pcm
geom_opt_tol_energy 25
geom_opt_tol_gradient 75
$end

$solvent
dielectric      8.93
$end
$pcm
theory iefpcm
$end

$occupied
1 2 3 4 5 6 7 8 9 10 11 12 13 14 15 16 17 18 19 20 21 22 23 24 25 26 27 28 29 30 31 32 33 34 35 36 37 38 39 40 41 42 43 44 45 46 47 48 49 50 51 52 53 54 55 56 57 58 59 60 61 62 63 64 65 66 67 68 69 70 71 72 73 74 75 76 77 78 79 80 81 82 83 84 85 86 87 88 89 90 91 92 93 94 95 96 97 98 99 100 101 102 103 104 105 106 107 108 109 110 111 112 113 114 115 116 117 118 119 120 121 122 123 124 125 126 127 128 129 130 131 132 133 134 135 136 137 138 139 140 141 142 143 144 145 146 147 148 149 150 151 152 153 154 155 156 157 158 159 160 161 162 163 164 165 166 167 168 169 170 171 172 173  175
1 2 3 4 5 6 7 8 9 10 11 12 13 14 15 16 17 18 19 20 21 22 23 24 25 26 27 28 29 30 31 32 33 34 35 36 37 38 39 40 41 42 43 44 45 46 47 48 49 50 51 52 53 54 55 56 57 58 59 60 61 62 63 64 65 66 67 68 69 70 71 72 73 74 75 76 77 78 79 80 81 82 83 84 85 86 87 88 89 90 91 92 93 94 95 96 97 98 99 100 101 102 103 104 105 106 107 108 109 110 111 112 113 114 115 116 117 118 119 120 121 122 123 124 125 126 127 128 129 130 131 132 133 134 135 136 137 138 139 140 141 142 143 144 145 146 147 148 149 150 151 152 153 154 155 156 157 158 159 160 161 162 163 164 165 166 167 168 169 170 171 172 173 174
$end

$molecule
read
$end

--------------------------------------------------------------

   21   -1973.6287783857      8.11E-09 Convergence criterion met
 Total energy in the final basis set = -1973.62877839
   19   -1973.6291629251      8.89E-09 Convergence criterion met
 Total energy in the final basis set = -1973.62916293
   19   -1973.6290883407      8.50E-09 Convergence criterion met
 Total energy in the final basis set = -1973.62908834
   19   -1973.6290669162      8.37E-09 Convergence criterion met
 Total energy in the final basis set = -1973.62906692
   19   -1973.6290666416      8.45E-09 Convergence criterion met
 Total energy in the final basis set = -1973.62906664
   19   -1973.6290737457      8.27E-09 Convergence criterion met
 Total energy in the final basis set = -1973.62907375
   19   -1973.6290775194      8.58E-09 Convergence criterion met
 Total energy in the final basis set = -1973.62907752
   19   -1973.6290777804      8.74E-09 Convergence criterion met
 Total energy in the final basis set = -1973.62907778
   19   -1973.6290767931      8.69E-09 Convergence criterion met
 Total energy in the final basis set = -1973.62907679
   19   -1973.6290759379      8.73E-09 Convergence criterion met
 Total energy in the final basis set = -1973.62907594

             Standard Nuclear Orientation (Angstroms)
    I     Atom           X                Y                Z
 ----------------------------------------------------------------
    1      C       0.0358203437    -0.0092064107     0.0641561300
    2      C       0.0302091840    -0.0058400639     1.4811362231
    3      H       0.9692801381    -0.0027426885     2.0277253242
    4      C      -1.1554601632    -0.0042641934     2.1761677877
    5      C      -2.3912199800    -0.0078563166     1.4617165000
    6      C      -2.4061642123    -0.0119741858     0.0883575272
    7      H      -3.3529706741    -0.0148614117    -0.4425977380
    8      C      -1.2066904948    -0.0119249542    -0.6451280922
    9      C      -1.4733858850     0.0001508442     3.6078113255
   10      C      -0.7509203895     0.0052221206     4.7746278243
   11      H       0.3321462452     0.0068944189     4.7777154922
   12      C      -2.8818688140    -0.0014596579     3.7001541906
   13      C      -3.5992514536     0.0014977225     4.8932924464
   14      C      -3.4826275002    -0.0063477345     2.4250968936
   15      C      -4.8534413884    -0.0086625961     2.3365630146
   16      H      -5.3649911693    -0.0124852833     1.3815012824
   17      C      -1.4522169332     0.0084635533     6.0046103316
   18      H      -0.8786884510     0.0125728198     6.9226917660
   19      C      -2.8272253619     0.0066806321     6.0799555762
   20      H      -3.3165901359     0.0093134145     7.0463056510
   21      C      -5.0127028342    -0.0009748891     4.7781088676
   22      H      -5.6287335700     0.0010589682     5.6691285249
   23      C      -5.6047324947    -0.0059736534     3.5346046665
   24      H      -6.6854366724    -0.0078473121     3.4671330120
   25      B       1.3369685266    -0.0132918708    -0.7373877542
   26      C       1.3347154549    -0.0009855137    -2.2660558594
   27      C       2.5395288071     0.0086659199    -3.0113349217
   28      H       3.4973258291     0.0084251071    -2.4984953271
   29      C       2.5117617184     0.0200174651    -4.3844273224
   30      C       1.2574223531     0.0199177038    -5.0657839696
   31      C       0.0792797960     0.0086146820    -4.3613841464
   32      H      -0.8672973234     0.0080424064    -4.8926421875
   33      C       0.0821927479    -0.0016085567    -2.9552898763
   34      C       3.5683790912     0.0326782325    -5.4024901308
   35      C       4.9412024466     0.0389800353    -5.3965036691
   36      H       5.5098362866     0.0347061136    -4.4747462206
   37      C       2.9119294793     0.0391929426    -6.6518786087
   38      C       3.5576659677     0.0513306510    -7.8868889803
   39      C       1.5106805745     0.0318440229    -6.5011295597
   40      C       0.7240513530     0.0365949091    -7.6280619248
   41      H      -0.3577975372     0.0313472136    -7.5708934007
   42      C       5.6255345447     0.0514089854    -6.6361991184
   43      H       6.7080193701     0.0563523018    -6.6256906270
   44      C       4.9725296807     0.0574956756    -7.8484211622
   45      H       5.5407372138     0.0671003546    -8.7707870051
   46      C       1.3562366701     0.0487473287    -8.8934510368
   47      H       0.7357729466     0.0524201494    -9.7809135592
   48      C       2.7256555710     0.0560402578    -9.0351948940
   49      H       3.1672910842     0.0653045885   -10.0243948362
   50      B      -1.2460140915    -0.0155671714    -2.1825465350
   51      C       2.7141964933    -0.0483294614     0.0133764148
   52      C       3.3775446758     1.1744588263     0.3814712186
   53      C       4.5525678669     1.1118413537     1.0711220310
   54      H       5.0625889329     2.0207524364     1.3679119962
   55      C       5.1358226544    -0.1355033477     1.4170312824
   56      C       4.4994515872    -1.3350669630     1.0407153682
   57      H       4.9605706226    -2.2778984450     1.3076304636
   58      C       3.3205901786    -1.3159010530     0.3471955156
   59      C       6.4130448849    -0.1537228331     2.1656823329
   60      H       6.7614924501    -1.1622722639     2.3717417564
   61      H       7.1842294230     0.3803342411     1.6044675029
   62      H       6.3003745785     0.3833129021     3.1111306610
   63      C       2.6367820426    -2.5712057860    -0.0701590916
   64      H       3.1925240634    -3.4547823458     0.2371896946
   65      H       2.5103586839    -2.5969211962    -1.1546162010
   66      H       1.6330353844    -2.6231946798     0.3574455226
   67      C       2.7507843222     2.4733707825     0.0027898748
   68      H       3.3486643337     3.3201228574     0.3341868030
   69      H       2.6246054750     2.5379736363    -1.0796989269
   70      H       1.7528379491     2.5605526159     0.4372291765
   71      C      -2.6230240144    -0.0383146733    -2.9643079064
   72      C      -3.2595339067     1.1516201098    -3.3379515046
   73      C      -4.4583066903     1.1154363018    -4.0474426131
   74      H      -4.9347294610     2.0491196148    -4.3299583555
   75      C      -5.0565074068    -0.0861892345    -4.4036954150
   76      C      -4.4196244066    -1.2658347045    -4.0316185730
   77      H      -4.8663254563    -2.2180912821    -4.3020549675
   78      C      -3.2232875970    -1.2551876693    -3.3234788787
   79      C      -6.3555949818    -0.1217227142    -5.1572847561
   80      H      -6.6633277326     0.8750255655    -5.4721310070
   81      H      -6.2839442451    -0.7448595483    -6.0502940463
   82      H      -7.1594896231    -0.5355538003    -4.5450295623
   83      C      -2.6446625072     2.4765252540    -2.9825443596
   84      H      -3.2656990640     3.3105265573    -3.3101896699
   85      H      -2.5001977578     2.5720965474    -1.9044441614
   86      H      -1.6613362117     2.5941094088    -3.4432639937
   87      C      -2.5672293812    -2.5558495765    -2.9506290890
   88      H      -3.1591044138    -3.4130933942    -3.2724612945
   89      H      -2.4255082951    -2.6360063819    -1.8708814162
   90      H      -1.5781683575    -2.6467557668    -3.4051705917
 ----------------------------------------------------------------

   19   -1973.6290758242      8.44E-09 Convergence criterion met
 Total energy in the final basis set = -1973.62907582
 Final energy is   -1973.62907582417
 **  OPTIMIZATION CONVERGED  **

                    Orbital Energies (a.u.)
 --------------------------------------------------------------

 Alpha MOs
 -- Occupied --
-10.525 -10.507 -10.502 -10.497 -10.484 -10.481 -10.459 -10.459
-10.457 -10.457 -10.457 -10.456 -10.456 -10.454 -10.453 -10.453
-10.453 -10.453 -10.452 -10.452 -10.452 -10.452 -10.452 -10.451
-10.451 -10.450 -10.450 -10.447 -10.446 -10.446 -10.446 -10.444
-10.443 -10.442 -10.442 -10.442 -10.441 -10.441 -10.439 -10.439
-10.425 -10.425 -10.424 -10.424 -10.423 -10.418 -10.418 -10.415
-10.415 -10.409  -6.917  -6.908  -1.007  -1.007  -1.002  -0.951
 -0.948  -0.948  -0.925  -0.925  -0.914  -0.909  -0.895  -0.888
 -0.863  -0.861  -0.845  -0.844  -0.839  -0.839  -0.815  -0.810
 -0.805  -0.802  -0.797  -0.792  -0.783  -0.773  -0.750  -0.749
 -0.724  -0.720  -0.718  -0.710  -0.686  -0.679  -0.675  -0.670
 -0.666  -0.655  -0.639  -0.635  -0.631  -0.630  -0.599  -0.585
 -0.585  -0.583  -0.580  -0.573  -0.568  -0.565  -0.563  -0.540
 -0.533  -0.533  -0.522  -0.517  -0.517  -0.511  -0.506  -0.500
 -0.498  -0.494  -0.490  -0.488  -0.485  -0.484  -0.483  -0.479
 -0.479  -0.478  -0.478  -0.476  -0.473  -0.473  -0.471  -0.468
 -0.463  -0.458  -0.457  -0.456  -0.453  -0.448  -0.443  -0.441
 -0.441  -0.439  -0.433  -0.430  -0.424  -0.421  -0.416  -0.416
 -0.415  -0.404  -0.399  -0.397  -0.390  -0.390  -0.389  -0.386
 -0.384  -0.380  -0.374  -0.372  -0.366  -0.363  -0.358  -0.342
 -0.332  -0.327  -0.321  -0.317  -0.310  -0.293  -0.291  -0.279
 -0.267  -0.261  -0.257  -0.250  -0.248  -0.160

 Beta MOs
 -- Occupied --
-10.531 -10.508 -10.505 -10.502 -10.484 -10.480 -10.459 -10.459
-10.457 -10.457 -10.456 -10.455 -10.455 -10.454 -10.454 -10.453
-10.453 -10.452 -10.452 -10.452 -10.452 -10.452 -10.452 -10.451
-10.451 -10.450 -10.450 -10.446 -10.446 -10.444 -10.444 -10.444
-10.443 -10.442 -10.442 -10.441 -10.441 -10.440 -10.440 -10.440
-10.425 -10.425 -10.425 -10.425 -10.423 -10.418 -10.418 -10.414
-10.414 -10.409  -6.913  -6.906  -1.013  -1.006  -1.006  -0.950
 -0.947  -0.947  -0.925  -0.924  -0.923  -0.915  -0.895  -0.888
 -0.862  -0.860  -0.844  -0.844  -0.838  -0.838  -0.815  -0.809
 -0.805  -0.802  -0.798  -0.794  -0.791  -0.773  -0.750  -0.749
 -0.724  -0.718  -0.717  -0.710  -0.690  -0.680  -0.679  -0.670
 -0.664  -0.654  -0.639  -0.636  -0.631  -0.629  -0.599  -0.588
 -0.584  -0.582  -0.578  -0.574  -0.569  -0.565  -0.563  -0.540
 -0.534  -0.532  -0.524  -0.523  -0.517  -0.516  -0.510  -0.500
 -0.499  -0.496  -0.493  -0.491  -0.487  -0.486  -0.483  -0.479
 -0.478  -0.478  -0.476  -0.476  -0.474  -0.473  -0.471  -0.468
 -0.463  -0.458  -0.456  -0.456  -0.453  -0.448  -0.443  -0.442
 -0.440  -0.438  -0.435  -0.430  -0.421  -0.421  -0.421  -0.417
 -0.415  -0.413  -0.404  -0.398  -0.389  -0.388  -0.388  -0.386
 -0.383  -0.381  -0.375  -0.371  -0.367  -0.359  -0.357  -0.341
 -0.340  -0.327  -0.323  -0.315  -0.310  -0.306  -0.289  -0.289
 -0.269  -0.267  -0.256  -0.253  -0.247  -0.242

          Ground-State Mulliken Net Atomic Charges

     Atom                 Charge (a.u.)    Spin (a.u.)
  --------------------------------------------------------
      1 C                    -0.140440      -0.032172
      2 C                    -0.414738       0.004197
      3 H                     0.216396       0.000072
      4 C                     0.076064       0.020597
      5 C                     0.056589       0.105899
      6 C                    -0.405151      -0.067859
      7 H                     0.232405       0.002720
      8 C                    -0.145698       0.075295
      9 C                     0.177095      -0.039681
     10 C                    -0.410223       0.060985
     11 H                     0.238716      -0.003562
     12 C                    -0.077336       0.023141
     13 C                     0.220079      -0.036547
     14 C                     0.175108      -0.061158
     15 C                    -0.401777       0.088179
     16 H                     0.244608      -0.005122
     17 C                    -0.231312      -0.041919
     18 H                     0.248887       0.002065
     19 C                    -0.361302       0.056516
     20 H                     0.246789      -0.003241
     21 C                    -0.359054       0.079925
     22 H                     0.245703      -0.004679
     23 C                    -0.233174      -0.054042
     24 H                     0.250319       0.002578
     25 B                     0.562307       0.390082
     26 C                    -0.141382      -0.034783
     27 C                    -0.414651       0.003043
     28 H                     0.217300       0.000208
     29 C                     0.075245       0.021274
     30 C                     0.055660       0.104794
     31 C                    -0.403898      -0.067340
     32 H                     0.233328       0.002621
     33 C                    -0.146428       0.074890
     34 C                     0.179009      -0.039679
     35 C                    -0.410818       0.060874
     36 H                     0.238788      -0.003554
     37 C                    -0.077971       0.022997
     38 C                     0.218191      -0.036345
     39 C                     0.175961      -0.060578
     40 C                    -0.402460       0.087393
     41 H                     0.244512      -0.005080
     42 C                    -0.231294      -0.041763
     43 H                     0.248857       0.002056
     44 C                    -0.360663       0.056288
     45 H                     0.246977      -0.003227
     46 C                    -0.232959      -0.053494
     47 H                     0.250461       0.002552
     48 C                    -0.358031       0.078914
     49 H                     0.245891      -0.004616
     50 B                     0.570170       0.265289
     51 C                    -0.116597      -0.549662
     52 C                     0.087111       0.004787
     53 C                    -0.310298       0.000888
     54 H                     0.276708       0.002487
     55 C                     0.166751      -0.398484
     56 C                    -0.328242       0.063669
     57 H                     0.277353      -0.000494
     58 C                     0.091102      -0.070430
     59 C                    -0.728818       0.027609
     60 H                     0.271107       0.000232
     61 H                     0.283209      -0.023369
     62 H                     0.283129      -0.023558
     63 C                    -0.763328       0.007797
     64 H                     0.267738       0.002887
     65 H                     0.278888      -0.008478
     66 H                     0.279853      -0.009036
     67 C                    -0.759567       0.002568
     68 H                     0.264492       0.002881
     69 H                     0.274910      -0.004632
     70 H                     0.275726      -0.005072
     71 C                    -0.196899      -0.024076
     72 C                     0.038023       0.002882
     73 C                    -0.370844      -0.000543
     74 H                     0.218043       0.000341
     75 C                     0.106774       0.000245
     76 C                    -0.362804      -0.000599
     77 H                     0.216997       0.000340
     78 C                     0.036732       0.002939
     79 C                    -0.722634      -0.000020
     80 H                     0.235579      -0.000003
     81 H                     0.235458       0.000005
     82 H                     0.237097       0.000008
     83 C                    -0.761280       0.000528
     84 H                     0.240028       0.001303
     85 H                     0.242514      -0.000747
     86 H                     0.242089      -0.000642
     87 C                    -0.761503       0.000546
     88 H                     0.240189       0.001312
     89 H                     0.242482      -0.000743
     90 H                     0.242081      -0.000666
  --------------------------------------------------------
  Sum of atomic charges =    -0.000000

                    Cartesian Multipole Moments
 -----------------------------------------------------------------
    Charge (ESU x 10^10)
                -0.0000
    Dipole Moment (Debye)
         X      15.0874      Y      -0.3253      Z       8.3931
       Tot      17.2679
    Quadrupole Moments (Debye-Ang)
        XX    -208.7662     XY      -0.3442     YY    -297.2130
        XZ      26.8824     YZ       0.2653     ZZ    -293.1243

 Total job time:  20799.04s(wall), 81768.96s(cpu)
        *  Thank you very much for using Q-Chem.  Have a nice day.  *
