 Q-Chem 5.0, Q-Chem, Inc., Pleasanton, CA (2017)
 Q-Chem 5.0.1 for Intel X86 EM64T Linux

User input:
--------------------------------------------------------------
$rem
threads 8
jobtype	sp
method PBEh-3c
basis def2-mSVP
mem_static	1024
mem_total	8000
sym_ignore	true
unrestricted true
scf_convergence	9
solvent_method	pcm
$end

$molecule
read incoords.mol
$end

$solvent
dielectric	4.33
$end

$pcm
theory iefpcm
$end
--------------------------------------------------------------

   16   -1973.7217092860      5.30E-10 Convergence criterion met
 Total energy in the final basis set = -1973.72170929
 Total job time:  2071.86s(wall), 7963.83s(cpu)
        *  Thank you very much for using Q-Chem.  Have a nice day.  *
 Q-Chem 5.0, Q-Chem, Inc., Pleasanton, CA (2017)
 Q-Chem 5.0.1 for Intel X86 EM64T Linux

User input:
--------------------------------------------------------------

$rem
threads 8
jobtype opt
method PBEh-3c
basis def2-mSVP
scf_guess	read
mem_static      1024
mem_total       8000
sym_ignore      true
unrestricted true
mom_start       1
scf_algorithm	diis
scf_max_cycles	250
solvent_method	pcm
geom_opt_tol_energy 25
geom_opt_tol_gradient 75
$end

$solvent
dielectric      4.33
$end

$pcm
theory iefpcm
$end

$occupied
1 2 3 4 5 6 7 8 9 10 11 12 13 14 15 16 17 18 19 20 21 22 23 24 25 26 27 28 29 30 31 32 33 34 35 36 37 38 39 40 41 42 43 44 45 46 47 48 49 50 51 52 53 54 55 56 57 58 59 60 61 62 63 64 65 66 67 68 69 70 71 72 73 74 75 76 77 78 79 80 81 82 83 84 85 86 87 88 89 90 91 92 93 94 95 96 97 98 99 100 101 102 103 104 105 106 107 108 109 110 111 112 113 114 115 116 117 118 119 120 121 122 123 124 125 126 127 128 129 130 131 132 133 134 135 136 137 138 139 140 141 142 143 144 145 146 147 148 149 150 151 152 153 154 155 156 157 158 159 160 161 162 163 164 165 166 167 168 169 170 171 172 173  175
1 2 3 4 5 6 7 8 9 10 11 12 13 14 15 16 17 18 19 20 21 22 23 24 25 26 27 28 29 30 31 32 33 34 35 36 37 38 39 40 41 42 43 44 45 46 47 48 49 50 51 52 53 54 55 56 57 58 59 60 61 62 63 64 65 66 67 68 69 70 71 72 73 74 75 76 77 78 79 80 81 82 83 84 85 86 87 88 89 90 91 92 93 94 95 96 97 98 99 100 101 102 103 104 105 106 107 108 109 110 111 112 113 114 115 116 117 118 119 120 121 122 123 124 125 126 127 128 129 130 131 132 133 134 135 136 137 138 139 140 141 142 143 144 145 146 147 148 149 150 151 152 153 154 155 156 157 158 159 160 161 162 163 164 165 166 167 168 169 170 171 172 173 174
$end

$molecule
read incoords.mol
$end

--------------------------------------------------------------

   19   -1973.6120218805      9.25E-09 Convergence criterion met
 Total energy in the final basis set = -1973.61202188
   29   -1973.6156311768      6.25E-09 Convergence criterion met
 Total energy in the final basis set = -1973.61563118
   24   -1973.6155545284      9.24E-09 Convergence criterion met
 Total energy in the final basis set = -1973.61555453
   27   -1973.6153165701      9.54E-09 Convergence criterion met
 Total energy in the final basis set = -1973.61531657
   26   -1973.6151434861      7.40E-09 Convergence criterion met
 Total energy in the final basis set = -1973.61514349
   24   -1973.6151325314      7.07E-09 Convergence criterion met
 Total energy in the final basis set = -1973.61513253
   23   -1973.6150945839      8.59E-09 Convergence criterion met
 Total energy in the final basis set = -1973.61509458

                    Orbital Energies (a.u.)
 --------------------------------------------------------------

 Alpha MOs
 -- Occupied --
-10.474 -10.473 -10.472 -10.472 -10.471 -10.471 -10.471 -10.471
-10.471 -10.471 -10.470 -10.470 -10.469 -10.469 -10.466 -10.466
-10.466 -10.466 -10.460 -10.460 -10.458 -10.458 -10.458 -10.458
-10.455 -10.455 -10.453 -10.453 -10.443 -10.443 -10.442 -10.442
-10.442 -10.441 -10.426 -10.426 -10.426 -10.426 -10.425 -10.425
-10.424 -10.424 -10.424 -10.424 -10.419 -10.419 -10.419 -10.418
-10.410 -10.409  -6.911  -6.910  -1.021  -1.020  -0.961  -0.959
 -0.950  -0.949  -0.938  -0.938  -0.907  -0.898  -0.866  -0.863
 -0.861  -0.861  -0.854  -0.854  -0.853  -0.853  -0.821  -0.812
 -0.810  -0.803  -0.774  -0.774  -0.752  -0.751  -0.751  -0.749
 -0.735  -0.732  -0.732  -0.722  -0.692  -0.682  -0.680  -0.665
 -0.649  -0.645  -0.635  -0.632  -0.632  -0.631  -0.597  -0.596
 -0.590  -0.589  -0.585  -0.577  -0.576  -0.546  -0.545  -0.542
 -0.534  -0.534  -0.530  -0.529  -0.520  -0.509  -0.504  -0.497
 -0.494  -0.493  -0.492  -0.488  -0.488  -0.486  -0.483  -0.476
 -0.476  -0.475  -0.473  -0.466  -0.466  -0.460  -0.459  -0.459
 -0.457  -0.457  -0.450  -0.449  -0.446  -0.444  -0.444  -0.441
 -0.439  -0.439  -0.432  -0.428  -0.423  -0.421  -0.409  -0.406
 -0.406  -0.404  -0.402  -0.397  -0.397  -0.397  -0.393  -0.386
 -0.377  -0.376  -0.375  -0.372  -0.372  -0.365  -0.343  -0.341
 -0.335  -0.326  -0.313  -0.305  -0.305  -0.304  -0.284  -0.268
 -0.268  -0.259  -0.256  -0.256  -0.243  -0.155

 Beta MOs
 -- Occupied --
-10.475 -10.474 -10.472 -10.472 -10.472 -10.472 -10.472 -10.472
-10.471 -10.471 -10.470 -10.470 -10.469 -10.469 -10.466 -10.466
-10.466 -10.466 -10.463 -10.462 -10.460 -10.460 -10.457 -10.456
-10.454 -10.454 -10.453 -10.453 -10.443 -10.443 -10.442 -10.442
-10.441 -10.441 -10.426 -10.426 -10.426 -10.426 -10.425 -10.424
-10.424 -10.424 -10.424 -10.424 -10.419 -10.419 -10.418 -10.418
-10.410 -10.409  -6.909  -6.907  -1.021  -1.021  -0.962  -0.960
 -0.949  -0.949  -0.940  -0.940  -0.908  -0.901  -0.866  -0.863
 -0.861  -0.861  -0.857  -0.855  -0.853  -0.853  -0.819  -0.816
 -0.815  -0.802  -0.774  -0.774  -0.751  -0.751  -0.751  -0.749
 -0.736  -0.733  -0.732  -0.723  -0.693  -0.683  -0.676  -0.664
 -0.651  -0.647  -0.635  -0.632  -0.632  -0.631  -0.597  -0.596
 -0.589  -0.588  -0.586  -0.577  -0.575  -0.546  -0.545  -0.541
 -0.533  -0.533  -0.530  -0.529  -0.519  -0.509  -0.504  -0.498
 -0.494  -0.494  -0.492  -0.490  -0.490  -0.487  -0.483  -0.476
 -0.476  -0.475  -0.473  -0.467  -0.466  -0.460  -0.459  -0.458
 -0.458  -0.457  -0.450  -0.449  -0.446  -0.444  -0.444  -0.441
 -0.439  -0.438  -0.431  -0.430  -0.425  -0.423  -0.408  -0.406
 -0.405  -0.403  -0.403  -0.403  -0.403  -0.397  -0.393  -0.386
 -0.377  -0.375  -0.374  -0.371  -0.370  -0.365  -0.354  -0.340
 -0.334  -0.325  -0.324  -0.321  -0.302  -0.302  -0.277  -0.268
 -0.268  -0.267  -0.263  -0.259  -0.256  -0.249

          Ground-State Mulliken Net Atomic Charges

     Atom                 Charge (a.u.)    Spin (a.u.)
  --------------------------------------------------------
      1 C                    -0.145010       0.051836
      2 C                    -0.141742       0.032112
      3 B                     0.587285       0.297010
      4 C                    -0.141383       0.031260
      5 C                    -0.144960       0.052897
      6 B                     0.593502       0.286514
      7 C                    -0.385228      -0.190049
      8 C                     0.092952       0.105864
      9 C                     0.071726       0.105524
     10 C                    -0.379375      -0.183515
     11 C                    -0.387496      -0.188589
     12 C                     0.095818       0.105071
     13 C                     0.068498       0.105597
     14 C                    -0.374931      -0.184655
     15 H                     0.245816       0.009628
     16 C                    -0.210581      -0.025991
     17 C                    -0.204086      -0.024892
     18 C                     0.039988       0.003830
     19 C                    -0.367122      -0.000931
     20 C                     0.112643       0.000837
     21 C                    -0.356723      -0.001068
     22 C                     0.046358       0.003720
     23 C                    -0.757592      -0.000244
     24 C                    -0.758626      -0.000770
     25 H                     0.213386       0.000390
     26 C                    -0.720286      -0.000071
     27 H                     0.212693       0.000394
     28 H                     0.244083      -0.000735
     29 H                     0.237760       0.001510
     30 H                     0.241613      -0.000461
     31 H                     0.243347      -0.000510
     32 H                     0.238031       0.001532
     33 H                     0.243711      -0.000587
     34 H                     0.233567      -0.000002
     35 H                     0.235549       0.000035
     36 H                     0.234392       0.000024
     37 C                     0.043633       0.003545
     38 C                    -0.367226      -0.000937
     39 C                     0.112506       0.000816
     40 C                    -0.358555      -0.000923
     41 C                     0.040116       0.003571
     42 C                    -0.758011      -0.000700
     43 C                    -0.760397      -0.000013
     44 H                     0.213527       0.000362
     45 C                    -0.720309      -0.000068
     46 H                     0.212288       0.000404
     47 H                     0.237835       0.001512
     48 H                     0.243765      -0.000700
     49 H                     0.242814      -0.000387
     50 H                     0.243882      -0.000617
     51 H                     0.238172       0.001590
     52 H                     0.243367      -0.000624
     53 H                     0.233761      -0.000001
     54 H                     0.234076       0.000025
     55 H                     0.235351       0.000035
     56 C                     0.184077      -0.099257
     57 C                     0.185045      -0.096202
     58 C                    -0.377991       0.024257
     59 C                    -0.218101      -0.018073
     60 C                    -0.342350      -0.045955
     61 C                     0.240123       0.008161
     62 C                    -0.339468      -0.043195
     63 C                    -0.220380      -0.015650
     64 H                     0.258806       0.001160
     65 H                     0.256004       0.002201
     66 C                    -0.066321       0.039528
     67 H                     0.246738       0.009217
     68 C                    -0.383547       0.025988
     69 H                     0.258844       0.001306
     70 H                     0.253074      -0.000956
     71 H                     0.245809       0.009688
     72 C                     0.184922      -0.095631
     73 C                    -0.340409      -0.041022
     74 C                    -0.220197      -0.016382
     75 C                    -0.377962       0.025627
     76 H                     0.258673       0.001187
     77 H                     0.253167      -0.000999
     78 H                     0.247134       0.009260
     79 H                     0.252942      -0.000913
     80 C                    -0.064955       0.039580
     81 C                     0.185110      -0.098924
     82 C                    -0.386024       0.025416
     83 C                    -0.217460      -0.017784
     84 C                    -0.342338      -0.046346
     85 C                     0.240314       0.008746
     86 H                     0.258857       0.001288
     87 H                     0.256142       0.002220
     88 H                     0.252990      -0.000917
     89 H                     0.255421       0.002046
     90 H                     0.255142       0.001929
  --------------------------------------------------------
  Sum of atomic charges =    -0.000000

                    Cartesian Multipole Moments
 -----------------------------------------------------------------
    Charge (ESU x 10^10)
                -0.0000
    Dipole Moment (Debye)
         X      -0.5968      Y      -0.2331      Z      -1.5269
       Tot       1.6559
    Quadrupole Moments (Debye-Ang)
        XX    -201.8064     XY     -28.6602     YY    -253.5811
        XZ     -19.6336     YZ      -0.8496     ZZ    -299.2713

             Standard Nuclear Orientation (Angstroms)
    I     Atom           X                Y                Z
 ----------------------------------------------------------------
    1      C      -6.2018619287     3.9957867499     1.7592852944
    2      C      -6.7303691581     2.7061641309     2.0301351015
    3      B      -5.8779163621     1.4429390343     1.8571689262
    4      C      -4.4267939307     1.6064634228     1.3878162668
    5      C      -3.8727590360     2.8932239404     1.1528374420
    6      B      -4.7302937180     4.1579017501     1.3427055412
    7      C      -2.5354100584     2.9924327682     0.6802958479
    8      C      -1.7884610422     1.8622031626     0.4261079699
    9      C      -2.3583956708     0.5743489279     0.6499827688
   10      C      -3.6396371773     0.4550548347     1.1296277138
   11      C      -7.0643970151     5.1251159872     1.8242417063
   12      C      -8.3975391383     4.9788308529     2.1415531708
   13      C      -8.9094065160     3.6837589068     2.4479841838
   14      C      -8.0947398149     2.5805662849     2.3945886397
   15      H      -6.6623082199     6.1063027104     1.5946903196
   16      C      -6.5122232530     0.0121677419     2.0811741005
   17      C      -4.1261166363     5.5900466648     1.0774405725
   18      C      -7.1244437892    -0.6631985299     1.0178214936
   19      C      -7.6872693882    -1.9214374766     1.2185399374
   20      C      -7.6639512397    -2.5390091847     2.4615858109
   21      C      -7.0567721524    -1.8625953007     3.5148407977
   22      C      -6.4869276094    -0.6067004958     3.3394183116
   23      C      -5.8466860107     0.0978781544     4.5025799063
   24      C      -7.1844525836    -0.0321506830    -0.3464914235
   25      H      -8.1556532329    -2.4307947934     0.3819728832
   26      C      -8.2817094722    -3.8921400082     2.6708414677
   27      H      -7.0260236001    -2.3269074842     4.4959156313
   28      H      -4.8106701405     0.3657829314     4.2848389695
   29      H      -5.8500230339    -0.5195023174     5.4011082538
   30      H      -6.3678283519     1.0288223966     4.7375558259
   31      H      -7.7356684826     0.9105747438    -0.3257763395
   32      H      -7.6741230841    -0.6843682552    -1.0701335175
   33      H      -6.1876713986     0.1962740344    -0.7294138842
   34      H      -8.6230632706    -4.3254496210     1.7310198836
   35      H      -9.1438205804    -3.8380220511     3.3386691514
   36      H      -7.5740576876    -4.5906659930     3.1201981651
   37      C      -3.5704354001     6.3309904588     2.1258501023
   38      C      -3.0314610036     7.5919155927     1.8815393150
   39      C      -3.0318303791     8.1456092588     0.6077498678
   40      C      -3.5956029678     7.4070335783    -0.4279235340
   41      C      -4.1382149314     6.1460114684    -0.2100572902
   42      C      -4.7401323750     5.3759643475    -1.3536573418
   43      C      -3.5567247021     5.7610596822     3.5176745034
   44      H      -2.6009227276     8.1530156433     2.7049194947
   45      C      -2.4362167333     9.4985727260     0.3432196452
   46      H      -3.6119298312     7.8253067443    -1.4300084877
   47      H      -4.7394195152     5.9572535609    -2.2760286090
   48      H      -5.7723911502     5.0881441594    -1.1423802353
   49      H      -4.1933461804     4.4499568907    -1.5467670572
   50      H      -4.5687893922     5.5627988123     3.8774778747
   51      H      -3.0806240871     6.4378258347     4.2273998288
   52      H      -3.0204820652     4.8103109210     3.5543747857
   53      H      -2.1107972199     9.9801796609     1.2648725974
   54      H      -3.1518888328    10.1629758863    -0.1437384964
   55      H      -1.5676607837     9.4287262764    -0.3146893266
   56      C      -0.4557885599     1.6640606781    -0.1208801825
   57      C     -10.3298104608     3.8013816322     2.7118038264
   58      C     -11.3441088448     2.9147445128     3.0327623079
   59      C       1.7279598545     1.9000697055    -1.0809784956
   60      C       1.8954977906     0.5279017401    -1.1763651124
   61      C       0.8694604783    -0.3402783952    -0.7399563013
   62      C     -12.9579718939     4.7507062261     2.9939961299
   63      C     -12.6494782945     3.4123143648     3.1729960729
   64      H     -13.4441015467     2.7217311570     3.4236400423
   65      H       2.8104060681     0.1245650078    -1.5922446192
   66      C      -0.2680450027     0.2707427869    -0.2190716623
   67      H      -4.0717057339    -0.5269563470     1.2945077269
   68      C       0.5629434162     2.4898927044    -0.5621276753
   69      H       2.5241641651     2.5460661169    -1.4264345014
   70      H       0.4776211241     3.5680323994    -0.5207312889
   71      H      -2.1149655772     3.9753718869     0.4965601739
   72      C      -1.3987044944    -0.4303146816     0.2370777613
   73      C       0.8529883898    -1.7540585059    -0.7906611214
   74      C      -0.2560359103    -2.4536755995    -0.3432040332
   75      C      -1.3944513655    -1.8134624837     0.1728822366
   76      H      -0.2488286335    -3.5345425843    -0.3976207271
   77      H      -2.2423735088    -2.4017816882     0.5008701283
   78      H      -8.4973740481     1.5952694233     2.6068018720
   79      H     -11.1541162490     1.8577153034     3.1699607429
   80      C     -10.6506340165     5.1588144599     2.5422145243
   81      C      -9.5126434880     5.9142953238     2.1962664240
   82      C      -9.6846473981     7.2673443659     1.9594827767
   83      C     -10.9744317398     7.8142701637     2.0754373104
   84      C     -12.0830876688     7.0567781063     2.4161912640
   85      C     -11.9400615648     5.6733999011     2.6615964887
   86      H     -11.1052861918     8.8712915662     1.8850555686
   87      H     -13.0572408640     7.5246134983     2.4865326539
   88      H      -8.8557951855     7.9054175557     1.6817303797
   89      H     -13.9818602330     5.0864112963     3.1032900638
   90      H       1.7043312502    -2.2938210378    -1.1863252812
 ----------------------------------------------------------------
