 Q-Chem 5.0, Q-Chem, Inc., Pleasanton, CA (2017)
 Q-Chem 5.0.1 for Intel X86 EM64T Linux

User input:
--------------------------------------------------------------
$rem
threads 8
jobtype	sp
method PBEh-3c
basis def2-mSVP
mem_static	1024
mem_total	8000
sym_ignore	true
unrestricted true
scf_convergence	9
solvent_method	pcm
$end

$molecule
read incoords.mol
$end

$solvent
dielectric	2.38
$end

$pcm
theory iefpcm
$end
--------------------------------------------------------------

   16   -1973.7158661104      8.85E-10 Convergence criterion met
 Total energy in the final basis set = -1973.71586611
 Total job time:  2145.72s(wall), 7945.30s(cpu)
        *  Thank you very much for using Q-Chem.  Have a nice day.  *
 Q-Chem 5.0, Q-Chem, Inc., Pleasanton, CA (2017)
 Q-Chem 5.0.1 for Intel X86 EM64T Linux

User input:
--------------------------------------------------------------

$rem
threads 8
jobtype opt
method PBEh-3c
basis def2-mSVP
scf_guess	read
mem_static      1024
mem_total       8000
sym_ignore      true
unrestricted true
mom_start       1
scf_algorithm	diis
scf_max_cycles	250
solvent_method	pcm
geom_opt_tol_energy 25
geom_opt_tol_gradient 75
$end

$solvent
dielectric      2.38
$end

$pcm
theory iefpcm
$end

$occupied
1 2 3 4 5 6 7 8 9 10 11 12 13 14 15 16 17 18 19 20 21 22 23 24 25 26 27 28 29 30 31 32 33 34 35 36 37 38 39 40 41 42 43 44 45 46 47 48 49 50 51 52 53 54 55 56 57 58 59 60 61 62 63 64 65 66 67 68 69 70 71 72 73 74 75 76 77 78 79 80 81 82 83 84 85 86 87 88 89 90 91 92 93 94 95 96 97 98 99 100 101 102 103 104 105 106 107 108 109 110 111 112 113 114 115 116 117 118 119 120 121 122 123 124 125 126 127 128 129 130 131 132 133 134 135 136 137 138 139 140 141 142 143 144 145 146 147 148 149 150 151 152 153 154 155 156 157 158 159 160 161 162 163 164 165 166 167 168 169 170 171 172 173  175
1 2 3 4 5 6 7 8 9 10 11 12 13 14 15 16 17 18 19 20 21 22 23 24 25 26 27 28 29 30 31 32 33 34 35 36 37 38 39 40 41 42 43 44 45 46 47 48 49 50 51 52 53 54 55 56 57 58 59 60 61 62 63 64 65 66 67 68 69 70 71 72 73 74 75 76 77 78 79 80 81 82 83 84 85 86 87 88 89 90 91 92 93 94 95 96 97 98 99 100 101 102 103 104 105 106 107 108 109 110 111 112 113 114 115 116 117 118 119 120 121 122 123 124 125 126 127 128 129 130 131 132 133 134 135 136 137 138 139 140 141 142 143 144 145 146 147 148 149 150 151 152 153 154 155 156 157 158 159 160 161 162 163 164 165 166 167 168 169 170 171 172 173 174
$end

$molecule
read incoords.mol
$end

--------------------------------------------------------------

   20   -1973.6056565263      7.79E-09 Convergence criterion met
 Total energy in the final basis set = -1973.60565653
   26   -1973.6091409668      8.11E-09 Convergence criterion met
 Total energy in the final basis set = -1973.60914097
   33   -1973.6090495726      6.07E-09 Convergence criterion met
 Total energy in the final basis set = -1973.60904957
   25   -1973.6088083283      1.00E-08 Convergence criterion met
 Total energy in the final basis set = -1973.60880833

                    Orbital Energies (a.u.)
 --------------------------------------------------------------

 Alpha MOs
 -- Occupied --
-10.473 -10.471 -10.471 -10.471 -10.471 -10.470 -10.470 -10.470
-10.470 -10.470 -10.469 -10.469 -10.469 -10.468 -10.466 -10.466
-10.466 -10.465 -10.459 -10.458 -10.456 -10.456 -10.456 -10.456
-10.453 -10.453 -10.452 -10.452 -10.440 -10.440 -10.439 -10.439
-10.439 -10.438 -10.424 -10.424 -10.423 -10.423 -10.423 -10.423
-10.423 -10.423 -10.422 -10.422 -10.417 -10.417 -10.416 -10.416
-10.407 -10.406  -6.909  -6.907  -1.019  -1.019  -0.960  -0.958
 -0.947  -0.947  -0.938  -0.937  -0.905  -0.897  -0.864  -0.861
 -0.859  -0.859  -0.853  -0.853  -0.852  -0.851  -0.819  -0.811
 -0.809  -0.801  -0.773  -0.772  -0.750  -0.749  -0.748  -0.747
 -0.734  -0.732  -0.731  -0.721  -0.691  -0.681  -0.678  -0.664
 -0.648  -0.644  -0.633  -0.630  -0.630  -0.629  -0.597  -0.596
 -0.589  -0.588  -0.585  -0.576  -0.575  -0.545  -0.545  -0.540
 -0.532  -0.532  -0.530  -0.529  -0.519  -0.508  -0.504  -0.495
 -0.493  -0.492  -0.491  -0.487  -0.486  -0.486  -0.482  -0.475
 -0.474  -0.473  -0.471  -0.466  -0.465  -0.459  -0.458  -0.457
 -0.455  -0.454  -0.448  -0.447  -0.446  -0.443  -0.442  -0.439
 -0.438  -0.438  -0.430  -0.426  -0.422  -0.419  -0.407  -0.404
 -0.404  -0.403  -0.402  -0.397  -0.396  -0.396  -0.392  -0.385
 -0.374  -0.374  -0.373  -0.370  -0.369  -0.363  -0.342  -0.339
 -0.333  -0.323  -0.311  -0.304  -0.304  -0.303  -0.282  -0.265
 -0.265  -0.257  -0.254  -0.253  -0.242  -0.152

 Beta MOs
 -- Occupied --
-10.474 -10.473 -10.472 -10.472 -10.471 -10.471 -10.471 -10.471
-10.470 -10.470 -10.470 -10.469 -10.469 -10.468 -10.467 -10.466
-10.466 -10.465 -10.461 -10.461 -10.459 -10.459 -10.455 -10.454
-10.452 -10.452 -10.451 -10.451 -10.440 -10.440 -10.439 -10.439
-10.439 -10.438 -10.424 -10.424 -10.423 -10.423 -10.423 -10.423
-10.422 -10.422 -10.422 -10.422 -10.417 -10.417 -10.416 -10.416
-10.407 -10.406  -6.907  -6.905  -1.020  -1.019  -0.961  -0.959
 -0.947  -0.947  -0.940  -0.939  -0.907  -0.900  -0.864  -0.861
 -0.859  -0.858  -0.856  -0.854  -0.853  -0.853  -0.817  -0.815
 -0.814  -0.800  -0.772  -0.772  -0.749  -0.748  -0.748  -0.747
 -0.735  -0.732  -0.731  -0.722  -0.692  -0.682  -0.675  -0.663
 -0.650  -0.646  -0.633  -0.629  -0.629  -0.629  -0.597  -0.596
 -0.588  -0.587  -0.586  -0.577  -0.574  -0.544  -0.544  -0.540
 -0.531  -0.531  -0.530  -0.529  -0.518  -0.508  -0.504  -0.496
 -0.493  -0.492  -0.491  -0.489  -0.488  -0.486  -0.483  -0.475
 -0.474  -0.473  -0.471  -0.466  -0.464  -0.459  -0.457  -0.457
 -0.455  -0.454  -0.448  -0.447  -0.446  -0.443  -0.442  -0.439
 -0.438  -0.437  -0.430  -0.428  -0.423  -0.422  -0.406  -0.404
 -0.403  -0.403  -0.402  -0.402  -0.401  -0.396  -0.392  -0.384
 -0.374  -0.373  -0.372  -0.369  -0.368  -0.363  -0.352  -0.338
 -0.332  -0.323  -0.322  -0.319  -0.301  -0.301  -0.275  -0.266
 -0.265  -0.265  -0.262  -0.257  -0.253  -0.247

          Ground-State Mulliken Net Atomic Charges

     Atom                 Charge (a.u.)    Spin (a.u.)
  --------------------------------------------------------
      1 C                    -0.145137       0.056467
      2 C                    -0.140771       0.030438
      3 B                     0.596963       0.294360
      4 C                    -0.140759       0.028738
      5 C                    -0.144693       0.056893
      6 B                     0.603481       0.282015
      7 C                    -0.384736      -0.194840
      8 C                     0.100333       0.103227
      9 C                     0.076985       0.105467
     10 C                    -0.377825      -0.188239
     11 C                    -0.386678      -0.196910
     12 C                     0.103123       0.104317
     13 C                     0.073409       0.107798
     14 C                    -0.373073      -0.193537
     15 H                     0.243496       0.010131
     16 C                    -0.213476      -0.025641
     17 C                    -0.207330      -0.024327
     18 C                     0.043440       0.003793
     19 C                    -0.360074      -0.000916
     20 C                     0.118598       0.000774
     21 C                    -0.350784      -0.001032
     22 C                     0.050580       0.003620
     23 C                    -0.754284      -0.000317
     24 C                    -0.755342      -0.000709
     25 H                     0.205539       0.000383
     26 C                    -0.717044      -0.000066
     27 H                     0.205256       0.000394
     28 H                     0.244087      -0.000731
     29 H                     0.233269       0.001520
     30 H                     0.240870      -0.000444
     31 H                     0.242353      -0.000433
     32 H                     0.233541       0.001526
     33 H                     0.244186      -0.000669
     34 H                     0.230198      -0.000002
     35 H                     0.232845       0.000031
     36 H                     0.231798       0.000023
     37 C                     0.048579       0.003418
     38 C                    -0.359540      -0.000901
     39 C                     0.118377       0.000811
     40 C                    -0.353156      -0.000907
     41 C                     0.043319       0.003521
     42 C                    -0.755199      -0.000564
     43 C                    -0.756739      -0.000060
     44 H                     0.205491       0.000366
     45 C                    -0.717031      -0.000067
     46 H                     0.204804       0.000390
     47 H                     0.233322       0.001522
     48 H                     0.243813      -0.000690
     49 H                     0.242344      -0.000418
     50 H                     0.244092      -0.000698
     51 H                     0.233510       0.001576
     52 H                     0.242105      -0.000509
     53 H                     0.230269      -0.000002
     54 H                     0.231352       0.000027
     55 H                     0.232771       0.000034
     56 C                     0.188174      -0.092807
     57 C                     0.189681      -0.091581
     58 C                    -0.376020       0.023288
     59 C                    -0.211299      -0.015867
     60 C                    -0.341386      -0.043388
     61 C                     0.249236       0.007052
     62 C                    -0.338434      -0.039451
     63 C                    -0.213497      -0.014219
     64 H                     0.249813       0.001073
     65 H                     0.245579       0.002077
     66 C                    -0.067773       0.037208
     67 H                     0.243968       0.009514
     68 C                    -0.381830       0.023294
     69 H                     0.249654       0.001186
     70 H                     0.244787      -0.000841
     71 H                     0.243007       0.010012
     72 C                     0.188504      -0.088994
     73 C                    -0.339684      -0.035503
     74 C                    -0.213481      -0.014955
     75 C                    -0.375593       0.024717
     76 H                     0.249336       0.001090
     77 H                     0.244771      -0.001000
     78 H                     0.244878       0.009763
     79 H                     0.244872      -0.000898
     80 C                    -0.066606       0.038163
     81 C                     0.190151      -0.094593
     82 C                    -0.384301       0.022736
     83 C                    -0.210443      -0.015682
     84 C                    -0.341143      -0.045588
     85 C                     0.249621       0.008183
     86 H                     0.250025       0.001185
     87 H                     0.246055       0.002188
     88 H                     0.245013      -0.000788
     89 H                     0.245085       0.001841
     90 H                     0.244452       0.001634
  --------------------------------------------------------
  Sum of atomic charges =    -0.000000

                    Cartesian Multipole Moments
 -----------------------------------------------------------------
    Charge (ESU x 10^10)
                -0.0000
    Dipole Moment (Debye)
         X      -0.5899      Y      -0.1123      Z      -1.0774
       Tot       1.2334
    Quadrupole Moments (Debye-Ang)
        XX    -210.7373     XY     -26.4300     YY    -257.4495
        XZ     -19.3952     YZ       0.3414     ZZ    -299.8122

             Standard Nuclear Orientation (Angstroms)
    I     Atom           X                Y                Z
 ----------------------------------------------------------------
    1      C      -6.2069359055     3.9969503166     1.7607976712
    2      C      -6.7360799166     2.7069743763     2.0209264064
    3      B      -5.8841055033     1.4434717259     1.8453801913
    4      C      -4.4297420377     1.6092822734     1.3873707622
    5      C      -3.8764854720     2.8952259050     1.1555025685
    6      B      -4.7361801476     4.1595285399     1.3397877619
    7      C      -2.5364857205     2.9961955635     0.6926590957
    8      C      -1.7834458431     1.8673686759     0.4493347399
    9      C      -2.3529336778     0.5779886147     0.6725307714
   10      C      -3.6382281785     0.4580088850     1.1385237372
   11      C      -7.0670838817     5.1270323401     1.8395873993
   12      C      -8.4002385553     4.9809800379     2.1580404923
   13      C      -8.9145319666     3.6820506415     2.4484068223
   14      C      -8.1015474456     2.5791960617     2.3831021110
   15      H      -6.6591278027     6.1084241740     1.6206490846
   16      C      -6.5214148117     0.0131614149     2.0563133163
   17      C      -4.1341482986     5.5893235602     1.0583155901
   18      C      -7.1368410512    -0.6497769695     0.9875182148
   19      C      -7.7019480996    -1.9083787786     1.1770713630
   20      C      -7.6776036268    -2.5378233889     2.4136293034
   21      C      -7.0678019899    -1.8731934609     3.4724413480
   22      C      -6.4956189100    -0.6173631816     3.3084957567
   23      C      -5.8539792114     0.0764738522     4.4773396047
   24      C      -7.1993379042    -0.0032317418    -0.3693035019
   25      H      -8.1720974664    -2.4089904703     0.3363375403
   26      C      -8.2960765150    -3.8924169379     2.6103590014
   27      H      -7.0366878482    -2.3471108766     4.4488491234
   28      H      -4.8193873268     0.3500688868     4.2602365184
   29      H      -5.8535543456    -0.5500037145     5.3694612253
   30      H      -6.3774332902     1.0034807681     4.7225917566
   31      H      -7.7731638617     0.9258341661    -0.3412989416
   32      H      -7.6671944145    -0.6571063746    -1.1056783099
   33      H      -6.2051921904     0.2546737036    -0.7397387473
   34      H      -8.6476187912    -4.3124208796     1.6682845319
   35      H      -9.1514433060    -3.8462472058     3.2873480138
   36      H      -7.5852174896    -4.5987252399     3.0422185653
   37      C      -3.5424655759     6.3292009821     2.0868516211
   38      C      -3.0037156493     7.5858538928     1.8230305745
   39      C      -3.0366889058     8.1347857000     0.5480704193
   40      C      -3.6333918789     7.3958454183    -0.4684154529
   41      C      -4.1782068393     6.1399125799    -0.2306184127
   42      C      -4.8115102201     5.3664135270    -1.3547608908
   43      C      -3.4826792561     5.7565831337     3.4762552584
   44      H      -2.5470532624     8.1469914306     2.6320896160
   45      C      -2.4397786756     9.4824478772     0.2610530110
   46      H      -3.6742790808     7.8100494213    -1.4714426304
   47      H      -4.8312009208     5.9425747919    -2.2800373125
   48      H      -5.8391583027     5.0833868834    -1.1171855222
   49      H      -4.2724056891     4.4374854909    -1.5553188537
   50      H      -4.4786142467     5.5118372788     3.8515358649
   51      H      -3.0242474668     6.4499779379     4.1813816979
   52      H      -2.9045905317     4.8299549794     3.4982237802
   53      H      -2.0871816487     9.9668883291     1.1711673042
   54      H      -3.1636063583    10.1494285641    -0.2100434517
   55      H      -1.5888893620     9.4036065056    -0.4185495253
   56      C      -0.4464271404     1.6695134340    -0.0833451300
   57      C     -10.3334327104     3.7986060552     2.7168183063
   58      C     -11.3483775213     2.9098094151     3.0300441337
   59      C       1.7467865587     1.9069740494    -1.0209353001
   60      C       1.9190220700     0.5349934924    -1.1081289058
   61      C       0.8912776603    -0.3344454696    -0.6790791317
   62      C     -12.9573834955     4.7489844911     3.0265003754
   63      C     -12.6514656653     3.4075866143     3.1837894682
   64      H     -13.4468649269     2.7155880988     3.4282384413
   65      H       2.8399337429     0.1333071894    -1.5119912256
   66      C      -0.2535865034     0.2759995099    -0.1738667012
   67      H      -4.0735429750    -0.5229306299     1.3018495673
   68      C       0.5753430237     2.4956130053    -0.5175924840
   69      H       2.5452496899     2.5532589378    -1.3607635641
   70      H       0.4860108588     3.5736997185    -0.4817225276
   71      H      -2.1214024073     3.9817384657     0.5096805144
   72      C      -1.3868472846    -0.4255694491     0.2735817477
   73      C       0.8790657000    -1.7482168901    -0.7224440187
   74      C      -0.2324385338    -2.4484985888    -0.2835910602
   75      C      -1.3777285798    -1.8088986342     0.2164930143
   76      H      -0.2207168891    -3.5296699364    -0.3323147101
   77      H      -2.2282081768    -2.3969194350     0.5384079387
   78      H      -8.5031157442     1.5909946739     2.5844524945
   79      H     -11.1590610083     1.8506110877     3.1506459369
   80      C     -10.6519693987     5.1584899391     2.5677573409
   81      C      -9.5128276278     5.9162985625     2.2295437668
   82      C      -9.6830149180     7.2740195528     2.0176309886
   83      C     -10.9696546123     7.8222338111     2.1500145149
   84      C     -12.0788276493     7.0619974937     2.4828900494
   85      C     -11.9393339777     5.6742739732     2.7029727867
   86      H     -11.0984492885     8.8830091193     1.9800497754
   87      H     -13.0505506472     7.5323690830     2.5674174293
   88      H      -8.8534251221     7.9141739835     1.7466743602
   89      H     -13.9799702873     5.0848587637     3.1464482857
   90      H       1.7360204619    -2.2883234741    -1.1051944607
 ----------------------------------------------------------------
