 Q-Chem 5.0, Q-Chem, Inc., Pleasanton, CA (2017)
 Q-Chem 5.0.1 for Intel X86 EM64T Linux

User input:
--------------------------------------------------------------
$rem
threads 8
jobtype	sp
method PBEh-3c
basis def2-mSVP
mem_static	1024
mem_total	8000
sym_ignore	true
unrestricted true
scf_convergence	9
solvent_method	pcm
$end

$molecule
read incoords.mol
$end

$solvent
dielectric	2.03
$end

$pcm
theory iefpcm
$end
--------------------------------------------------------------

   17   -1973.7140174453      2.97E-10 Convergence criterion met
 Total energy in the final basis set = -1973.71401745
 Total job time:  2305.52s(wall), 8467.05s(cpu)
        *  Thank you very much for using Q-Chem.  Have a nice day.  *
 Q-Chem 5.0, Q-Chem, Inc., Pleasanton, CA (2017)
 Q-Chem 5.0.1 for Intel X86 EM64T Linux

User input:
--------------------------------------------------------------

$rem
threads 8
jobtype opt
method PBEh-3c
basis def2-mSVP
scf_guess	read
mem_static      1024
mem_total       8000
sym_ignore      true
unrestricted true
mom_start       1
scf_algorithm	diis
scf_max_cycles	250
solvent_method	pcm
geom_opt_tol_energy 25
geom_opt_tol_gradient 75
$end

$solvent
dielectric      2.03
$end
$pcm
theory iefpcm
$end

$occupied
1 2 3 4 5 6 7 8 9 10 11 12 13 14 15 16 17 18 19 20 21 22 23 24 25 26 27 28 29 30 31 32 33 34 35 36 37 38 39 40 41 42 43 44 45 46 47 48 49 50 51 52 53 54 55 56 57 58 59 60 61 62 63 64 65 66 67 68 69 70 71 72 73 74 75 76 77 78 79 80 81 82 83 84 85 86 87 88 89 90 91 92 93 94 95 96 97 98 99 100 101 102 103 104 105 106 107 108 109 110 111 112 113 114 115 116 117 118 119 120 121 122 123 124 125 126 127 128 129 130 131 132 133 134 135 136 137 138 139 140 141 142 143 144 145 146 147 148 149 150 151 152 153 154 155 156 157 158 159 160 161 162 163 164 165 166 167 168 169 170 171 172 173  175
1 2 3 4 5 6 7 8 9 10 11 12 13 14 15 16 17 18 19 20 21 22 23 24 25 26 27 28 29 30 31 32 33 34 35 36 37 38 39 40 41 42 43 44 45 46 47 48 49 50 51 52 53 54 55 56 57 58 59 60 61 62 63 64 65 66 67 68 69 70 71 72 73 74 75 76 77 78 79 80 81 82 83 84 85 86 87 88 89 90 91 92 93 94 95 96 97 98 99 100 101 102 103 104 105 106 107 108 109 110 111 112 113 114 115 116 117 118 119 120 121 122 123 124 125 126 127 128 129 130 131 132 133 134 135 136 137 138 139 140 141 142 143 144 145 146 147 148 149 150 151 152 153 154 155 156 157 158 159 160 161 162 163 164 165 166 167 168 169 170 171 172 173 174
$end

$molecule
read incoords.mol
$end

--------------------------------------------------------------

   20   -1973.6036541333      8.30E-09 Convergence criterion met
 Total energy in the final basis set = -1973.60365413
   31   -1973.6071032795      6.29E-09 Convergence criterion met
 Total energy in the final basis set = -1973.60710328
   27   -1973.6070078590      9.51E-09 Convergence criterion met
 Total energy in the final basis set = -1973.60700786
   25   -1973.6067638755      9.92E-09 Convergence criterion met
 Total energy in the final basis set = -1973.60676388
   27   -1973.6066019716      9.24E-09 Convergence criterion met
 Total energy in the final basis set = -1973.60660197
   34   -1973.6065713015      9.76E-09 Convergence criterion met
 Total energy in the final basis set = -1973.60657130
   26   -1973.6065297375      7.32E-09 Convergence criterion met
 Total energy in the final basis set = -1973.60652974

                    Orbital Energies (a.u.)
 --------------------------------------------------------------

 Alpha MOs
 -- Occupied --
-10.472 -10.471 -10.471 -10.471 -10.471 -10.470 -10.470 -10.470
-10.470 -10.469 -10.469 -10.469 -10.469 -10.468 -10.466 -10.466
-10.466 -10.465 -10.458 -10.458 -10.456 -10.456 -10.456 -10.455
-10.453 -10.453 -10.452 -10.451 -10.440 -10.439 -10.438 -10.438
-10.438 -10.437 -10.423 -10.423 -10.423 -10.423 -10.422 -10.422
-10.422 -10.422 -10.421 -10.421 -10.417 -10.416 -10.416 -10.416
-10.406 -10.405  -6.909  -6.907  -1.019  -1.019  -0.960  -0.958
 -0.946  -0.946  -0.938  -0.937  -0.905  -0.896  -0.863  -0.860
 -0.858  -0.858  -0.853  -0.853  -0.852  -0.851  -0.819  -0.811
 -0.809  -0.801  -0.772  -0.772  -0.750  -0.748  -0.748  -0.747
 -0.733  -0.732  -0.731  -0.721  -0.691  -0.681  -0.678  -0.664
 -0.648  -0.643  -0.633  -0.629  -0.629  -0.629  -0.597  -0.596
 -0.589  -0.587  -0.585  -0.576  -0.575  -0.544  -0.544  -0.540
 -0.531  -0.531  -0.530  -0.528  -0.518  -0.508  -0.503  -0.495
 -0.493  -0.492  -0.491  -0.486  -0.486  -0.485  -0.482  -0.475
 -0.474  -0.473  -0.471  -0.466  -0.465  -0.458  -0.458  -0.457
 -0.454  -0.454  -0.447  -0.447  -0.446  -0.442  -0.442  -0.439
 -0.438  -0.437  -0.430  -0.425  -0.422  -0.419  -0.407  -0.403
 -0.403  -0.403  -0.402  -0.396  -0.396  -0.396  -0.392  -0.384
 -0.374  -0.373  -0.373  -0.369  -0.369  -0.362  -0.341  -0.338
 -0.333  -0.323  -0.310  -0.304  -0.303  -0.303  -0.281  -0.264
 -0.264  -0.256  -0.253  -0.253  -0.242  -0.152

 Beta MOs
 -- Occupied --
-10.473 -10.472 -10.472 -10.471 -10.471 -10.471 -10.471 -10.470
-10.470 -10.470 -10.469 -10.469 -10.469 -10.468 -10.466 -10.466
-10.466 -10.466 -10.461 -10.460 -10.459 -10.458 -10.454 -10.454
-10.451 -10.451 -10.451 -10.451 -10.440 -10.439 -10.438 -10.438
-10.438 -10.437 -10.423 -10.423 -10.423 -10.423 -10.422 -10.422
-10.422 -10.422 -10.421 -10.421 -10.416 -10.416 -10.416 -10.416
-10.407 -10.406  -6.906  -6.904  -1.020  -1.019  -0.961  -0.958
 -0.946  -0.946  -0.939  -0.939  -0.906  -0.899  -0.864  -0.860
 -0.858  -0.858  -0.855  -0.853  -0.853  -0.852  -0.817  -0.815
 -0.814  -0.800  -0.772  -0.772  -0.749  -0.748  -0.748  -0.746
 -0.734  -0.732  -0.731  -0.722  -0.692  -0.682  -0.675  -0.663
 -0.649  -0.645  -0.632  -0.629  -0.629  -0.628  -0.597  -0.596
 -0.588  -0.587  -0.586  -0.576  -0.574  -0.544  -0.544  -0.539
 -0.531  -0.530  -0.530  -0.529  -0.517  -0.508  -0.503  -0.496
 -0.493  -0.492  -0.491  -0.488  -0.488  -0.486  -0.483  -0.475
 -0.474  -0.473  -0.471  -0.466  -0.464  -0.458  -0.457  -0.457
 -0.455  -0.454  -0.447  -0.446  -0.446  -0.442  -0.441  -0.438
 -0.437  -0.437  -0.429  -0.428  -0.423  -0.421  -0.406  -0.403
 -0.403  -0.402  -0.402  -0.401  -0.401  -0.396  -0.391  -0.384
 -0.374  -0.372  -0.371  -0.369  -0.368  -0.363  -0.352  -0.337
 -0.331  -0.322  -0.322  -0.318  -0.301  -0.301  -0.275  -0.266
 -0.264  -0.264  -0.261  -0.256  -0.252  -0.247

          Ground-State Mulliken Net Atomic Charges

     Atom                 Charge (a.u.)    Spin (a.u.)
  --------------------------------------------------------
      1 C                    -0.144278       0.052594
      2 C                    -0.141182       0.035002
      3 B                     0.599849       0.291983
      4 C                    -0.141012       0.033587
      5 C                    -0.143970       0.053057
      6 B                     0.606039       0.281916
      7 C                    -0.383347      -0.197298
      8 C                     0.100003       0.104850
      9 C                     0.078663       0.104632
     10 C                    -0.377231      -0.191388
     11 C                    -0.385168      -0.198923
     12 C                     0.102834       0.105788
     13 C                     0.075110       0.106242
     14 C                    -0.372540      -0.195525
     15 H                     0.242860       0.010238
     16 C                    -0.214378      -0.025407
     17 C                    -0.207810      -0.024327
     18 C                     0.044680       0.003764
     19 C                    -0.357955      -0.000910
     20 C                     0.120605       0.000766
     21 C                    -0.348844      -0.001044
     22 C                     0.051998       0.003596
     23 C                    -0.753145      -0.000257
     24 C                    -0.754195      -0.000769
     25 H                     0.203074       0.000385
     26 C                    -0.715889      -0.000065
     27 H                     0.202977       0.000391
     28 H                     0.243694      -0.000708
     29 H                     0.231979       0.001512
     30 H                     0.240592      -0.000452
     31 H                     0.242762      -0.000477
     32 H                     0.232199       0.001532
     33 H                     0.243353      -0.000578
     34 H                     0.229073      -0.000002
     35 H                     0.232095       0.000031
     36 H                     0.230889       0.000021
     37 C                     0.049744       0.003493
     38 C                    -0.357873      -0.000943
     39 C                     0.120608       0.000819
     40 C                    -0.350923      -0.000921
     41 C                     0.044763       0.003506
     42 C                    -0.753568      -0.000739
     43 C                    -0.756186      -0.000032
     44 H                     0.203219       0.000361
     45 C                    -0.715902      -0.000068
     46 H                     0.202463       0.000400
     47 H                     0.231998       0.001517
     48 H                     0.243125      -0.000672
     49 H                     0.242092      -0.000372
     50 H                     0.243338      -0.000594
     51 H                     0.232373       0.001591
     52 H                     0.242823      -0.000606
     53 H                     0.229333      -0.000001
     54 H                     0.230441       0.000025
     55 H                     0.231900       0.000035
     56 C                     0.189277      -0.090690
     57 C                     0.190812      -0.089915
     58 C                    -0.375102       0.021665
     59 C                    -0.209289      -0.015591
     60 C                    -0.340809      -0.040662
     61 C                     0.250955       0.006926
     62 C                    -0.337256      -0.040328
     63 C                    -0.211523      -0.013317
     64 H                     0.246996       0.001035
     65 H                     0.242100       0.001925
     66 C                    -0.067112       0.036754
     67 H                     0.243302       0.009694
     68 C                    -0.380974       0.023518
     69 H                     0.246662       0.001158
     70 H                     0.242011      -0.000879
     71 H                     0.242531       0.010133
     72 C                     0.190423      -0.087849
     73 C                    -0.338394      -0.037068
     74 C                    -0.211421      -0.013965
     75 C                    -0.375125       0.022928
     76 H                     0.246634       0.001050
     77 H                     0.242280      -0.000900
     78 H                     0.244060       0.009891
     79 H                     0.242337      -0.000811
     80 C                    -0.065759       0.037469
     81 C                     0.190736      -0.091980
     82 C                    -0.383486       0.023121
     83 C                    -0.208498      -0.015428
     84 C                    -0.340629      -0.042211
     85 C                     0.251234       0.007832
     86 H                     0.246935       0.001154
     87 H                     0.242481       0.002002
     88 H                     0.242159      -0.000839
     89 H                     0.241900       0.001896
     90 H                     0.241396       0.001725
  --------------------------------------------------------
  Sum of atomic charges =    -0.000000

                    Cartesian Multipole Moments
 -----------------------------------------------------------------
    Charge (ESU x 10^10)
                -0.0000
    Dipole Moment (Debye)
         X      -0.6224      Y      -0.1696      Z      -1.3031
       Tot       1.4541
    Quadrupole Moments (Debye-Ang)
        XX    -214.0877     XY     -24.9982     YY    -259.3306
        XZ     -17.4168     YZ      -0.8876     ZZ    -300.2439

             Standard Nuclear Orientation (Angstroms)
    I     Atom           X                Y                Z
 ----------------------------------------------------------------
    1      C      -6.2005320167     3.9959956839     1.7653820502
    2      C      -6.7288973456     2.7071171134     2.0350549138
    3      B      -5.8767249985     1.4439905226     1.8619950783
    4      C      -4.4252903401     1.6076238776     1.3942982672
    5      C      -3.8716005440     2.8935004208     1.1595891394
    6      B      -4.7292615281     4.1580810713     1.3482650450
    7      C      -2.5345899522     2.9928951289     0.6873791399
    8      C      -1.7871673498     1.8624336046     0.4325660231
    9      C      -2.3568954059     0.5753151592     0.6561600180
   10      C      -3.6385847660     0.4564094518     1.1362335005
   11      C      -7.0626633717     5.1252013845     1.8304891082
   12      C      -8.3968009803     4.9791288128     2.1462429070
   13      C      -8.9088069202     3.6843830856     2.4503467585
   14      C      -8.0933461374     2.5811051306     2.3974856175
   15      H      -6.6578110744     6.1056362376     1.6022016503
   16      C      -6.5118087725     0.0135915000     2.0820982451
   17      C      -4.1263745880     5.5893096067     1.0785469827
   18      C      -7.1268310036    -0.6565338190     1.0174524218
   19      C      -7.6900208213    -1.9145703639     1.2148049292
   20      C      -7.6642745106    -2.5366097717     2.4549888926
   21      C      -7.0543522917    -1.8652709865     3.5092658915
   22      C      -6.4838195162    -0.6097452024     3.3377101626
   23      C      -5.8394366074     0.0907176842     4.5008745773
   24      C      -7.1887822380    -0.0191991179    -0.3437094733
   25      H      -8.1606860614    -2.4203277596     0.3774295190
   26      C      -8.2825351553    -3.8899319638     2.6605506253
   27      H      -7.0219132001    -2.3335372321     4.4883524202
   28      H      -4.8031763890     0.3561653735     4.2815852190
   29      H      -5.8425040600    -0.5281114677     5.3984022863
   30      H      -6.3571698294     1.0228057231     4.7385206184
   31      H      -7.7423167579     0.9219808243    -0.3186146497
   32      H      -7.6769298142    -0.6690697538    -1.0704972575
   33      H      -6.1928520435     0.2138680021    -0.7258383089
   34      H      -8.6259924844    -4.3199798295     1.7199951749
   35      H      -9.1436396561    -3.8379310749     3.3298099583
   36      H      -7.5744223746    -4.5909773721     3.1052093999
   37      C      -3.5668691036     6.3316165037     2.1234690836
   38      C      -3.0289774777     7.5914890885     1.8745644349
   39      C      -3.0340420165     8.1423144165     0.6001010654
   40      C      -3.6013925126     7.4022066997    -0.4318632792
   41      C      -4.1433426039     6.1421795337    -0.2098685041
   42      C      -4.7496033546     5.3688887012    -1.3488591915
   43      C      -3.5484063078     5.7627839994     3.5154965763
   44      H      -2.5952923423     8.1541038285     2.6951528129
   45      C      -2.4392634190     9.4944859092     0.3305093993
   46      H      -3.6211122128     7.8186006389    -1.4346309962
   47      H      -4.7528846934     5.9474548380    -2.2729352245
   48      H      -5.7808804066     5.0812771619    -1.1328981203
   49      H      -4.2037702074     4.4423155862    -1.5416946139
   50      H      -4.5590985758     5.5641213494     3.8787216765
   51      H      -3.0703551776     6.4399985096     4.2234726714
   52      H      -3.0116657815     4.8123425593     3.5509916707
   53      H      -2.1104864510     9.9783968992     1.2497599422
   54      H      -3.1566659119    10.1583992239    -0.1545536583
   55      H      -1.5727165485     9.4233972118    -0.3298759322
   56      C      -0.4556342848     1.6646335069    -0.1152807613
   57      C     -10.3289523423     3.8009254877     2.7110633820
   58      C     -11.3436355442     2.9140235117     3.0283988794
   59      C       1.7270160406     1.9002354773    -1.0773593044
   60      C       1.8941046007     0.5288902555    -1.1735942184
   61      C       0.8686273579    -0.3395735481    -0.7368183509
   62      C     -12.9577977242     4.7485874659     2.9883994682
   63      C     -12.6493705946     3.4107807043     3.1661536574
   64      H     -13.4442814794     2.7194675149     3.4139407197
   65      H       2.8086608883     0.1259671927    -1.5906482464
   66      C      -0.2678692827     0.2713867958    -0.2145838815
   67      H      -4.0728258594    -0.5245683510     1.3020129443
   68      C       0.5626994076     2.4898863430    -0.5570748778
   69      H       2.5229701755     2.5463536202    -1.4232244868
   70      H       0.4776146686     3.5679803176    -0.5150535956
   71      H      -2.1162204343     3.9770277359     0.5048424318
   72      C      -1.3986200977    -0.4291054890     0.2423494375
   73      C       0.8511252891    -1.7531934734    -0.7880447754
   74      C      -0.2571696235    -2.4521697419    -0.3401509210
   75      C      -1.3946721287    -1.8117702713     0.1773014868
   76      H      -0.2505580233    -3.5330310676    -0.3951112265
   77      H      -2.2425437794    -2.3998637068     0.5056740112
   78      H      -8.4941599234     1.5945837142     2.6079196834
   79      H     -11.1535729598     1.8569119921     3.1645111145
   80      C     -10.6503066685     5.1583872442     2.5424402771
   81      C      -9.5114240801     5.9140697282     2.1998228645
   82      C      -9.6835483501     7.2669826481     1.9647553282
   83      C     -10.9734672914     7.8135926764     2.0787702615
   84      C     -12.0821312345     7.0559182719     2.4158664336
   85      C     -11.9398483776     5.6723243818     2.6596376018
   86      H     -11.1039739994     8.8709005745     1.8896443659
   87      H     -13.0563413219     7.5238796885     2.4846499805
   88      H      -8.8542295477     7.9054966452     1.6895871558
   89      H     -13.9821749427     5.0833911325     3.0958812666
   90      H       1.7016574779    -2.2934813210    -1.1847547709
 ----------------------------------------------------------------
