 Q-Chem 5.1, Q-Chem, Inc., Pleasanton, CA (2018)
 Q-Chem 5.1.1 for Intel X86 EM64T Linux

User input:
--------------------------------------------------------------
$rem
threads 8
jobtype	sp
method PBEh-3c
basis def2-mSVP
mem_static	1024
mem_total	8000
sym_ignore	true
unrestricted true
scf_convergence	9
solvent_method	pcm
$end

$molecule
read incoords.mol
$end

$solvent
dielectric	2.03
$end

$pcm
theory iefpcm
$end
--------------------------------------------------------------

   16   -1973.7052905901      6.19e-10  Convergence criterion met
 Total energy in the final basis set =    -1973.7052905901
 Total job time:  1861.93s(wall), 13636.71s(cpu)
        *  Thank you very much for using Q-Chem.  Have a nice day.  *
 Q-Chem 5.1, Q-Chem, Inc., Pleasanton, CA (2018)
 Q-Chem 5.1.1 for Intel X86 EM64T Linux

User input:
--------------------------------------------------------------

$rem
threads 8
jobtype opt
method PBEh-3c
basis def2-mSVP
scf_guess	read
mem_static      1024
mem_total       8000
sym_ignore      true
unrestricted true
mom_start       1
scf_algorithm	diis
scf_max_cycles	250
solvent_method	pcm
geom_opt_tol_energy 25
geom_opt_tol_gradient 75
$end

$solvent
dielectric      2.03
$end
$pcm
theory iefpcm
$end

$occupied
1 2 3 4 5 6 7 8 9 10 11 12 13 14 15 16 17 18 19 20 21 22 23 24 25 26 27 28 29 30 31 32 33 34 35 36 37 38 39 40 41 42 43 44 45 46 47 48 49 50 51 52 53 54 55 56 57 58 59 60 61 62 63 64 65 66 67 68 69 70 71 72 73 74 75 76 77 78 79 80 81 82 83 84 85 86 87 88 89 90 91 92 93 94 95 96 97 98 99 100 101 102 103 104 105 106 107 108 109 110 111 112 113 114 115 116 117 118 119 120 121 122 123 124 125 126 127 128 129 130 131 132 133 134 135 136 137 138 139 140 141 142 143 144 145 146 147 148 149 150 151 152 153 154 155 156 157 158 159 160 161 162 163 164 165 166 167 168 169 170 171 172 173  175
1 2 3 4 5 6 7 8 9 10 11 12 13 14 15 16 17 18 19 20 21 22 23 24 25 26 27 28 29 30 31 32 33 34 35 36 37 38 39 40 41 42 43 44 45 46 47 48 49 50 51 52 53 54 55 56 57 58 59 60 61 62 63 64 65 66 67 68 69 70 71 72 73 74 75 76 77 78 79 80 81 82 83 84 85 86 87 88 89 90 91 92 93 94 95 96 97 98 99 100 101 102 103 104 105 106 107 108 109 110 111 112 113 114 115 116 117 118 119 120 121 122 123 124 125 126 127 128 129 130 131 132 133 134 135 136 137 138 139 140 141 142 143 144 145 146 147 148 149 150 151 152 153 154 155 156 157 158 159 160 161 162 163 164 165 166 167 168 169 170 171 172 173 174
$end

$molecule
read
$end

--------------------------------------------------------------

   24   -1973.6077486899      7.23E-09 Convergence criterion met
 Total energy in the final basis set = -1973.60774869
   19   -1973.6079484141      8.30E-09 Convergence criterion met
 Total energy in the final basis set = -1973.60794841
   18   -1973.6078438625      9.70E-09 Convergence criterion met
 Total energy in the final basis set = -1973.60784386
   18   -1973.6078191173      9.48E-09 Convergence criterion met
 Total energy in the final basis set = -1973.60781912
   18   -1973.6078189481      9.72E-09 Convergence criterion met
 Total energy in the final basis set = -1973.60781895
   19   -1973.6078256195      6.44E-09 Convergence criterion met
 Total energy in the final basis set = -1973.60782562
   19   -1973.6078291451      6.09E-09 Convergence criterion met
 Total energy in the final basis set = -1973.60782915
   19   -1973.6078299977      5.96E-09 Convergence criterion met
 Total energy in the final basis set = -1973.60783000

             Standard Nuclear Orientation (Angstroms)
    I     Atom           X                Y                Z
 ----------------------------------------------------------------
    1      C       0.0366559695    -0.0011111708     0.0670803947
    2      C       0.0303545933     0.0043314368     1.4843009576
    3      H       0.9696991089     0.0120591797     2.0312944796
    4      C      -1.1549395259     0.0042414968     2.1779672951
    5      C      -2.3888757672    -0.0036595905     1.4627448021
    6      C      -2.4025630273    -0.0103405759     0.0894803361
    7      H      -3.3470189271    -0.0165399626    -0.4453326294
    8      C      -1.2034966490    -0.0092996774    -0.6419427659
    9      C      -1.4747706010     0.0113669129     3.6095053134
   10      C      -0.7550973983     0.0210211564     4.7769407607
   11      H       0.3279742876     0.0254016995     4.7816694236
   12      C      -2.8827297633     0.0065697304     3.7001548478
   13      C      -3.6015785106     0.0107182172     4.8915378944
   14      C      -3.4807285117    -0.0025544192     2.4243877967
   15      C      -4.8504999075    -0.0081300454     2.3340124900
   16      H      -5.3597416421    -0.0152340522     1.3779284677
   17      C      -1.4571186658     0.0255731627     6.0056330058
   18      H      -0.8854868924     0.0334009629     6.9248777191
   19      C      -2.8313948541     0.0206270394     6.0783743157
   20      H      -3.3218163946     0.0244815355     7.0441640923
   21      C      -5.0142544770     0.0047813859     4.7738276099
   22      H      -5.6321884973     0.0075880688     5.6634498309
   23      C      -5.6036182261    -0.0044487087     3.5301464247
   24      H      -6.6841471965    -0.0088985383     3.4608055671
   25      B       1.3344315439    -0.0031538675    -0.7372182988
   26      C       1.3378367523     0.0068697996    -2.2656314378
   27      C       2.5421836493     0.0186977182    -3.0120181794
   28      H       3.5009260975     0.0233711922    -2.4999390491
   29      C       2.5129195945     0.0282470831    -4.3841133409
   30      C       1.2587161354     0.0234732746    -5.0631021078
   31      C       0.0816284467     0.0093898343    -4.3571202398
   32      H      -0.8672679925     0.0055377974    -4.8839547185
   33      C       0.0863658799     0.0001770508    -2.9523543056
   34      C       3.5681885891     0.0443289738    -5.4039951297
   35      C       4.9400923444     0.0561313680    -5.4010555564
   36      H       5.5104410271     0.0546379373    -4.4803252484
   37      C       2.9102009318     0.0478132101    -6.6518694377
   38      C       3.5533621013     0.0622494848    -7.8873733692
   39      C       1.5098095381     0.0355921002    -6.4980199193
   40      C       0.7218468570     0.0375691407    -7.6229252106
   41      H      -0.3596595135     0.0287046124    -7.5630349966
   42      C       5.6225935587     0.0708798905    -6.6408467059
   43      H       6.7050770702     0.0802418099    -6.6328086787
   44      C       4.9674097740     0.0740027639    -7.8509080380
   45      H       5.5343359435     0.0857555178    -8.7740025102
   46      C       1.3511470814     0.0517870445    -8.8890141603
   47      H       0.7289426221     0.0532873412    -9.7752032148
   48      C       2.7192851330     0.0639380178    -9.0334904254
   49      H       3.1584024601     0.0748641243   -10.0237348494
   50      B      -1.2422720778    -0.0166855499    -2.1796214648
   51      C       2.7085337136    -0.0485415176     0.0062576763
   52      C       3.3836166378     1.1697722087     0.3748335495
   53      C       4.5561031624     1.0971608561     1.0700531480
   54      H       5.0708222277     2.0031069211     1.3685561476
   55      C       5.1265937322    -0.1523021096     1.4172962094
   56      C       4.4843715281    -1.3456074928     1.0380286551
   57      H       4.9375111420    -2.2921640208     1.3060627846
   58      C       3.3076293369    -1.3202235387     0.3380681607
   59      C       6.4036264524    -0.1819528872     2.1731204641
   60      H       6.7418213100    -1.1941619004     2.3802452484
   61      H       7.1858681182     0.3396813926     1.6163898912
   62      H       6.2946235959     0.3503051481     3.1211771770
   63      C       2.6167731952    -2.5688087427    -0.0856030682
   64      H       3.1651793926    -3.4588191303     0.2171903519
   65      H       2.4877881736    -2.5862262145    -1.1698617538
   66      H       1.6113312063    -2.6136540799     0.3388180641
   67      C       2.7646188797     2.4694123324    -0.0089681653
   68      H       3.3635888575     3.3167695221     0.3195266897
   69      H       2.6367524594     2.5278280178    -1.0917495424
   70      H       1.7644541406     2.5588307811     0.4202960896
   71      C      -2.6174941762    -0.0441517333    -2.9609472932
   72      C      -3.2559555018     1.1438448085    -3.3350569559
   73      C      -4.4536724927     1.1032829900    -4.0440802414
   74      H      -4.9327228432     2.0352417382    -4.3274435437
   75      C      -5.0479876239    -0.0997600887    -4.3987257414
   76      C      -4.4087731329    -1.2769673437    -4.0259196359
   77      H      -4.8532464196    -2.2304627535    -4.2953997583
   78      C      -3.2133763172    -1.2629165779    -3.3182389811
   79      C      -6.3468525627    -0.1397364217    -5.1519957278
   80      H      -6.6578285862     0.8556671712    -5.4680339241
   81      H      -6.2734313340    -0.7620131912    -6.0454915111
   82      H      -7.1499232077    -0.5545413568    -4.5393403367
   83      C      -2.6423600837     2.4688384978    -2.9793452618
   84      H      -3.2620848603     3.3026080275    -3.3102199248
   85      H      -2.5023555568     2.5653126137    -1.9008203163
   86      H      -1.6575221568     2.5851316241    -3.4369324080
   87      C      -2.5515342586    -2.5593586951    -2.9424593847
   88      H      -3.1382751490    -3.4202955787    -3.2640335553
   89      H      -2.4121654187    -2.6365864368    -1.8622599273
   90      H      -1.5613966651    -2.6450667857    -3.3954680566
 ----------------------------------------------------------------

   19   -1973.6078301588      5.97E-09 Convergence criterion met
 Total energy in the final basis set = -1973.60783016
 Final energy is   -1973.60783015878
 **  OPTIMIZATION CONVERGED  **

                    Orbital Energies (a.u.)
 --------------------------------------------------------------

 Alpha MOs
 -- Occupied --
-10.535 -10.516 -10.512 -10.504 -10.494 -10.492 -10.474 -10.452
-10.451 -10.451 -10.451 -10.451 -10.450 -10.450 -10.450 -10.448
-10.448 -10.448 -10.448 -10.446 -10.446 -10.446 -10.446 -10.445
-10.445 -10.445 -10.444 -10.443 -10.443 -10.441 -10.441 -10.437
-10.437 -10.434 -10.434 -10.433 -10.431 -10.431 -10.431 -10.430
-10.419 -10.419 -10.418 -10.416 -10.415 -10.409 -10.409 -10.407
-10.407 -10.399  -6.911  -6.901  -1.012  -0.999  -0.999  -0.944
 -0.941  -0.939  -0.923  -0.920  -0.919  -0.919  -0.889  -0.881
 -0.855  -0.851  -0.839  -0.838  -0.833  -0.833  -0.824  -0.807
 -0.806  -0.801  -0.796  -0.789  -0.785  -0.766  -0.741  -0.741
 -0.719  -0.715  -0.712  -0.704  -0.693  -0.684  -0.674  -0.664
 -0.663  -0.649  -0.634  -0.630  -0.622  -0.622  -0.604  -0.595
 -0.580  -0.579  -0.574  -0.568  -0.567  -0.560  -0.559  -0.533
 -0.529  -0.528  -0.524  -0.519  -0.514  -0.512  -0.511  -0.509
 -0.496  -0.493  -0.492  -0.491  -0.490  -0.486  -0.481  -0.480
 -0.477  -0.474  -0.472  -0.470  -0.469  -0.466  -0.464  -0.462
 -0.462  -0.451  -0.451  -0.450  -0.450  -0.447  -0.443  -0.440
 -0.434  -0.432  -0.429  -0.427  -0.425  -0.417  -0.416  -0.410
 -0.408  -0.408  -0.397  -0.393  -0.384  -0.383  -0.383  -0.381
 -0.378  -0.374  -0.365  -0.364  -0.360  -0.356  -0.353  -0.335
 -0.330  -0.325  -0.320  -0.309  -0.302  -0.286  -0.284  -0.271
 -0.257  -0.253  -0.247  -0.243  -0.240  -0.154

 Beta MOs
 -- Occupied --
-10.541 -10.518 -10.513 -10.511 -10.494 -10.491 -10.474 -10.452
-10.452 -10.451 -10.451 -10.451 -10.450 -10.450 -10.450 -10.449
-10.448 -10.447 -10.447 -10.446 -10.446 -10.446 -10.445 -10.445
-10.444 -10.444 -10.444 -10.443 -10.443 -10.441 -10.441 -10.436
-10.435 -10.434 -10.434 -10.433 -10.432 -10.431 -10.431 -10.430
-10.420 -10.420 -10.418 -10.416 -10.415 -10.409 -10.409 -10.406
-10.406 -10.399  -6.907  -6.899  -1.023  -0.999  -0.999  -0.943
 -0.940  -0.939  -0.933  -0.925  -0.918  -0.918  -0.889  -0.881
 -0.854  -0.851  -0.838  -0.837  -0.832  -0.832  -0.826  -0.809
 -0.807  -0.801  -0.795  -0.794  -0.784  -0.765  -0.741  -0.740
 -0.718  -0.713  -0.711  -0.704  -0.698  -0.689  -0.673  -0.664
 -0.660  -0.648  -0.634  -0.630  -0.622  -0.622  -0.605  -0.597
 -0.579  -0.578  -0.572  -0.569  -0.568  -0.560  -0.558  -0.537
 -0.534  -0.531  -0.527  -0.523  -0.514  -0.513  -0.511  -0.508
 -0.506  -0.494  -0.493  -0.492  -0.492  -0.486  -0.480  -0.480
 -0.477  -0.474  -0.471  -0.469  -0.468  -0.466  -0.464  -0.463
 -0.462  -0.452  -0.452  -0.450  -0.450  -0.447  -0.442  -0.440
 -0.435  -0.434  -0.431  -0.429  -0.427  -0.424  -0.416  -0.411
 -0.410  -0.405  -0.396  -0.392  -0.384  -0.381  -0.381  -0.381
 -0.378  -0.376  -0.366  -0.362  -0.362  -0.355  -0.349  -0.340
 -0.334  -0.332  -0.319  -0.315  -0.302  -0.298  -0.282  -0.281
 -0.261  -0.256  -0.247  -0.246  -0.240  -0.234

          Ground-State Mulliken Net Atomic Charges

     Atom                 Charge (a.u.)    Spin (a.u.)
  --------------------------------------------------------
      1 C                    -0.132591      -0.055726
      2 C                    -0.411280       0.019836
      3 H                     0.188537      -0.000911
      4 C                     0.091217       0.002595
      5 C                     0.069373       0.119528
      6 C                    -0.398069      -0.078164
      7 H                     0.230194       0.003335
      8 C                    -0.145271       0.087024
      9 C                     0.190550      -0.034558
     10 C                    -0.402980       0.053935
     11 H                     0.212681      -0.003213
     12 C                    -0.074038       0.022657
     13 C                     0.240314      -0.035399
     14 C                     0.188160      -0.063731
     15 C                    -0.392679       0.090308
     16 H                     0.229576      -0.005292
     17 C                    -0.214285      -0.038446
     18 H                     0.228328       0.001941
     19 C                    -0.352632       0.050561
     20 H                     0.226620      -0.002927
     21 C                    -0.350136       0.081438
     22 H                     0.225338      -0.004852
     23 C                    -0.216290      -0.054667
     24 H                     0.232392       0.002636
     25 B                     0.555574       0.410489
     26 C                    -0.134383      -0.060731
     27 C                    -0.411977       0.018893
     28 H                     0.189706      -0.000803
     29 C                     0.090304       0.003032
     30 C                     0.068491       0.118679
     31 C                    -0.397054      -0.078383
     32 H                     0.231736       0.003219
     33 C                    -0.146425       0.086757
     34 C                     0.192455      -0.034492
     35 C                    -0.403601       0.053769
     36 H                     0.212785      -0.003201
     37 C                    -0.074638       0.022488
     38 C                     0.238446      -0.035174
     39 C                     0.189043      -0.063162
     40 C                    -0.393428       0.089523
     41 H                     0.229724      -0.005249
     42 C                    -0.214267      -0.038258
     43 H                     0.228392       0.001931
     44 C                    -0.351963       0.050296
     45 H                     0.226810      -0.002911
     46 C                    -0.216050      -0.054104
     47 H                     0.232560       0.002609
     48 C                    -0.349164       0.080404
     49 H                     0.225537      -0.004786
     50 B                     0.600940       0.250256
     51 C                    -0.112185      -0.516152
     52 C                     0.089187      -0.034984
     53 C                    -0.313994       0.035943
     54 H                     0.255993       0.000749
     55 C                     0.163780      -0.395232
     56 C                    -0.327769       0.084777
     57 H                     0.256641      -0.001575
     58 C                     0.089138      -0.097611
     59 C                    -0.723209       0.029238
     60 H                     0.262645       0.000015
     61 H                     0.273679      -0.021717
     62 H                     0.273701      -0.021935
     63 C                    -0.757562       0.010113
     64 H                     0.252316       0.003067
     65 H                     0.286170      -0.009629
     66 H                     0.287528      -0.010460
     67 C                    -0.754201       0.005385
     68 H                     0.249511       0.003118
     69 H                     0.282890      -0.006331
     70 H                     0.283855      -0.007001
     71 C                    -0.203278      -0.023676
     72 C                     0.049235       0.002222
     73 C                    -0.356118      -0.000088
     74 H                     0.200351       0.000314
     75 C                     0.121031      -0.000944
     76 C                    -0.350469      -0.000147
     77 H                     0.200114       0.000311
     78 C                     0.049101       0.002357
     79 C                    -0.716114       0.000073
     80 H                     0.227878      -0.000005
     81 H                     0.229359      -0.000045
     82 H                     0.231557      -0.000058
     83 C                    -0.756829       0.000580
     84 H                     0.229406       0.001256
     85 H                     0.243376      -0.000735
     86 H                     0.242826      -0.000652
     87 C                    -0.757304       0.000594
     88 H                     0.229523       0.001271
     89 H                     0.243074      -0.000732
     90 H                     0.242581      -0.000669
  --------------------------------------------------------
  Sum of atomic charges =    -0.000000

                    Cartesian Multipole Moments
 -----------------------------------------------------------------
    Charge (ESU x 10^10)
                -0.0000
    Dipole Moment (Debye)
         X      12.5141      Y      -0.3198      Z       6.9396
       Tot      14.3130
    Quadrupole Moments (Debye-Ang)
        XX    -224.6607     XY      -0.4169     YY    -298.2371
        XZ      25.3047     YZ       0.1639     ZZ    -298.1194

 Total job time:  16451.06s(wall), 63352.07s(cpu)
        *  Thank you very much for using Q-Chem.  Have a nice day.  *
