 Q-Chem 5.1, Q-Chem, Inc., Pleasanton, CA (2018)
 Q-Chem 5.1.1 for Intel X86 EM64T Linux

User input:
--------------------------------------------------------------
$rem
threads 8
jobtype	sp
method PBEh-3c
basis def2-mSVP
mem_static	1024
mem_total	8000
sym_ignore	true
unrestricted true
scf_convergence	9
solvent_method	pcm
$end

$molecule
read incoords.mol
$end

$solvent
dielectric	4.33
$end

$pcm
theory iefpcm
$end
--------------------------------------------------------------

   16   -1973.7130333526      4.95e-10  Convergence criterion met
 Total energy in the final basis set =    -1973.7130333526
 Total job time:  1906.53s(wall), 13990.72s(cpu)
        *  Thank you very much for using Q-Chem.  Have a nice day.  *
 Q-Chem 5.1, Q-Chem, Inc., Pleasanton, CA (2018)
 Q-Chem 5.1.1 for Intel X86 EM64T Linux

User input:
--------------------------------------------------------------

$rem
threads 8
jobtype opt
method PBEh-3c
basis def2-mSVP
scf_guess	read
mem_static      1024
mem_total       8000
sym_ignore      true
unrestricted true
mom_start       1
scf_algorithm	diis
scf_max_cycles	250
solvent_method	pcm
geom_opt_tol_energy 25
geom_opt_tol_gradient 75
$end

$solvent
dielectric      4.33
$end

$pcm
theory iefpcm
$end

$occupied
1 2 3 4 5 6 7 8 9 10 11 12 13 14 15 16 17 18 19 20 21 22 23 24 25 26 27 28 29 30 31 32 33 34 35 36 37 38 39 40 41 42 43 44 45 46 47 48 49 50 51 52 53 54 55 56 57 58 59 60 61 62 63 64 65 66 67 68 69 70 71 72 73 74 75 76 77 78 79 80 81 82 83 84 85 86 87 88 89 90 91 92 93 94 95 96 97 98 99 100 101 102 103 104 105 106 107 108 109 110 111 112 113 114 115 116 117 118 119 120 121 122 123 124 125 126 127 128 129 130 131 132 133 134 135 136 137 138 139 140 141 142 143 144 145 146 147 148 149 150 151 152 153 154 155 156 157 158 159 160 161 162 163 164 165 166 167 168 169 170 171 172 173  175
1 2 3 4 5 6 7 8 9 10 11 12 13 14 15 16 17 18 19 20 21 22 23 24 25 26 27 28 29 30 31 32 33 34 35 36 37 38 39 40 41 42 43 44 45 46 47 48 49 50 51 52 53 54 55 56 57 58 59 60 61 62 63 64 65 66 67 68 69 70 71 72 73 74 75 76 77 78 79 80 81 82 83 84 85 86 87 88 89 90 91 92 93 94 95 96 97 98 99 100 101 102 103 104 105 106 107 108 109 110 111 112 113 114 115 116 117 118 119 120 121 122 123 124 125 126 127 128 129 130 131 132 133 134 135 136 137 138 139 140 141 142 143 144 145 146 147 148 149 150 151 152 153 154 155 156 157 158 159 160 161 162 163 164 165 166 167 168 169 170 171 172 173 174
$end

$molecule
read
$end

--------------------------------------------------------------

   21   -1973.6207392567      7.61E-09 Convergence criterion met
 Total energy in the final basis set = -1973.62073926
   18   -1973.6210340974      8.55E-09 Convergence criterion met
 Total energy in the final basis set = -1973.62103410
   18   -1973.6209439147      8.55E-09 Convergence criterion met
 Total energy in the final basis set = -1973.62094391
   18   -1973.6209216534      8.47E-09 Convergence criterion met
 Total energy in the final basis set = -1973.62092165
   18   -1973.6209233543      8.44E-09 Convergence criterion met
 Total energy in the final basis set = -1973.62092335
   18   -1973.6209317008      8.51E-09 Convergence criterion met
 Total energy in the final basis set = -1973.62093170
   18   -1973.6209355606      8.29E-09 Convergence criterion met
 Total energy in the final basis set = -1973.62093556
   18   -1973.6209362717      8.13E-09 Convergence criterion met
 Total energy in the final basis set = -1973.62093627
   18   -1973.6209354533      7.59E-09 Convergence criterion met
 Total energy in the final basis set = -1973.62093545
   18   -1973.6209344861      7.55E-09 Convergence criterion met
 Total energy in the final basis set = -1973.62093449

             Standard Nuclear Orientation (Angstroms)
    I     Atom           X                Y                Z
 ----------------------------------------------------------------
    1      C       0.0368583341    -0.0098126132     0.0648014268
    2      C       0.0311366298    -0.0070005080     1.4818208768
    3      H       0.9704735971    -0.0031409783     2.0283397777
    4      C      -1.1541830590    -0.0068681773     2.1766829113
    5      C      -2.3893141889    -0.0110886624     1.4621243994
    6      C      -2.4040637418    -0.0143154260     0.0888169368
    7      H      -3.3501096367    -0.0175251047    -0.4433499640
    8      C      -1.2049418837    -0.0131227355    -0.6441261845
    9      C      -1.4726786994    -0.0035767793     3.6083465078
   10      C      -0.7512405225     0.0014085285     4.7754013940
   11      H       0.3318399586     0.0040382117     4.7791659524
   12      C      -2.8809668767    -0.0064941742     3.7002449851
   13      C      -3.5988173198    -0.0049031598     4.8927606177
   14      C      -3.4807659949    -0.0111237306     2.4249574664
   15      C      -4.8511827521    -0.0145845247     2.3357972301
   16      H      -5.3618547689    -0.0182584811     1.3803403605
   17      C      -1.4526804819     0.0032782143     6.0049623765
   18      H      -0.8797862903     0.0073405470     6.9234600636
   19      C      -2.8274000208     0.0002311764     6.0794480700
   20      H      -3.3170277497     0.0018405773     7.0456694837
   21      C      -5.0119901355    -0.0085356456     4.7767096054
   22      H      -5.6287138791    -0.0075770908     5.6672359176
   23      C      -5.6030736283    -0.0132848848     3.5331643466
   24      H      -6.6837281859    -0.0160472686     3.4650512126
   25      B       1.3362582387    -0.0127644557    -0.7383633821
   26      C       1.3360397637    -0.0019720134    -2.2667146450
   27      C       2.5404465934     0.0070450517    -3.0127214186
   28      H       3.4986460926     0.0075201608    -2.5001878020
   29      C       2.5119888974     0.0170409867    -4.3854314925
   30      C       1.2575489355     0.0162808058    -5.0655520389
   31      C       0.0799431742     0.0056895563    -4.3603619676
   32      H      -0.8675512169     0.0046803047    -4.8898635976
   33      C       0.0837894742    -0.0032800810    -2.9548098292
   34      C       3.5678232904     0.0289801739    -5.4045065666
   35      C       4.9403227118     0.0354988459    -5.4001871672
   36      H       5.5099852803     0.0320043423    -4.4790381101
   37      C       2.9104796721     0.0344940428    -6.6531744703
   38      C       3.5548633169     0.0459210655    -7.8885708536
   39      C       1.5096043380     0.0271182836    -6.5007968022
   40      C       0.7221010110     0.0310783346    -7.6266861756
   41      H      -0.3596036088     0.0258118155    -7.5680679688
   42      C       5.6236230139     0.0471901650    -6.6401183702
   43      H       6.7061350649     0.0523442466    -6.6308699671
   44      C       4.9694461922     0.0523482443    -7.8513276577
   45      H       5.5369300878     0.0614580175    -8.7741430688
   46      C       1.3528049430     0.0424853417    -8.8925426717
   47      H       0.7313888610     0.0455679952    -9.7793325683
   48      C       2.7216982501     0.0498192816    -9.0357836941
   49      H       3.1620590961     0.0585348638   -10.0255451798
   50      B      -1.2442965278    -0.0161307287    -2.1816181836
   51      C       2.7125775869    -0.0457210386     0.0101562163
   52      C       3.3753184492     1.1787277313     0.3771181714
   53      C       4.5479488900     1.1178272970     1.0717507396
   54      H       5.0556670627     2.0280664496     1.3687330997
   55      C       5.1302889196    -0.1275822661     1.4217778821
   56      C       4.4971297154    -1.3279353170     1.0449814593
   57      H       4.9582175999    -2.2699479363     1.3150804152
   58      C       3.3205884226    -1.3120981601     0.3463650991
   59      C       6.4059795644    -0.1439135995     2.1757502200
   60      H       6.7537026315    -1.1521298333     2.3853208172
   61      H       7.1806482122     0.3867355974     1.6164182922
   62      H       6.2911130664     0.3931967029     3.1206930431
   63      C       2.6393970288    -2.5677384848    -0.0728862368
   64      H       3.1953879220    -3.4514930309     0.2337981437
   65      H       2.5124276325    -2.5916098204    -1.1573123627
   66      H       1.6347586559    -2.6204924397     0.3526085445
   67      C       2.7478940259     2.4749870020    -0.0074621418
   68      H       3.3433023244     3.3245775451     0.3213077138
   69      H       2.6217988924     2.5342760463    -1.0902702374
   70      H       1.7483977539     2.5612426832     0.4236793498
   71      C      -2.6209092905    -0.0361931220    -2.9630451753
   72      C      -3.2546781632     1.1552468285    -3.3355115043
   73      C      -4.4530066000     1.1217318007    -4.0451520281
   74      H      -4.9276622286     2.0565057845    -4.3269260947
   75      C      -5.0530989831    -0.0782709136    -4.4023889520
   76      C      -4.4187806270    -1.2592292279    -4.0312987025
   77      H      -4.8673105898    -2.2103590152    -4.3026498599
   78      C      -3.2229022993    -1.2516149443    -3.3230569133
   79      C      -6.3521577928    -0.1109110029    -5.1560539266
   80      H      -6.6577004656     0.8864458499    -5.4712038811
   81      H      -6.2818343184    -0.7337509395    -6.0493893644
   82      H      -7.1572603016    -0.5224137877    -4.5438084916
   83      C      -2.6363619034     2.4778793576    -2.9782652336
   84      H      -3.2548318337     3.3140945025    -3.3052488116
   85      H      -2.4924242376     2.5715216851    -1.8999700303
   86      H      -1.6524648605     2.5929175542    -3.4383240205
   87      C      -2.5682234461    -2.5529388078    -2.9507225287
   88      H      -3.1610319706    -3.4095700861    -3.2726131553
   89      H      -2.4265432812    -2.6332032711    -1.8710200207
   90      H      -1.5794138258    -2.6443763631    -3.4056165263
 ----------------------------------------------------------------

   18   -1973.6209344639      7.89E-09 Convergence criterion met
 Total energy in the final basis set = -1973.62093446
 Final energy is   -1973.62093446388
 **  OPTIMIZATION CONVERGED  **

                    Orbital Energies (a.u.)
 --------------------------------------------------------------

 Alpha MOs
 -- Occupied --
-10.529 -10.510 -10.506 -10.500 -10.487 -10.485 -10.463 -10.456
-10.456 -10.454 -10.454 -10.454 -10.453 -10.451 -10.451 -10.450
-10.450 -10.450 -10.450 -10.450 -10.449 -10.449 -10.449 -10.449
-10.448 -10.447 -10.447 -10.447 -10.445 -10.444 -10.444 -10.442
-10.442 -10.439 -10.439 -10.438 -10.437 -10.437 -10.435 -10.435
-10.422 -10.422 -10.421 -10.421 -10.421 -10.414 -10.414 -10.412
-10.412 -10.405  -6.914  -6.905  -1.006  -1.004  -1.004  -0.948
 -0.945  -0.944  -0.923  -0.923  -0.917  -0.913  -0.893  -0.885
 -0.860  -0.857  -0.842  -0.842  -0.837  -0.836  -0.817  -0.808
 -0.803  -0.800  -0.800  -0.789  -0.786  -0.770  -0.746  -0.746
 -0.722  -0.718  -0.716  -0.708  -0.688  -0.678  -0.677  -0.668
 -0.665  -0.652  -0.637  -0.633  -0.627  -0.627  -0.600  -0.589
 -0.583  -0.581  -0.577  -0.571  -0.568  -0.563  -0.561  -0.537
 -0.531  -0.529  -0.524  -0.515  -0.515  -0.510  -0.510  -0.504
 -0.496  -0.493  -0.490  -0.489  -0.485  -0.483  -0.482  -0.481
 -0.477  -0.477  -0.475  -0.474  -0.474  -0.470  -0.468  -0.466
 -0.463  -0.455  -0.454  -0.453  -0.452  -0.445  -0.444  -0.442
 -0.439  -0.436  -0.431  -0.428  -0.423  -0.419  -0.418  -0.413
 -0.413  -0.401  -0.401  -0.397  -0.388  -0.387  -0.387  -0.384
 -0.381  -0.378  -0.370  -0.369  -0.363  -0.360  -0.356  -0.339
 -0.329  -0.324  -0.324  -0.314  -0.307  -0.290  -0.288  -0.276
 -0.263  -0.258  -0.253  -0.247  -0.244  -0.158

 Beta MOs
 -- Occupied --
-10.535 -10.512 -10.507 -10.506 -10.487 -10.484 -10.463 -10.456
-10.456 -10.455 -10.455 -10.453 -10.453 -10.451 -10.451 -10.451
-10.450 -10.450 -10.450 -10.450 -10.450 -10.449 -10.449 -10.448
-10.448 -10.447 -10.447 -10.447 -10.445 -10.444 -10.444 -10.441
-10.440 -10.439 -10.438 -10.438 -10.437 -10.436 -10.436 -10.436
-10.423 -10.422 -10.422 -10.421 -10.421 -10.414 -10.414 -10.411
-10.411 -10.405  -6.910  -6.903  -1.017  -1.003  -1.003  -0.947
 -0.944  -0.944  -0.927  -0.922  -0.922  -0.919  -0.893  -0.885
 -0.859  -0.857  -0.841  -0.841  -0.836  -0.835  -0.819  -0.808
 -0.803  -0.801  -0.799  -0.794  -0.788  -0.770  -0.746  -0.745
 -0.721  -0.716  -0.715  -0.707  -0.693  -0.683  -0.677  -0.667
 -0.663  -0.651  -0.637  -0.633  -0.627  -0.626  -0.601  -0.591
 -0.582  -0.581  -0.576  -0.572  -0.568  -0.563  -0.561  -0.537
 -0.533  -0.529  -0.526  -0.526  -0.516  -0.515  -0.509  -0.504
 -0.501  -0.495  -0.493  -0.489  -0.488  -0.483  -0.482  -0.481
 -0.478  -0.477  -0.474  -0.474  -0.473  -0.470  -0.468  -0.466
 -0.463  -0.455  -0.454  -0.453  -0.452  -0.445  -0.444  -0.442
 -0.438  -0.435  -0.434  -0.428  -0.423  -0.423  -0.419  -0.415
 -0.413  -0.410  -0.401  -0.396  -0.387  -0.385  -0.385  -0.384
 -0.381  -0.379  -0.371  -0.367  -0.365  -0.357  -0.353  -0.340
 -0.338  -0.326  -0.323  -0.315  -0.307  -0.302  -0.286  -0.286
 -0.265  -0.263  -0.252  -0.250  -0.244  -0.238

          Ground-State Mulliken Net Atomic Charges

     Atom                 Charge (a.u.)    Spin (a.u.)
  --------------------------------------------------------
      1 C                    -0.137089      -0.040426
      2 C                    -0.413689       0.009872
      3 H                     0.204765      -0.000276
      4 C                     0.082282       0.013731
      5 C                     0.061544       0.111421
      6 C                    -0.402344      -0.072007
      7 H                     0.231676       0.002963
      8 C                    -0.145625       0.080050
      9 C                     0.182497      -0.037704
     10 C                    -0.408070       0.058369
     11 H                     0.228379      -0.003436
     12 C                    -0.075899       0.023012
     13 C                     0.228167      -0.036193
     14 C                     0.180265      -0.062231
     15 C                    -0.398492       0.089223
     16 H                     0.239135      -0.005199
     17 C                    -0.225006      -0.040642
     18 H                     0.240955       0.002020
     19 C                    -0.358467       0.054339
     20 H                     0.239014      -0.003128
     21 C                    -0.356125       0.080751
     22 H                     0.237788      -0.004761
     23 C                    -0.226869      -0.054399
     24 H                     0.243497       0.002605
     25 B                     0.561280       0.397560
     26 C                    -0.138315      -0.043903
     27 C                    -0.413994       0.008807
     28 H                     0.205886      -0.000162
     29 C                     0.081418       0.014321
     30 C                     0.060659       0.110409
     31 C                    -0.401229      -0.071703
     32 H                     0.232838       0.002856
     33 C                    -0.146491       0.079670
     34 C                     0.184376      -0.037682
     35 C                    -0.408674       0.058240
     36 H                     0.228486      -0.003427
     37 C                    -0.076519       0.022863
     38 C                     0.226256      -0.035985
     39 C                     0.181141      -0.061651
     40 C                    -0.399212       0.088439
     41 H                     0.239118      -0.005157
     42 C                    -0.224971      -0.040478
     43 H                     0.240959       0.002011
     44 C                    -0.357793       0.054098
     45 H                     0.239200      -0.003113
     46 C                    -0.226671      -0.053846
     47 H                     0.243641       0.002579
     48 C                    -0.355130       0.079738
     49 H                     0.237997      -0.004697
     50 B                     0.583196       0.259430
     51 C                    -0.115305      -0.539330
     52 C                     0.087059      -0.009917
     53 C                    -0.312194       0.014279
     54 H                     0.269231       0.001832
     55 C                     0.165476      -0.397758
     56 C                    -0.328222       0.071668
     57 H                     0.269894      -0.000896
     58 C                     0.090431      -0.080691
     59 C                    -0.726804       0.028279
     60 H                     0.268168       0.000149
     61 H                     0.279862      -0.022783
     62 H                     0.279790      -0.022948
     63 C                    -0.761204       0.008553
     64 H                     0.261842       0.002968
     65 H                     0.282198      -0.008914
     66 H                     0.283390      -0.009622
     67 C                    -0.757569       0.003645
     68 H                     0.258685       0.002960
     69 H                     0.278514      -0.005266
     70 H                     0.279502      -0.005821
     71 C                    -0.199410      -0.023709
     72 C                     0.042414       0.002709
     73 C                    -0.365697      -0.000437
     74 H                     0.211007       0.000332
     75 C                     0.112335       0.000012
     76 C                    -0.358462      -0.000492
     77 H                     0.210276       0.000332
     78 C                     0.041660       0.002788
     79 C                    -0.720443      -0.000001
     80 H                     0.232572      -0.000003
     81 H                     0.233117      -0.000004
     82 H                     0.235013      -0.000005
     83 C                    -0.759987       0.000549
     84 H                     0.235529       0.001289
     85 H                     0.243334      -0.000740
     86 H                     0.242845      -0.000639
     87 C                    -0.760183       0.000562
     88 H                     0.235635       0.001296
     89 H                     0.243203      -0.000735
     90 H                     0.242755      -0.000659
  --------------------------------------------------------
  Sum of atomic charges =    -0.000000

                    Cartesian Multipole Moments
 -----------------------------------------------------------------
    Charge (ESU x 10^10)
                -0.0000
    Dipole Moment (Debye)
         X      14.1250      Y      -0.2871      Z       7.8615
       Tot      16.1679
    Quadrupole Moments (Debye-Ang)
        XX    -215.2134     XY      -0.2657     YY    -297.5553
        XZ      26.5855     YZ       0.2337     ZZ    -295.7413

 Total job time:  19984.48s(wall), 78475.00s(cpu)
        *  Thank you very much for using Q-Chem.  Have a nice day.  *
