 Q-Chem 5.0, Q-Chem, Inc., Pleasanton, CA (2017)
 Q-Chem 5.0.1 for Intel X86 EM64T Linux

User input:
--------------------------------------------------------------
$rem
threads 8
jobtype	sp
method PBEh-3c
basis def2-mSVP
mem_static	1024
mem_total	8000
sym_ignore	true
unrestricted true
scf_convergence	9
solvent_method	pcm
$end

$molecule
read incoords.mol
$end

$solvent
dielectric	8.93
$end

$pcm
theory iefpcm
$end
--------------------------------------------------------------

   16   -1973.7264152531      4.39E-10 Convergence criterion met
 Total energy in the final basis set = -1973.72641525
 Total job time:  1710.32s(wall), 6656.45s(cpu)
        *  Thank you very much for using Q-Chem.  Have a nice day.  *
 Q-Chem 5.0, Q-Chem, Inc., Pleasanton, CA (2017)
 Q-Chem 5.0.1 for Intel X86 EM64T Linux

User input:
--------------------------------------------------------------

$rem
threads 8
jobtype opt
method PBEh-3c
basis def2-mSVP
scf_guess	read
mem_static      1024
mem_total       8000
sym_ignore      true
unrestricted true
mom_start       1
scf_algorithm	diis
scf_max_cycles	250
solvent_method	pcm
geom_opt_tol_energy 25
geom_opt_tol_gradient 75
$end

$solvent
dielectric      8.93
$end
$pcm
theory iefpcm
$end

$occupied
1 2 3 4 5 6 7 8 9 10 11 12 13 14 15 16 17 18 19 20 21 22 23 24 25 26 27 28 29 30 31 32 33 34 35 36 37 38 39 40 41 42 43 44 45 46 47 48 49 50 51 52 53 54 55 56 57 58 59 60 61 62 63 64 65 66 67 68 69 70 71 72 73 74 75 76 77 78 79 80 81 82 83 84 85 86 87 88 89 90 91 92 93 94 95 96 97 98 99 100 101 102 103 104 105 106 107 108 109 110 111 112 113 114 115 116 117 118 119 120 121 122 123 124 125 126 127 128 129 130 131 132 133 134 135 136 137 138 139 140 141 142 143 144 145 146 147 148 149 150 151 152 153 154 155 156 157 158 159 160 161 162 163 164 165 166 167 168 169 170 171 172 173  175
1 2 3 4 5 6 7 8 9 10 11 12 13 14 15 16 17 18 19 20 21 22 23 24 25 26 27 28 29 30 31 32 33 34 35 36 37 38 39 40 41 42 43 44 45 46 47 48 49 50 51 52 53 54 55 56 57 58 59 60 61 62 63 64 65 66 67 68 69 70 71 72 73 74 75 76 77 78 79 80 81 82 83 84 85 86 87 88 89 90 91 92 93 94 95 96 97 98 99 100 101 102 103 104 105 106 107 108 109 110 111 112 113 114 115 116 117 118 119 120 121 122 123 124 125 126 127 128 129 130 131 132 133 134 135 136 137 138 139 140 141 142 143 144 145 146 147 148 149 150 151 152 153 154 155 156 157 158 159 160 161 162 163 164 165 166 167 168 169 170 171 172 173 174
$end

$molecule
read incoords.mol
$end

--------------------------------------------------------------

   20   -1973.6172092608      7.98E-09 Convergence criterion met
 Total energy in the final basis set = -1973.61720926
   27   -1973.6209375068      7.59E-09 Convergence criterion met
 Total energy in the final basis set = -1973.62093751
   27   -1973.6208750457      7.92E-09 Convergence criterion met
 Total energy in the final basis set = -1973.62087505
   24   -1973.6206276539      8.33E-09 Convergence criterion met
 Total energy in the final basis set = -1973.62062765
   27   -1973.6204435503      9.24E-09 Convergence criterion met
 Total energy in the final basis set = -1973.62044355
   31   -1973.6204661101      9.23E-09 Convergence criterion met
 Total energy in the final basis set = -1973.62046611
   23   -1973.6204307957      9.47E-09 Convergence criterion met
 Total energy in the final basis set = -1973.62043080
   23   -1973.6204032319      8.89E-09 Convergence criterion met
 Total energy in the final basis set = -1973.62040323
   23   -1973.6204148229      9.49E-09 Convergence criterion met
 Total energy in the final basis set = -1973.62041482

             Standard Nuclear Orientation (Angstroms)
    I     Atom           X                Y                Z
 ----------------------------------------------------------------
    1      C      -6.2018962600     3.9954113859     1.7551447918
    2      C      -6.7312805348     2.7050399608     2.0239947387
    3      B      -5.8789996050     1.4415332685     1.8500053461
    4      C      -4.4277591437     1.6051733131     1.3805386265
    5      C      -3.8731917716     2.8924271466     1.1457452762
    6      B      -4.7305455051     4.1572425167     1.3363253571
    7      C      -2.5349189952     2.9911420878     0.6749529619
    8      C      -1.7876427047     1.8611743046     0.4230553273
    9      C      -2.3581558261     0.5725025435     0.6470209664
   10      C      -3.6397276701     0.4533219683     1.1238195533
   11      C      -7.0639315765     5.1251330065     1.8239211568
   12      C      -8.3961361781     4.9790996417     2.1435680071
   13      C      -8.9090964715     3.6826848399     2.4468730869
   14      C      -8.0959899440     2.5794606645     2.3892146407
   15      H      -6.6628310502     6.1069089603     1.5950714954
   16      C      -6.5139285899     0.0106313540     2.0729607750
   17      C      -4.1276658962     5.5901573551     1.0696669386
   18      C      -7.1186600257    -0.6680994089     1.0073091583
   19      C      -7.6821958473    -1.9265086847     1.2070178267
   20      C      -7.6666944173    -2.5413407793     2.4519075539
   21      C      -7.0669260726    -1.8616954614     3.5077237292
   22      C      -6.4970154291    -0.6053851608     3.3329807539
   23      C      -5.8668264171     0.1018984291     4.5002064900
   24      C      -7.1693199347    -0.0413383497    -0.3595078407
   25      H      -8.1446328896    -2.4381018368     0.3685040597
   26      C      -8.2854276705    -3.8942299870     2.6601119267
   27      H      -7.0422607782    -2.3235704323     4.4901199032
   28      H      -4.8311526772     0.3761320048     4.2886127788
   29      H      -5.8717437580    -0.5164174552     5.3980171018
   30      H      -6.3951036536     1.0293780167     4.7333144505
   31      H      -7.7100406104     0.9075811241    -0.3432272116
   32      H      -7.6647566456    -0.6908279790    -1.0815859711
   33      H      -6.1691107325     0.1743191133    -0.7412404533
   34      H      -8.6159527959    -4.3316737770     1.7183706664
   35      H      -9.1547699786    -3.8377713958     3.3183374726
   36      H      -7.5823648932    -4.5898366930     3.1210122357
   37      C      -3.5760705318     6.3350130215     2.1177532878
   38      C      -3.0390921167     7.5969524310     1.8722100893
   39      C      -3.0376665766     8.1482272034     0.5970574270
   40      C      -3.5978084282     7.4060726989    -0.4384501621
   41      C      -4.1379884216     6.1439819413    -0.2189591482
   42      C      -4.7364798167     5.3718225540    -1.3630456335
   43      C      -3.5668243395     5.7712713898     3.5122274866
   44      H      -2.6112887856     8.1605461593     2.6953424584
   45      C      -2.4440440652     9.5018401822     0.3310607894
   46      H      -3.6132476313     7.8222716172    -1.4414054493
   47      H      -4.7381424741     5.9537845078    -2.2849268008
   48      H      -5.7676006481     5.0798832919    -1.1516860940
   49      H      -4.1855828353     4.4483867739    -1.5569516688
   50      H      -4.5812890074     5.5980512220     3.8786648034
   51      H      -3.0719218076     6.4409786695     4.2156916732
   52      H      -3.0522263326     4.8087517623     3.5519775945
   53      H      -2.1207421706     9.9853526712     1.2524313136
   54      H      -3.1601463405    10.1638123238    -0.1585704701
   55      H      -1.5748022589     9.4321250863    -0.3259438769
   56      C      -0.4529637665     1.6622597064    -0.1193526587
   57      C     -10.3290072553     3.8015449289     2.7161033007
   58      C     -11.3435208745     2.9152239046     3.0386853922
   59      C       1.7350536479     1.8978634983    -1.0703966742
   60      C       1.9037747610     0.5248842029    -1.1624149331
   61      C       0.8760899751    -0.3427931462    -0.7288486907
   62      C     -12.9544185113     4.7545959355     3.0151085397
   63      C     -12.6473200446     3.4144413243     3.1872193471
   64      H     -13.4419968724     2.7243542985     3.4390582788
   65      H       2.8207072923     0.1210325274    -1.5731754697
   66      C      -0.2644729422     0.2686620618    -0.2144748858
   67      H      -4.0710831057    -0.5290979273     1.2880939297
   68      C       0.5677368826     2.4880369491    -0.5578486540
   69      H       2.5325754887     2.5434531056    -1.4135354900
   70      H       0.4816576826     3.5662557024    -0.5187779509
   71      H      -2.1131262369     3.9735405030     0.4913823261
   72      C      -1.3960782403    -0.4325406600     0.2387292983
   73      C       0.8616151712    -1.7567013035    -0.7761727460
   74      C      -0.2490617855    -2.4566133777    -0.3314364200
   75      C      -1.3901846898    -1.8163050195     0.1781470411
   76      H      -0.2401694197    -3.5376119204    -0.3829475954
   77      H      -2.2389478473    -2.4045174426     0.5042783858
   78      H      -8.5001209527     1.5943073865     2.5992151507
   79      H     -11.1546094839     1.8573113083     3.1708302494
   80      C     -10.6480372353     5.1600171693     2.5529508979
   81      C      -9.5103189874     5.9155924711     2.2056871405
   82      C      -9.6811666686     7.2706270149     1.9766649359
   83      C     -10.9691325198     7.8191216473     2.1018988236
   84      C     -12.0780577159     7.0613880751     2.4442539841
   85      C     -11.9361456373     5.6764887724     2.6814944215
   86      H     -11.0992009454     8.8773985979     1.9181573274
   87      H     -13.0509345960     7.5305486601     2.5223975752
   88      H      -8.8524128618     7.9085459418     1.6980408405
   89      H     -13.9769906412     5.0920206871     3.1308304023
   90      H       1.7153964738    -2.2963566957    -1.1665767159
 ----------------------------------------------------------------

   24   -1973.6204624621      7.23E-09 Convergence criterion met
 Total energy in the final basis set = -1973.62046246

                    Orbital Energies (a.u.)
 --------------------------------------------------------------

 Alpha MOs
 -- Occupied --
-10.475 -10.475 -10.473 -10.473 -10.473 -10.472 -10.472 -10.472
-10.471 -10.471 -10.471 -10.471 -10.470 -10.470 -10.466 -10.466
-10.466 -10.466 -10.462 -10.461 -10.460 -10.460 -10.459 -10.459
-10.457 -10.457 -10.455 -10.455 -10.445 -10.445 -10.444 -10.444
-10.444 -10.444 -10.428 -10.428 -10.428 -10.428 -10.428 -10.428
-10.427 -10.426 -10.425 -10.425 -10.421 -10.421 -10.421 -10.421
-10.412 -10.412  -6.914  -6.912  -1.022  -1.022  -0.963  -0.961
 -0.952  -0.951  -0.939  -0.939  -0.908  -0.900  -0.868  -0.865
 -0.864  -0.863  -0.855  -0.854  -0.854  -0.854  -0.822  -0.813
 -0.811  -0.804  -0.776  -0.776  -0.754  -0.753  -0.753  -0.751
 -0.736  -0.733  -0.733  -0.723  -0.693  -0.683  -0.681  -0.666
 -0.651  -0.646  -0.637  -0.634  -0.634  -0.633  -0.598  -0.596
 -0.591  -0.590  -0.586  -0.577  -0.577  -0.548  -0.546  -0.543
 -0.536  -0.536  -0.531  -0.530  -0.521  -0.510  -0.506  -0.498
 -0.495  -0.494  -0.494  -0.490  -0.489  -0.488  -0.483  -0.477
 -0.477  -0.477  -0.474  -0.467  -0.467  -0.462  -0.460  -0.460
 -0.460  -0.459  -0.451  -0.451  -0.447  -0.446  -0.446  -0.442
 -0.441  -0.440  -0.433  -0.430  -0.425  -0.423  -0.410  -0.407
 -0.407  -0.405  -0.403  -0.398  -0.398  -0.398  -0.394  -0.388
 -0.379  -0.378  -0.378  -0.374  -0.374  -0.367  -0.345  -0.344
 -0.337  -0.328  -0.315  -0.307  -0.306  -0.305  -0.286  -0.270
 -0.270  -0.262  -0.259  -0.258  -0.245  -0.157

 Beta MOs
 -- Occupied --
-10.477 -10.476 -10.474 -10.474 -10.473 -10.473 -10.472 -10.472
-10.472 -10.472 -10.471 -10.470 -10.470 -10.470 -10.467 -10.467
-10.466 -10.466 -10.464 -10.464 -10.462 -10.461 -10.459 -10.458
-10.456 -10.456 -10.454 -10.454 -10.445 -10.445 -10.444 -10.444
-10.444 -10.444 -10.428 -10.428 -10.428 -10.428 -10.427 -10.427
-10.426 -10.426 -10.425 -10.425 -10.421 -10.421 -10.421 -10.421
-10.413 -10.412  -6.911  -6.909  -1.023  -1.022  -0.964  -0.961
 -0.952  -0.951  -0.941  -0.941  -0.910  -0.903  -0.868  -0.864
 -0.863  -0.863  -0.858  -0.857  -0.854  -0.854  -0.820  -0.818
 -0.816  -0.803  -0.776  -0.776  -0.753  -0.753  -0.753  -0.751
 -0.737  -0.733  -0.733  -0.724  -0.694  -0.684  -0.678  -0.665
 -0.652  -0.648  -0.636  -0.634  -0.634  -0.633  -0.598  -0.597
 -0.590  -0.589  -0.587  -0.578  -0.576  -0.547  -0.546  -0.543
 -0.535  -0.535  -0.531  -0.530  -0.520  -0.510  -0.506  -0.499
 -0.495  -0.495  -0.493  -0.492  -0.492  -0.488  -0.484  -0.478
 -0.477  -0.477  -0.474  -0.467  -0.467  -0.462  -0.460  -0.460
 -0.459  -0.459  -0.451  -0.451  -0.447  -0.446  -0.445  -0.442
 -0.440  -0.440  -0.432  -0.432  -0.427  -0.425  -0.409  -0.407
 -0.407  -0.404  -0.404  -0.404  -0.403  -0.398  -0.394  -0.387
 -0.379  -0.377  -0.376  -0.373  -0.372  -0.367  -0.356  -0.342
 -0.336  -0.327  -0.326  -0.322  -0.303  -0.303  -0.279  -0.270
 -0.270  -0.269  -0.265  -0.262  -0.258  -0.252

          Ground-State Mulliken Net Atomic Charges

     Atom                 Charge (a.u.)    Spin (a.u.)
  --------------------------------------------------------
      1 C                    -0.145116       0.048673
      2 C                    -0.142682       0.033037
      3 B                     0.577390       0.299279
      4 C                    -0.142043       0.032857
      5 C                    -0.145063       0.049625
      6 B                     0.582970       0.290331
      7 C                    -0.386774      -0.183722
      8 C                     0.088548       0.106772
      9 C                     0.067054       0.105247
     10 C                    -0.380889      -0.177890
     11 C                    -0.388635      -0.182110
     12 C                     0.091121       0.105682
     13 C                     0.064293       0.104646
     14 C                    -0.376529      -0.177868
     15 H                     0.247616       0.009242
     16 C                    -0.208040      -0.026392
     17 C                    -0.201348      -0.025454
     18 C                     0.037125       0.003895
     19 C                    -0.372024      -0.000970
     20 C                     0.107520       0.000917
     21 C                    -0.360898      -0.001109
     22 C                     0.042645       0.003833
     23 C                    -0.759874      -0.000218
     24 C                    -0.760942      -0.000762
     25 H                     0.220015       0.000394
     26 C                    -0.722551      -0.000077
     27 H                     0.218897       0.000397
     28 H                     0.243577      -0.000762
     29 H                     0.241872       0.001500
     30 H                     0.241570      -0.000453
     31 H                     0.243121      -0.000586
     32 H                     0.242228       0.001525
     33 H                     0.242999      -0.000525
     34 H                     0.236350      -0.000001
     35 H                     0.237644       0.000041
     36 H                     0.236418       0.000026
     37 C                     0.039658       0.003686
     38 C                    -0.372372      -0.000984
     39 C                     0.107398       0.000885
     40 C                    -0.362329      -0.000980
     41 C                     0.037277       0.003690
     42 C                    -0.760285      -0.000690
     43 C                    -0.762568      -0.000035
     44 H                     0.220134       0.000367
     45 C                    -0.722582      -0.000074
     46 H                     0.218624       0.000409
     47 H                     0.242015       0.001498
     48 H                     0.243337      -0.000739
     49 H                     0.242659      -0.000366
     50 H                     0.242821      -0.000515
     51 H                     0.242326       0.001580
     52 H                     0.243634      -0.000739
     53 H                     0.236474      -0.000001
     54 H                     0.236260       0.000027
     55 H                     0.237423       0.000039
     56 C                     0.180519      -0.104547
     57 C                     0.181917      -0.101272
     58 C                    -0.379300       0.025626
     59 C                    -0.222956      -0.020309
     60 C                    -0.342927      -0.047596
     61 C                     0.233288       0.008788
     62 C                    -0.339707      -0.046683
     63 C                    -0.225331      -0.017256
     64 H                     0.266075       0.001255
     65 H                     0.264441       0.002279
     66 C                    -0.066368       0.041533
     67 H                     0.248749       0.008883
     68 C                    -0.384737       0.028645
     69 H                     0.266071       0.001421
     70 H                     0.259439      -0.001072
     71 H                     0.247788       0.009306
     72 C                     0.181732      -0.101361
     73 C                    -0.340587      -0.044781
     74 C                    -0.225129      -0.018158
     75 C                    -0.379191       0.027211
     76 H                     0.265998       0.001293
     77 H                     0.259547      -0.001045
     78 H                     0.249016       0.008870
     79 H                     0.259279      -0.000951
     80 C                    -0.064941       0.041346
     81 C                     0.181292      -0.103895
     82 C                    -0.387193       0.027909
     83 C                    -0.222383      -0.019934
     84 C                    -0.342933      -0.047985
     85 C                     0.233377       0.009373
     86 H                     0.266031       0.001399
     87 H                     0.264565       0.002300
     88 H                     0.259298      -0.001025
     89 H                     0.264016       0.002228
     90 H                     0.263775       0.002126
  --------------------------------------------------------
  Sum of atomic charges =    -0.000000

                    Cartesian Multipole Moments
 -----------------------------------------------------------------
    Charge (ESU x 10^10)
                -0.0000
    Dipole Moment (Debye)
         X      -0.6431      Y      -0.2731      Z      -1.6505
       Tot       1.7923
    Quadrupole Moments (Debye-Ang)
        XX    -192.7280     XY     -31.3566     YY    -249.2401
        XZ     -21.6663     YZ      -0.5733     ZZ    -298.4350
