 Q-Chem 5.1, Q-Chem, Inc., Pleasanton, CA (2018)
 Q-Chem 5.1.1 for Intel X86 EM64T Linux

User input:
--------------------------------------------------------------
$rem
threads 8
jobtype	sp
method PBEh-3c
basis def2-mSVP
mem_static	1024
mem_total	8000
sym_ignore	true
unrestricted true
scf_convergence	9
solvent_method	pcm
$end

$molecule
read incoords.mol
$end

$solvent
dielectric	1.0001
$end

$pcm
theory iefpcm
$end
--------------------------------------------------------------

   16   -1973.6959368733      9.10e-10  Convergence criterion met
 Total energy in the final basis set =    -1973.6959368733
 Total job time:  1916.44s(wall), 14099.80s(cpu)
        *  Thank you very much for using Q-Chem.  Have a nice day.  *
 Q-Chem 5.1, Q-Chem, Inc., Pleasanton, CA (2018)
 Q-Chem 5.1.1 for Intel X86 EM64T Linux

User input:
--------------------------------------------------------------

$rem
threads 8
jobtype opt
method PBEh-3c
basis def2-mSVP
scf_guess	read
mem_static      1024
mem_total       8000
sym_ignore      true
unrestricted true
mom_start       1
scf_algorithm	diis
scf_max_cycles	250
solvent_method	pcm
geom_opt_tol_energy 25
geom_opt_tol_gradient 75
$end

$solvent
dielectric      1.0001
$end

$pcm
theory iefpcm
$end

$occupied
1 2 3 4 5 6 7 8 9 10 11 12 13 14 15 16 17 18 19 20 21 22 23 24 25 26 27 28 29 30 31 32 33 34 35 36 37 38 39 40 41 42 43 44 45 46 47 48 49 50 51 52 53 54 55 56 57 58 59 60 61 62 63 64 65 66 67 68 69 70 71 72 73 74 75 76 77 78 79 80 81 82 83 84 85 86 87 88 89 90 91 92 93 94 95 96 97 98 99 100 101 102 103 104 105 106 107 108 109 110 111 112 113 114 115 116 117 118 119 120 121 122 123 124 125 126 127 128 129 130 131 132 133 134 135 136 137 138 139 140 141 142 143 144 145 146 147 148 149 150 151 152 153 154 155 156 157 158 159 160 161 162 163 164 165 166 167 168 169 170 171 172 173  175
1 2 3 4 5 6 7 8 9 10 11 12 13 14 15 16 17 18 19 20 21 22 23 24 25 26 27 28 29 30 31 32 33 34 35 36 37 38 39 40 41 42 43 44 45 46 47 48 49 50 51 52 53 54 55 56 57 58 59 60 61 62 63 64 65 66 67 68 69 70 71 72 73 74 75 76 77 78 79 80 81 82 83 84 85 86 87 88 89 90 91 92 93 94 95 96 97 98 99 100 101 102 103 104 105 106 107 108 109 110 111 112 113 114 115 116 117 118 119 120 121 122 123 124 125 126 127 128 129 130 131 132 133 134 135 136 137 138 139 140 141 142 143 144 145 146 147 148 149 150 151 152 153 154 155 156 157 158 159 160 161 162 163 164 165 166 167 168 169 170 171 172 173 174
$end

$molecule
read
$end

--------------------------------------------------------------

   33   -1973.5921478819      7.54E-09 Convergence criterion met
 Total energy in the final basis set = -1973.59214788
   27   -1973.5923381288      6.33E-09 Convergence criterion met
 Total energy in the final basis set = -1973.59233813
   26   -1973.5922541049      6.59E-09 Convergence criterion met
 Total energy in the final basis set = -1973.59225410
   35   -1973.5922935335      6.58E-09 Convergence criterion met
 Total energy in the final basis set = -1973.59229353
   34   -1973.6017211236      8.25E-09 Convergence criterion met
 Total energy in the final basis set = -1973.60172112
   20   -1973.6071012721      9.07E-09 Convergence criterion met
 Total energy in the final basis set = -1973.60710127
   17   -1973.6104921599      9.46E-09 Convergence criterion met
   18   -1973.6097409428      8.17E-09 Convergence criterion met
 Total energy in the final basis set = -1973.60974094
   18   -1973.6108342616      8.39E-09 Convergence criterion met
 Total energy in the final basis set = -1973.61083426
   14   -1973.6108611811      9.66E-09 Convergence criterion met
 Total energy in the final basis set = -1973.61086118
   14   -1973.6108634619      8.32E-09 Convergence criterion met
 Total energy in the final basis set = -1973.61086346
   11   -1973.6108599407      9.07E-09 Convergence criterion met
 Total energy in the final basis set = -1973.61085994
   10   -1973.6108575005      9.72E-09 Convergence criterion met
 Total energy in the final basis set = -1973.61085750

             Standard Nuclear Orientation (Angstroms)
    I     Atom           X                Y                Z
 ----------------------------------------------------------------
    1      C       0.0362177090    -0.0036432167     0.0528631224
    2      C       0.0331922064     0.0028607781     1.4635431007
    3      H       0.9809547979     0.0018827443     1.9904386948
    4      C      -1.1510078843     0.0099296179     2.1552556775
    5      C      -2.4076182165     0.0073653094     1.4301593364
    6      C      -2.4309503070    -0.0016991598     0.0608024768
    7      H      -3.3745838534    -0.0054064284    -0.4737040272
    8      C      -1.2324144407    -0.0058027303    -0.6676242594
    9      C      -1.4695299278     0.0186838343     3.5736669476
   10      C      -0.7442254556     0.0246827987     4.7397012017
   11      H       0.3380631235     0.0232357976     4.7382043303
   12      C      -2.8794242505     0.0209805679     3.6648079716
   13      C      -3.5955178396     0.0287816759     4.8587298607
   14      C      -3.4858741893     0.0141876464     2.3911894553
   15      C      -4.8577208306     0.0149801838     2.3020280781
   16      H      -5.3673100629     0.0098122121     1.3466991576
   17      C      -1.4443525638     0.0328401105     5.9653388212
   18      H      -0.8725922657     0.0376423255     6.8838761811
   19      C      -2.8198988469     0.0349191299     6.0406396905
   20      H      -3.3061712178     0.0412361731     7.0081161886
   21      C      -5.0057403759     0.0294130079     4.7402448739
   22      H      -5.6224446209     0.0351954776     5.6304034962
   23      C      -5.6028165015     0.0226102999     3.4977677732
   24      H      -6.6832899770     0.0231631576     3.4358264452
   25      B       1.3619037875    -0.0123374232    -0.7157311347
   26      C       1.3211015736     0.0064368317    -2.2470539802
   27      C       2.5240622088     0.0205986224    -2.9832330577
   28      H       3.4674031304     0.0190306726    -2.4488575029
   29      C       2.4980193900     0.0349862778    -4.3533888617
   30      C       1.2261954857     0.0327975818    -5.0506317517
   31      C       0.0449409287     0.0172768194    -4.3591650611
   32      H      -0.9012843641     0.0140252428    -4.8889829009
   33      C       0.0479694257     0.0047458177    -2.9563224841
   34      C       3.5462987473     0.0506579613    -5.3620426478
   35      C       4.9198187881     0.0593047377    -5.3489774224
   36      H       5.4813427769     0.0551332476    -4.4237862751
   37      C       2.8919793509     0.0567537696    -6.6139485762
   38      C       3.5428288787     0.0705737638    -7.8462715218
   39      C       1.4886498826     0.0463200479    -6.4730915263
   40      C       0.7046001361     0.0496051112    -7.6029777464
   41      H      -0.3766436576     0.0416881030    -7.5473893063
   42      C       5.6049606932     0.0736465701    -6.5833380453
   43      H       6.6868850864     0.0804139058    -6.5711703716
   44      C       4.9553973262     0.0792297212    -7.7979228507
   45      H       5.5290579638     0.0902205549    -8.7164373116
   46      C       1.3419004647     0.0634599678    -8.8600785846
   47      H       0.7289111206     0.0659294294    -9.7520413766
   48      C       2.7133675827     0.0738103114    -8.9928202278
   49      H       3.1569579486     0.0841619000    -9.9808216518
   50      B      -1.2806643742    -0.0145183285    -2.1979077150
   51      C       2.7412509289    -0.0563198370     0.0425683106
   52      C       3.3991075539     1.1251859597     0.4098065276
   53      C       4.6140996976     1.0641666665     1.0792016721
   54      H       5.1125992559     1.9867654450     1.3600752012
   55      C       5.2058631766    -0.1531593139     1.3990329948
   56      C       4.5500053582    -1.3180939243     1.0276956355
   57      H       4.9964404927    -2.2780379664     1.2662831195
   58      C       3.3319645935    -1.2843930565     0.3559021235
   59      C       6.5189319772    -0.1969941295     2.1258432457
   60      H       6.8411451583    -1.2215498955     2.3093438239
   61      H       7.3075698761     0.2981596329     1.5566036029
   62      H       6.4568078113     0.3060649188     3.0922781409
   63      C       2.6508533761    -2.5662686904    -0.0376168608
   64      H       3.2194321098    -3.4406863604     0.2791910260
   65      H       2.5196288755    -2.6325675646    -1.1199680846
   66      H       1.6545014428    -2.6429496139     0.4032593199
   67      C       2.7821708919     2.4538310299     0.0724597409
   68      H       3.3968146982     3.2856244997     0.4165158722
   69      H       2.6446787473     2.5668125674    -1.0052437836
   70      H       1.7942477838     2.5623778685     0.5255228098
   71      C      -2.6533837934    -0.0477557668    -2.9799268716
   72      C      -3.2943623982     1.1372030030    -3.3592091186
   73      C      -4.4899532295     1.0895870427    -4.0702185812
   74      H      -4.9717868473     2.0184729708    -4.3579275033
   75      C      -5.0786518533    -0.1164585678    -4.4216128122
   76      C      -4.4370083342    -1.2900276618    -4.0436732927
   77      H      -4.8780656357    -2.2454709004    -4.3108785684
   78      C      -3.2437893924    -1.2702233608    -3.3337062592
   79      C      -6.3750692335    -0.1639759300    -5.1777607099
   80      H      -6.6900770553     0.8287199999    -5.4977835374
   81      H      -6.2966971250    -0.7880919112    -6.0693940141
   82      H      -7.1776632553    -0.5803246027    -4.5658180714
   83      C      -2.6865965823     2.4658728386    -3.0074836313
   84      H      -3.3101605583     3.2957106111    -3.3403099843
   85      H      -2.5460772291     2.5685931724    -1.9296219218
   86      H      -1.7027271892     2.5879326658    -3.4656261810
   87      C      -2.5798203986    -2.5636575921    -2.9516609578
   88      H      -3.1622909487    -3.4268889761    -3.2740925573
   89      H      -2.4454359805    -2.6406167105    -1.8708367611
   90      H      -1.5871902691    -2.6502421234    -3.3989446772
 ----------------------------------------------------------------

   12   -1973.6108575454      5.11E-09 Convergence criterion met
 Total energy in the final basis set = -1973.61085755
 Final energy is   -1973.61085754536
 **  OPTIMIZATION CONVERGED  **

                    Orbital Energies (a.u.)
 --------------------------------------------------------------

 Alpha MOs
 -- Occupied --
-10.474 -10.474 -10.472 -10.472 -10.470 -10.470 -10.468 -10.468
-10.467 -10.467 -10.467 -10.467 -10.466 -10.466 -10.466 -10.466
-10.466 -10.465 -10.464 -10.463 -10.463 -10.463 -10.460 -10.459
-10.454 -10.453 -10.451 -10.451 -10.443 -10.442 -10.441 -10.440
-10.439 -10.438 -10.438 -10.437 -10.437 -10.437 -10.424 -10.424
-10.422 -10.422 -10.421 -10.421 -10.417 -10.417 -10.417 -10.417
-10.407 -10.405  -6.911  -6.911  -1.021  -1.020  -0.963  -0.960
 -0.946  -0.945  -0.938  -0.938  -0.908  -0.900  -0.867  -0.861
 -0.860  -0.858  -0.858  -0.856  -0.852  -0.851  -0.819  -0.817
 -0.816  -0.800  -0.772  -0.772  -0.751  -0.748  -0.748  -0.747
 -0.736  -0.733  -0.732  -0.722  -0.692  -0.684  -0.682  -0.669
 -0.650  -0.646  -0.633  -0.630  -0.629  -0.629  -0.600  -0.597
 -0.592  -0.590  -0.586  -0.579  -0.577  -0.546  -0.546  -0.541
 -0.532  -0.531  -0.531  -0.529  -0.521  -0.511  -0.505  -0.500
 -0.496  -0.496  -0.493  -0.489  -0.486  -0.485  -0.483  -0.476
 -0.474  -0.473  -0.471  -0.468  -0.466  -0.460  -0.459  -0.457
 -0.455  -0.454  -0.448  -0.447  -0.446  -0.443  -0.442  -0.439
 -0.439  -0.438  -0.433  -0.426  -0.423  -0.419  -0.410  -0.404
 -0.404  -0.403  -0.403  -0.400  -0.400  -0.398  -0.393  -0.387
 -0.376  -0.373  -0.372  -0.370  -0.369  -0.360  -0.342  -0.342
 -0.340  -0.329  -0.326  -0.323  -0.301  -0.299  -0.269  -0.264
 -0.262  -0.262  -0.259  -0.255  -0.253  -0.163

 Beta MOs
 -- Occupied --
-10.475 -10.475 -10.473 -10.473 -10.470 -10.470 -10.468 -10.468
-10.466 -10.466 -10.466 -10.466 -10.466 -10.466 -10.466 -10.465
-10.465 -10.465 -10.464 -10.464 -10.464 -10.463 -10.461 -10.461
-10.453 -10.452 -10.450 -10.450 -10.445 -10.444 -10.443 -10.442
-10.438 -10.438 -10.438 -10.437 -10.437 -10.436 -10.424 -10.424
-10.422 -10.422 -10.421 -10.421 -10.417 -10.417 -10.417 -10.416
-10.407 -10.405  -6.908  -6.907  -1.023  -1.023  -0.965  -0.963
 -0.946  -0.945  -0.938  -0.937  -0.911  -0.903  -0.866  -0.860
 -0.860  -0.858  -0.857  -0.856  -0.852  -0.851  -0.823  -0.817
 -0.815  -0.806  -0.772  -0.772  -0.750  -0.748  -0.748  -0.747
 -0.736  -0.733  -0.732  -0.723  -0.693  -0.683  -0.682  -0.671
 -0.651  -0.647  -0.632  -0.629  -0.629  -0.629  -0.599  -0.597
 -0.590  -0.589  -0.586  -0.579  -0.577  -0.546  -0.546  -0.540
 -0.532  -0.531  -0.530  -0.529  -0.520  -0.511  -0.505  -0.500
 -0.496  -0.496  -0.493  -0.492  -0.491  -0.488  -0.483  -0.475
 -0.474  -0.473  -0.471  -0.469  -0.466  -0.459  -0.458  -0.457
 -0.455  -0.454  -0.448  -0.447  -0.446  -0.443  -0.442  -0.440
 -0.439  -0.438  -0.432  -0.432  -0.427  -0.423  -0.409  -0.404
 -0.404  -0.403  -0.403  -0.399  -0.398  -0.398  -0.393  -0.387
 -0.376  -0.374  -0.373  -0.370  -0.369  -0.365  -0.354  -0.341
 -0.341  -0.326  -0.325  -0.320  -0.300  -0.299  -0.284  -0.263
 -0.263  -0.262  -0.261  -0.257  -0.255  -0.253

          Ground-State Mulliken Net Atomic Charges

     Atom                 Charge (a.u.)    Spin (a.u.)
  --------------------------------------------------------
      1 C                    -0.120150      -0.150387
      2 C                    -0.397204       0.057842
      3 H                     0.239916      -0.002844
      4 C                     0.119972      -0.076511
      5 C                     0.094460      -0.079184
      6 C                    -0.388244       0.054143
      7 H                     0.239116      -0.002639
      8 C                    -0.118822      -0.126553
      9 C                     0.201213      -0.010608
     10 C                    -0.382298       0.056649
     11 H                     0.225220      -0.003248
     12 C                    -0.061266      -0.088431
     13 C                     0.254396      -0.000935
     14 C                     0.198181      -0.011990
     15 C                    -0.371573       0.053826
     16 H                     0.225816      -0.003052
     17 C                    -0.201928      -0.028251
     18 H                     0.229373       0.001386
     19 C                    -0.337888       0.034795
     20 H                     0.222659      -0.002063
     21 C                    -0.333151       0.030252
     22 H                     0.222707      -0.001810
     23 C                    -0.205087      -0.027259
     24 H                     0.230013       0.001368
     25 B                     0.593529       0.348629
     26 C                    -0.120369      -0.148253
     27 C                    -0.396536       0.056326
     28 H                     0.241172      -0.002773
     29 C                     0.119125      -0.074347
     30 C                     0.093498      -0.080149
     31 C                    -0.387624       0.055514
     32 H                     0.240562      -0.002722
     33 C                    -0.118043      -0.128163
     34 C                     0.202807      -0.010622
     35 C                    -0.382913       0.055566
     36 H                     0.225311      -0.003185
     37 C                    -0.061916      -0.086919
     38 C                     0.252420      -0.000738
     39 C                     0.199055      -0.011233
     40 C                    -0.372521       0.052235
     41 H                     0.225877      -0.002963
     42 C                    -0.201986      -0.027663
     43 H                     0.229209       0.001357
     44 C                    -0.337348       0.033921
     45 H                     0.222622      -0.002011
     46 C                    -0.204797      -0.026385
     47 H                     0.229962       0.001325
     48 C                    -0.332144       0.029070
     49 H                     0.222583      -0.001737
     50 B                     0.591127       0.347955
     51 C                    -0.211744      -0.032158
     52 C                     0.058861       0.005320
     53 C                    -0.338706      -0.001739
     54 H                     0.192568       0.000482
     55 C                     0.129493       0.001784
     56 C                    -0.346062      -0.001723
     57 H                     0.192430       0.000462
     58 C                     0.057063       0.005399
     59 C                    -0.709261      -0.000148
     60 H                     0.224388      -0.000000
     61 H                     0.227616       0.000069
     62 H                     0.227551       0.000068
     63 C                    -0.749816      -0.000792
     64 H                     0.228405       0.001628
     65 H                     0.239807      -0.000707
     66 H                     0.240104      -0.000780
     67 C                    -0.747472      -0.000636
     68 H                     0.227638       0.001544
     69 H                     0.239338      -0.000730
     70 H                     0.239320      -0.000745
     71 C                    -0.214826      -0.032143
     72 C                     0.056416       0.005270
     73 C                    -0.342727      -0.001607
     74 H                     0.192337       0.000467
     75 C                     0.129460       0.001704
     76 C                    -0.338609      -0.001726
     77 H                     0.192861       0.000465
     78 C                     0.056412       0.005304
     79 C                    -0.709399      -0.000143
     80 H                     0.224307       0.000001
     81 H                     0.226654       0.000056
     82 H                     0.229081       0.000075
     83 C                    -0.746864      -0.000447
     84 H                     0.227756       0.001476
     85 H                     0.239448      -0.000787
     86 H                     0.238948      -0.000657
     87 C                    -0.747718      -0.000468
     88 H                     0.227884       0.001500
     89 H                     0.239606      -0.000771
     90 H                     0.239359      -0.000699
  --------------------------------------------------------
  Sum of atomic charges =    -0.000000

                    Cartesian Multipole Moments
 -----------------------------------------------------------------
    Charge (ESU x 10^10)
                -0.0000
    Dipole Moment (Debye)
         X      -0.1332      Y       0.0655      Z      -0.0435
       Tot       0.1547
    Quadrupole Moments (Debye-Ang)
        XX    -263.9994     XY       0.6651     YY    -305.1178
        XZ     -16.5676     YZ       0.0960     ZZ    -243.2397

 Total job time:  29656.60s(wall), 113882.92s(cpu)
        *  Thank you very much for using Q-Chem.  Have a nice day.  *
