 Q-Chem 5.0, Q-Chem, Inc., Pleasanton, CA (2017)
 Q-Chem 5.0.1 for Intel X86 EM64T Linux

User input:
--------------------------------------------------------------
$rem
threads 8
jobtype	sp
method PBEh-3c
basis def2-mSVP
mem_static	1024
mem_total	8000
sym_ignore	true
unrestricted true
scf_convergence	9
solvent_method	pcm
$end

$molecule
read incoords.mol
$end

$solvent
dielectric	1.0001
$end

$pcm
theory iefpcm
$end
--------------------------------------------------------------

   17   -1973.7047220388      3.19E-10 Convergence criterion met
 Total energy in the final basis set = -1973.70472204
 Total job time:  2015.37s(wall), 7779.08s(cpu)
        *  Thank you very much for using Q-Chem.  Have a nice day.  *
 Q-Chem 5.0, Q-Chem, Inc., Pleasanton, CA (2017)
 Q-Chem 5.0.1 for Intel X86 EM64T Linux

User input:
--------------------------------------------------------------

$rem
threads 8
jobtype opt
method PBEh-3c
basis def2-mSVP
scf_guess	read
mem_static      1024
mem_total       8000
sym_ignore      true
unrestricted true
mom_start       1
scf_algorithm	diis
scf_max_cycles	250
solvent_method	pcm
geom_opt_tol_energy 25
geom_opt_tol_gradient 75
$end

$solvent
dielectric      1.0001
$end

$pcm
theory iefpcm
$end

$occupied
1 2 3 4 5 6 7 8 9 10 11 12 13 14 15 16 17 18 19 20 21 22 23 24 25 26 27 28 29 30 31 32 33 34 35 36 37 38 39 40 41 42 43 44 45 46 47 48 49 50 51 52 53 54 55 56 57 58 59 60 61 62 63 64 65 66 67 68 69 70 71 72 73 74 75 76 77 78 79 80 81 82 83 84 85 86 87 88 89 90 91 92 93 94 95 96 97 98 99 100 101 102 103 104 105 106 107 108 109 110 111 112 113 114 115 116 117 118 119 120 121 122 123 124 125 126 127 128 129 130 131 132 133 134 135 136 137 138 139 140 141 142 143 144 145 146 147 148 149 150 151 152 153 154 155 156 157 158 159 160 161 162 163 164 165 166 167 168 169 170 171 172 173  175
1 2 3 4 5 6 7 8 9 10 11 12 13 14 15 16 17 18 19 20 21 22 23 24 25 26 27 28 29 30 31 32 33 34 35 36 37 38 39 40 41 42 43 44 45 46 47 48 49 50 51 52 53 54 55 56 57 58 59 60 61 62 63 64 65 66 67 68 69 70 71 72 73 74 75 76 77 78 79 80 81 82 83 84 85 86 87 88 89 90 91 92 93 94 95 96 97 98 99 100 101 102 103 104 105 106 107 108 109 110 111 112 113 114 115 116 117 118 119 120 121 122 123 124 125 126 127 128 129 130 131 132 133 134 135 136 137 138 139 140 141 142 143 144 145 146 147 148 149 150 151 152 153 154 155 156 157 158 159 160 161 162 163 164 165 166 167 168 169 170 171 172 173 174
$end

$molecule
read incoords.mol
$end

--------------------------------------------------------------

   21   -1973.5936248116      8.55E-09 Convergence criterion met
 Total energy in the final basis set = -1973.59362481
   30   -1973.5969199382      9.46E-09 Convergence criterion met
 Total energy in the final basis set = -1973.59691994
   30   -1973.5967999149      5.59E-09 Convergence criterion met
 Total energy in the final basis set = -1973.59679991

                    Orbital Energies (a.u.)
 --------------------------------------------------------------

 Alpha MOs
 -- Occupied --
-10.474 -10.474 -10.473 -10.473 -10.472 -10.472 -10.471 -10.470
-10.469 -10.469 -10.469 -10.469 -10.468 -10.468 -10.468 -10.466
-10.465 -10.465 -10.460 -10.458 -10.456 -10.455 -10.453 -10.453
-10.453 -10.453 -10.450 -10.449 -10.436 -10.436 -10.435 -10.435
-10.435 -10.434 -10.423 -10.422 -10.422 -10.421 -10.420 -10.420
-10.420 -10.419 -10.419 -10.418 -10.415 -10.414 -10.414 -10.414
-10.403 -10.402  -6.907  -6.905  -1.021  -1.017  -0.961  -0.957
 -0.944  -0.943  -0.941  -0.936  -0.905  -0.896  -0.861  -0.858
 -0.856  -0.856  -0.855  -0.853  -0.852  -0.849  -0.819  -0.812
 -0.808  -0.801  -0.770  -0.770  -0.748  -0.745  -0.745  -0.744
 -0.734  -0.734  -0.730  -0.721  -0.692  -0.682  -0.678  -0.663
 -0.648  -0.643  -0.631  -0.627  -0.627  -0.627  -0.600  -0.596
 -0.590  -0.588  -0.585  -0.577  -0.575  -0.545  -0.543  -0.538
 -0.532  -0.529  -0.529  -0.528  -0.518  -0.508  -0.504  -0.495
 -0.494  -0.491  -0.491  -0.487  -0.486  -0.484  -0.483  -0.475
 -0.472  -0.471  -0.469  -0.466  -0.463  -0.459  -0.457  -0.456
 -0.452  -0.451  -0.447  -0.446  -0.445  -0.441  -0.440  -0.438
 -0.437  -0.436  -0.430  -0.425  -0.421  -0.418  -0.406  -0.403
 -0.403  -0.402  -0.401  -0.399  -0.396  -0.395  -0.392  -0.383
 -0.372  -0.371  -0.371  -0.367  -0.367  -0.361  -0.340  -0.336
 -0.331  -0.321  -0.309  -0.306  -0.302  -0.301  -0.280  -0.260
 -0.260  -0.253  -0.252  -0.249  -0.242  -0.150

 Beta MOs
 -- Occupied --
-10.475 -10.474 -10.474 -10.473 -10.472 -10.472 -10.471 -10.470
-10.470 -10.470 -10.470 -10.470 -10.469 -10.468 -10.468 -10.467
-10.465 -10.465 -10.463 -10.461 -10.458 -10.455 -10.454 -10.453
-10.452 -10.451 -10.449 -10.449 -10.436 -10.436 -10.435 -10.435
-10.435 -10.434 -10.423 -10.422 -10.422 -10.421 -10.420 -10.420
-10.420 -10.419 -10.419 -10.418 -10.415 -10.414 -10.414 -10.414
-10.404 -10.402  -6.905  -6.903  -1.021  -1.017  -0.961  -0.957
 -0.943  -0.943  -0.942  -0.938  -0.907  -0.899  -0.862  -0.858
 -0.856  -0.855  -0.855  -0.855  -0.852  -0.851  -0.817  -0.816
 -0.812  -0.800  -0.770  -0.770  -0.747  -0.745  -0.745  -0.744
 -0.735  -0.734  -0.730  -0.722  -0.693  -0.682  -0.674  -0.662
 -0.650  -0.645  -0.630  -0.627  -0.626  -0.626  -0.601  -0.596
 -0.589  -0.589  -0.585  -0.577  -0.574  -0.545  -0.543  -0.538
 -0.532  -0.528  -0.528  -0.527  -0.517  -0.508  -0.504  -0.497
 -0.494  -0.492  -0.490  -0.489  -0.487  -0.485  -0.483  -0.475
 -0.472  -0.471  -0.469  -0.467  -0.463  -0.458  -0.457  -0.456
 -0.453  -0.452  -0.447  -0.445  -0.445  -0.441  -0.440  -0.437
 -0.437  -0.436  -0.429  -0.427  -0.421  -0.420  -0.406  -0.404
 -0.403  -0.403  -0.401  -0.401  -0.399  -0.395  -0.392  -0.383
 -0.371  -0.370  -0.370  -0.366  -0.366  -0.361  -0.351  -0.335
 -0.330  -0.322  -0.320  -0.316  -0.303  -0.299  -0.273  -0.267
 -0.260  -0.260  -0.260  -0.253  -0.249  -0.245

          Ground-State Mulliken Net Atomic Charges

     Atom                 Charge (a.u.)    Spin (a.u.)
  --------------------------------------------------------
      1 C                    -0.142648       0.046644
      2 C                    -0.140443       0.035593
      3 B                     0.612191       0.283901
      4 C                    -0.141777       0.042053
      5 C                    -0.142638       0.056516
      6 B                     0.617788       0.276240
      7 C                    -0.377346      -0.227717
      8 C                     0.107682       0.115815
      9 C                     0.085648       0.114290
     10 C                    -0.370800      -0.222253
     11 C                    -0.384896      -0.186437
     12 C                     0.111474       0.094718
     13 C                     0.084320       0.094801
     14 C                    -0.373190      -0.184351
     15 H                     0.237006       0.009630
     16 C                    -0.219256      -0.024751
     17 C                    -0.212946      -0.023777
     18 C                     0.050370       0.003678
     19 C                    -0.344998      -0.000898
     20 C                     0.129287       0.000673
     21 C                    -0.337736      -0.000980
     22 C                     0.057769       0.003445
     23 C                    -0.746854      -0.000374
     24 C                    -0.747870      -0.000623
     25 H                     0.191570       0.000371
     26 C                    -0.709470      -0.000058
     27 H                     0.191926       0.000387
     28 H                     0.240495      -0.000674
     29 H                     0.226209       0.001502
     30 H                     0.239099      -0.000431
     31 H                     0.240665      -0.000406
     32 H                     0.226533       0.001492
     33 H                     0.240752      -0.000640
     34 H                     0.223857      -0.000002
     35 H                     0.227918       0.000025
     36 H                     0.226284       0.000019
     37 C                     0.056305       0.003379
     38 C                    -0.344737      -0.000897
     39 C                     0.129359       0.000825
     40 C                    -0.340184      -0.000921
     41 C                     0.050728       0.003493
     42 C                    -0.748093      -0.000602
     43 C                    -0.749523      -0.000194
     44 H                     0.191450       0.000367
     45 C                    -0.709457      -0.000068
     46 H                     0.191519       0.000381
     47 H                     0.226499       0.001519
     48 H                     0.242674      -0.000687
     49 H                     0.238160      -0.000375
     50 H                     0.243055      -0.000712
     51 H                     0.226646       0.001574
     52 H                     0.237880      -0.000438
     53 H                     0.223941      -0.000002
     54 H                     0.226315       0.000027
     55 H                     0.227346       0.000035
     56 C                     0.197483      -0.090978
     57 C                     0.197304      -0.073358
     58 C                    -0.371585       0.017952
     59 C                    -0.197088      -0.014849
     60 C                    -0.336484      -0.039363
     61 C                     0.263821       0.006669
     62 C                    -0.333759      -0.031073
     63 C                    -0.200358      -0.010489
     64 H                     0.230976       0.000837
     65 H                     0.226954       0.001809
     66 C                    -0.069959       0.038201
     67 H                     0.240057       0.011414
     68 C                    -0.377742       0.023822
     69 H                     0.233053       0.001130
     70 H                     0.228794      -0.000913
     71 H                     0.239383       0.011840
     72 C                     0.199934      -0.088995
     73 C                    -0.333082      -0.038439
     74 C                    -0.199497      -0.012816
     75 C                    -0.371157       0.022112
     76 H                     0.233162       0.001018
     77 H                     0.229234      -0.000863
     78 H                     0.238447       0.009358
     79 H                     0.227182      -0.000696
     80 C                    -0.068740       0.030807
     81 C                     0.195315      -0.074506
     82 C                    -0.379378       0.019703
     83 C                    -0.197289      -0.012335
     84 C                    -0.337959      -0.031078
     85 C                     0.263607       0.005140
     86 H                     0.230776       0.000933
     87 H                     0.224845       0.001442
     88 H                     0.226815      -0.000758
     89 H                     0.224550       0.001439
     90 H                     0.226524       0.001759
  --------------------------------------------------------
  Sum of atomic charges =    -0.000000

                    Cartesian Multipole Moments
 -----------------------------------------------------------------
    Charge (ESU x 10^10)
                -0.0000
    Dipole Moment (Debye)
         X       0.4685      Y      -0.5445      Z      -0.9313
       Tot       1.1761
    Quadrupole Moments (Debye-Ang)
        XX    -238.4167     XY     -15.6799     YY    -266.8778
        XZ     -14.6693     YZ      -0.7126     ZZ    -301.4272

             Standard Nuclear Orientation (Angstroms)
    I     Atom           X                Y                Z
 ----------------------------------------------------------------
    1      C      -6.2088933415     3.9964550619     1.7596860335
    2      C      -6.7385564381     2.7062911536     2.0149219460
    3      B      -5.8872287102     1.4429674012     1.8386820769
    4      C      -4.4322570374     1.6106626386     1.3857997387
    5      C      -3.8800275950     2.8958429960     1.1550324532
    6      B      -4.7396340482     4.1592711791     1.3367294104
    7      C      -2.5370437558     2.9966446915     0.6951261455
    8      C      -1.7792669304     1.8693905109     0.4562583923
    9      C      -2.3479510101     0.5805998487     0.6790408002
   10      C      -3.6367694483     0.4604301945     1.1393233758
   11      C      -7.0671473633     5.1264068081     1.8441834312
   12      C      -8.3995854665     4.9810275735     2.1639325024
   13      C      -8.9143565889     3.6823489506     2.4457536528
   14      C      -8.1027903376     2.5782708536     2.3740084707
   15      H      -6.6559388131     6.1071772366     1.6285004487
   16      C      -6.5247724105     0.0118217325     2.0408827132
   17      C      -4.1391970974     5.5869033533     1.0447618847
   18      C      -7.1422989378    -0.6432162684     0.9692239859
   19      C      -7.7090905151    -1.9010765238     1.1521546345
   20      C      -7.6845560018    -2.5369441806     2.3846531439
   21      C      -7.0732867962    -1.8798613990     3.4464697590
   22      C      -6.4988807082    -0.6250996325     3.2893097011
   23      C      -5.8566478306     0.0633213121     4.4609259441
   24      C      -7.2071162493     0.0140232003    -0.3822628951
   25      H      -8.1809875992    -2.3958219633     0.3091568345
   26      C      -8.3052442605    -3.8911425922     2.5745897073
   27      H      -7.0429626654    -2.3591159716     4.4201378996
   28      H      -4.8231155164     0.3409662323     4.2439884423
   29      H      -5.8529029272    -0.5675063334     5.3498761390
   30      H      -6.3815534223     0.9878309539     4.7120501502
   31      H      -7.7879202008     0.9383932738    -0.3469354408
   32      H      -7.6689089193    -0.6365369982    -1.1252558927
   33      H      -6.2147411537     0.2830301283    -0.7493356568
   34      H      -8.6605298039    -4.3048768543     1.6311507740
   35      H      -9.1589133054    -3.8478293675     3.2537864558
   36      H      -7.5947069521    -4.6022749558     2.9989148183
   37      C      -3.5396513902     6.3305107052     2.0654531739
   38      C      -3.0012612865     7.5841435561     1.7914250622
   39      C      -3.0422176285     8.1257222394     0.5143705816
   40      C      -3.6466968197     7.3832439091    -0.4939831039
   41      C      -4.1914087345     6.1301357409    -0.2465210115
   42      C      -4.8343964272     5.3505886091    -1.3609164450
   43      C      -3.4708523759     5.7626910814     3.4561680551
   44      H      -2.5386163115     8.1490443126     2.5942179979
   45      C      -2.4459194548     9.4708636929     0.2159404220
   46      H      -3.6942990400     7.7928098262    -1.4984671841
   47      H      -4.8628164555     5.9212828481    -2.2892252789
   48      H      -5.8596903913     5.0686975872    -1.1126554061
   49      H      -4.2971437398     4.4206116672    -1.5616594602
   50      H      -4.4628181061     5.5057531934     3.8334843523
   51      H      -3.0205283986     6.4632106963     4.1593143867
   52      H      -2.8809035216     4.8435353460     3.4799401610
   53      H      -2.0870719633     9.9607496348     1.1206733539
   54      H      -3.1721627561    10.1362913852    -0.2534849952
   55      H      -1.5990242440     9.3878738557    -0.4680772663
   56      C      -0.4410307519     1.6731783825    -0.0667409771
   57      C     -10.3314488816     3.7991729237     2.7196678983
   58      C     -11.3455270777     2.9115590646     3.0308917835
   59      C       1.7600180159     1.9097637036    -0.9870600505
   60      C       1.9347384065     0.5376935285    -1.0679688626
   61      C       0.9046314278    -0.3309780244    -0.6447324929
   62      C     -12.9525820547     4.7514062728     3.0555452905
   63      C     -12.6472656249     3.4100802316     3.1978030595
   64      H     -13.4419511980     2.7169256445     3.4413653603
   65      H       2.8594615003     0.1358390044    -1.4626775011
   66      C      -0.2449901478     0.2798649134    -0.1521703557
   67      H      -4.0751681983    -0.5193924579     1.3023850969
   68      C       0.5852807990     2.4985011591    -0.4962211018
   69      H       2.5605769681     2.5557156505    -1.3224023366
   70      H       0.4950979648     3.5764406443    -0.4649485897
   71      H      -2.1270605752     3.9844120783     0.5115424332
   72      C      -1.3813651193    -0.4207631228     0.2904302955
   73      C       0.8943548390    -1.7444716845    -0.6807181409
   74      C      -0.2198746715    -2.4445726019    -0.2472126328
   75      C      -1.3688570044    -1.8060242445     0.2398954217
   76      H      -0.2057875682    -3.5258909508    -0.2902651804
   77      H      -2.2204744540    -2.3940703337     0.5579836129
   78      H      -8.5033978816     1.5881193588     2.5677779645
   79      H     -11.1572325530     1.8510989781     3.1404965874
   80      C     -10.6503213865     5.1607884209     2.5841949694
   81      C      -9.5107058193     5.9182206601     2.2477689948
   82      C      -9.6808970702     7.2763381829     2.0520309953
   83      C     -10.9657405666     7.8269629061     2.1997470065
   84      C     -12.0734143668     7.0679099288     2.5310592356
   85      C     -11.9356589575     5.6778162355     2.7339248909
   86      H     -11.0931138239     8.8899974506     2.0430282816
   87      H     -13.0429807941     7.5404098472     2.6277830261
   88      H      -8.8515813111     7.9171734849     1.7824095088
   89      H     -13.9738767536     5.0872708127     3.1857298224
   90      H       1.7549138928    -2.2853701792    -1.0539526894
 ----------------------------------------------------------------
