 Q-Chem 5.1, Q-Chem, Inc., Pleasanton, CA (2018)
 Q-Chem 5.1.1 for Intel X86 EM64T Linux

User input:
--------------------------------------------------------------
$rem
threads 8
jobtype opt
method PBEh-3c
basis def2-mSVP
mem_static      1024
mem_total       8000
sym_ignore      true
unrestricted true
scf_algorithm	diis
scf_max_cycles	2500
solvent_method  pcm
geom_opt_tol_energy 25
geom_opt_tol_gradient 75
$end

$pcm
theory  iefpcm
$end

$solvent
dielectric      8.93
$end

$molecule
read uincoords.mol
$end
--------------------------------------------------------------

   32   -1973.6167490264      7.99e-09  Convergence criterion met
 Total energy in the final basis set =    -1973.6167490264
   25   -1973.6243675314      7.27e-09  Convergence criterion met
 Total energy in the final basis set =    -1973.6243675314
   22   -1973.6248726704      9.45e-09  Convergence criterion met
 Total energy in the final basis set =    -1973.6248726704
   23   -1973.6249744264      6.09e-09  Convergence criterion met
 Total energy in the final basis set =    -1973.6249744264
   23   -1973.6249781381      5.84e-09  Convergence criterion met
 Total energy in the final basis set =    -1973.6249781381
   23   -1973.6249788929      5.94e-09  Convergence criterion met
 Total energy in the final basis set =    -1973.6249788929
   23   -1973.6249713739      6.29e-09  Convergence criterion met
 Total energy in the final basis set =    -1973.6249713739
   23   -1973.6249687872      6.37e-09  Convergence criterion met
 Total energy in the final basis set =    -1973.6249687872
   23   -1973.6249679666      7.35e-09  Convergence criterion met
 Total energy in the final basis set =    -1973.6249679666

             Standard Nuclear Orientation (Angstroms)
    I     Atom           X                Y                Z
 ----------------------------------------------------------------
    1      C       0.0222378839     0.0065432339     0.0497860107
    2      C       0.0118379767     0.0220656538     1.4720913921
    3      H       0.9568412350     0.0247358585     2.0057498982
    4      C      -1.1755298758     0.0359665274     2.1718896207
    5      C      -2.4102794725     0.0293647259     1.4570149289
    6      C      -2.4247819548     0.0105023294     0.0842995539
    7      H      -3.3704277091     0.0047248104    -0.4483462426
    8      C      -1.2146820531     0.0011741427    -0.6546133220
    9      C      -1.4915586586     0.0568051082     3.5911358188
   10      C      -0.7631101827     0.0721731217     4.7699615212
   11      H       0.3192913757     0.0698033935     4.7697017801
   12      C      -2.8980793743     0.0615888500     3.6857804939
   13      C      -3.6163338614     0.0803245710     4.8789811163
   14      C      -3.4958326699     0.0452130421     2.4134272557
   15      C      -4.8794011746     0.0470973124     2.3229262920
   16      H      -5.3869705796     0.0347861277     1.3663897546
   17      C      -1.4613978697     0.0914100139     5.9878806387
   18      H      -0.8923135993     0.1035769145     6.9080241531
   19      C      -2.8471251089     0.0956565237     6.0630374342
   20      H      -3.3340692218     0.1108224261     7.0299713644
   21      C      -5.0260783331     0.0818109477     4.7636769602
   22      H      -5.6440167551     0.0958460856     5.6527632360
   23      C      -5.6237015531     0.0653172984     3.5115648994
   24      H      -6.7041272382     0.0667083515     3.4485100724
   25      B       1.3513179038    -0.0087370425    -0.7218100603
   26      C       1.3121452405     0.0169088309    -2.2576366969
   27      C       2.5211438448     0.0402209843    -3.0052731316
   28      H       3.4685497437     0.0419808753    -2.4763316723
   29      C       2.5009566865     0.0619957894    -4.3827163282
   30      C       1.2492349065     0.0560065288    -5.0675097570
   31      C       0.0697148679     0.0303469066    -4.3674094689
   32      H      -0.8759979012     0.0252831398    -4.8998783809
   33      C       0.0692538511     0.0122538798    -2.9492806043
   34      C       3.5513328115     0.0897774579    -5.3884129407
   35      C       4.9377086250     0.1078886944    -5.3782324851
   36      H       5.4994771472     0.1027062404    -4.4530791664
   37      C       2.9026107113     0.0986599471    -6.6400706910
   38      C       3.5528464636     0.1237083605    -7.8732485821
   39      C       1.5049327148     0.0788375920    -6.4936643944
   40      C       0.7147434203     0.0839440666    -7.6336530666
   41      H      -0.3665334460     0.0692693337    -7.5769449984
   42      C       5.6180189438     0.1333578703    -6.6062303877
   43      H       6.6998894623     0.1473413379    -6.5964279095
   44      C       4.9639061464     0.1414105307    -7.8301423343
   45      H       5.5374574371     0.1614664564    -8.7484942466
   46      C       1.3475187523     0.1087179351    -8.8857880552
   47      H       0.7344367735     0.1125233990    -9.7777040510
   48      C       2.7275487170     0.1284362524    -9.0217206502
   49      H       3.1706227101     0.1472181331   -10.0096886175
   50      B      -1.2622449390    -0.0153274300    -2.1887793858
   51      C       2.7316510354    -0.0762591322     0.0373179579
   52      C       3.4066542357     1.0920915587     0.4180805230
   53      C       4.6222536432     1.0081595279     1.0871788068
   54      H       5.1328135560     1.9213321068     1.3779124856
   55      C       5.1987825314    -0.2213948627     1.3941155575
   56      C       4.5261620378    -1.3742254991     1.0094724586
   57      H       4.9595403457    -2.3430600934     1.2372784644
   58      C       3.3072523753    -1.3157926648     0.3374899556
   59      C       6.5117788781    -0.2914000268     2.1202560361
   60      H       6.8194365057    -1.3227031968     2.2909931659
   61      H       7.3062134092     0.2015682720     1.5570133408
   62      H       6.4564689796     0.2027062853     3.0918137412
   63      C       2.6109159380    -2.5860566485    -0.0693174162
   64      H       3.1682222718    -3.4699531857     0.2414391542
   65      H       2.4811006381    -2.6402686445    -1.1526600639
   66      H       1.6119525548    -2.6534101669     0.3675340056
   67      C       2.8090100098     2.4336172316     0.0956354545
   68      H       3.4345012248     3.2522400971     0.4517363300
   69      H       2.6753785178     2.5604836005    -0.9812460681
   70      H       1.8207195918     2.5492094654     0.5466522945
   71      C      -2.6368411721    -0.0696738231    -2.9717807542
   72      C      -3.2933947637     1.1040524179    -3.3621223474
   73      C      -4.4911306593     1.0366969072    -4.0710297391
   74      H      -4.9839179781     1.9576154676    -4.3668582792
   75      C      -5.0678222774    -0.1802540982    -4.4104481097
   76      C      -4.4108489580    -1.3435586127    -4.0219468824
   77      H      -4.8409670042    -2.3070225722    -4.2788562145
   78      C      -3.2151426706    -1.3022234468    -3.3139132296
   79      C      -6.3653777205    -0.2487925389    -5.1641074424
   80      H      -6.6917767345     0.7383227770    -5.4901084896
   81      H      -6.2812845639    -0.8803762688    -6.0500520505
   82      H      -7.1613351187    -0.6713240504    -4.5475251631
   83      C      -2.7017542450     2.4442410274    -3.0251805918
   84      H      -3.3374508670     3.2623766678    -3.3642082613
   85      H      -2.5580225111     2.5582922922    -1.9486365414
   86      H      -1.7203540867     2.5736403419    -3.4871829523
   87      C      -2.5371960574    -2.5860781917    -2.9220950059
   88      H      -3.1117132968    -3.4575631000    -3.2367071569
   89      H      -2.3993323510    -2.6519140302    -1.8407971478
   90      H      -1.5439170776    -2.6654256625    -3.3697632645
 ----------------------------------------------------------------

   23   -1973.6249681866      6.60e-09  Convergence criterion met
 Total energy in the final basis set =    -1973.6249681866
 Final energy is   -1973.62496818664
 **  OPTIMIZATION CONVERGED  **

                    Orbital Energies (a.u.)
 --------------------------------------------------------------

 Alpha MOs
 -- Occupied --
-10.477 -10.477 -10.474 -10.474 -10.473 -10.473 -10.472 -10.472
-10.472 -10.471 -10.471 -10.471 -10.471 -10.471 -10.466 -10.466
-10.466 -10.465 -10.465 -10.465 -10.463 -10.463 -10.460 -10.460
-10.457 -10.457 -10.455 -10.455 -10.445 -10.445 -10.445 -10.444
-10.444 -10.444 -10.428 -10.428 -10.428 -10.428 -10.427 -10.427
-10.426 -10.426 -10.425 -10.425 -10.421 -10.421 -10.421 -10.421
-10.413 -10.411  -6.913  -6.912  -1.023  -1.023  -0.965  -0.963
 -0.952  -0.951  -0.942  -0.942  -0.911  -0.903  -0.869  -0.865
 -0.864  -0.863  -0.860  -0.858  -0.855  -0.855  -0.823  -0.819
 -0.817  -0.805  -0.776  -0.776  -0.754  -0.753  -0.753  -0.751
 -0.738  -0.735  -0.735  -0.724  -0.694  -0.684  -0.682  -0.668
 -0.652  -0.648  -0.637  -0.634  -0.634  -0.633  -0.600  -0.598
 -0.592  -0.591  -0.587  -0.579  -0.578  -0.548  -0.546  -0.544
 -0.536  -0.536  -0.531  -0.530  -0.522  -0.512  -0.506  -0.500
 -0.495  -0.495  -0.494  -0.494  -0.494  -0.488  -0.484  -0.478
 -0.477  -0.477  -0.475  -0.468  -0.467  -0.462  -0.461  -0.460
 -0.460  -0.459  -0.452  -0.451  -0.447  -0.446  -0.446  -0.444
 -0.441  -0.440  -0.435  -0.434  -0.430  -0.425  -0.411  -0.408
 -0.407  -0.407  -0.407  -0.405  -0.403  -0.399  -0.394  -0.388
 -0.381  -0.379  -0.378  -0.374  -0.374  -0.370  -0.358  -0.344
 -0.338  -0.332  -0.328  -0.327  -0.308  -0.306  -0.290  -0.276
 -0.270  -0.270  -0.267  -0.262  -0.259  -0.259  -0.163

 Beta MOs
 -- Occupied --
-10.477 -10.476 -10.474 -10.474 -10.473 -10.473 -10.470 -10.470
-10.470 -10.469 -10.469 -10.469 -10.469 -10.469 -10.467 -10.467
-10.467 -10.467 -10.464 -10.463 -10.461 -10.461 -10.459 -10.459
-10.457 -10.456 -10.455 -10.454 -10.445 -10.445 -10.444 -10.444
-10.444 -10.444 -10.428 -10.428 -10.428 -10.428 -10.426 -10.426
-10.426 -10.425 -10.425 -10.425 -10.421 -10.421 -10.421 -10.420
-10.413 -10.412  -6.910  -6.910  -1.022  -1.021  -0.962  -0.960
 -0.952  -0.951  -0.938  -0.938  -0.907  -0.899  -0.867  -0.864
 -0.863  -0.863  -0.854  -0.854  -0.853  -0.853  -0.819  -0.812
 -0.810  -0.802  -0.776  -0.776  -0.753  -0.753  -0.753  -0.751
 -0.735  -0.732  -0.732  -0.722  -0.692  -0.682  -0.678  -0.665
 -0.650  -0.646  -0.636  -0.634  -0.634  -0.633  -0.597  -0.595
 -0.589  -0.588  -0.586  -0.576  -0.576  -0.547  -0.545  -0.542
 -0.535  -0.535  -0.530  -0.529  -0.519  -0.510  -0.505  -0.498
 -0.494  -0.494  -0.493  -0.488  -0.488  -0.487  -0.483  -0.477
 -0.477  -0.476  -0.474  -0.466  -0.466  -0.461  -0.460  -0.459
 -0.459  -0.459  -0.451  -0.451  -0.447  -0.446  -0.445  -0.441
 -0.440  -0.439  -0.432  -0.425  -0.424  -0.419  -0.409  -0.407
 -0.407  -0.404  -0.402  -0.397  -0.395  -0.395  -0.393  -0.387
 -0.379  -0.377  -0.375  -0.373  -0.372  -0.360  -0.343  -0.342
 -0.335  -0.327  -0.309  -0.303  -0.303  -0.303  -0.275  -0.270
 -0.270  -0.262  -0.258  -0.249  -0.234

          Ground-State Mulliken Net Atomic Charges

     Atom                 Charge (a.u.)    Spin (a.u.)
  --------------------------------------------------------
      1 C                    -0.148031       0.047014
      2 C                    -0.385873       0.100819
      3 H                     0.248012      -0.006564
      4 C                     0.091650       0.028466
      5 C                     0.065431       0.025142
      6 C                    -0.376644       0.101844
      7 H                     0.248621      -0.006542
      8 C                    -0.144038       0.057595
      9 C                     0.182314       0.015293
     10 C                    -0.386054       0.131084
     11 H                     0.259181      -0.008226
     12 C                    -0.068184       0.000762
     13 C                     0.236174      -0.089061
     14 C                     0.181065       0.011751
     15 C                    -0.377028       0.135327
     16 H                     0.259102      -0.008392
     17 C                    -0.222424      -0.077763
     18 H                     0.265772       0.003199
     19 C                    -0.345277       0.198436
     20 H                     0.263563      -0.011039
     21 C                    -0.341284       0.199958
     22 H                     0.262934      -0.011146
     23 C                    -0.225733      -0.081393
     24 H                     0.265915       0.003382
     25 B                     0.585437       0.251982
     26 C                    -0.148396       0.044187
     27 C                    -0.384048       0.102183
     28 H                     0.248949      -0.006637
     29 C                     0.090636       0.029638
     30 C                     0.065013       0.023503
     31 C                    -0.376265       0.100752
     32 H                     0.249254      -0.006471
     33 C                    -0.143360       0.060118
     34 C                     0.184191       0.016729
     35 C                    -0.386281       0.131811
     36 H                     0.259390      -0.008282
     37 C                    -0.068779       0.000622
     38 C                     0.234192      -0.088972
     39 C                     0.182151       0.011399
     40 C                    -0.378166       0.133848
     41 H                     0.258878      -0.008310
     42 C                    -0.222298      -0.077964
     43 H                     0.265899       0.003195
     44 C                    -0.344380       0.200359
     45 H                     0.263935      -0.011136
     46 C                    -0.225455      -0.080413
     47 H                     0.265949       0.003349
     48 C                    -0.340390       0.196620
     49 H                     0.263005      -0.010945
     50 B                     0.579162       0.257595
     51 C                    -0.203982      -0.021547
     52 C                     0.042508       0.002910
     53 C                    -0.361608      -0.000735
     54 H                     0.218622       0.000337
     55 C                     0.106865       0.000672
     56 C                    -0.373968      -0.000719
     57 H                     0.220075       0.000314
     58 C                     0.037530       0.002464
     59 C                    -0.722335      -0.000052
     60 H                     0.236429      -0.000002
     61 H                     0.236804       0.000029
     62 H                     0.236718       0.000029
     63 C                    -0.763216       0.001392
     64 H                     0.242506       0.001310
     65 H                     0.243182      -0.000798
     66 H                     0.243589      -0.000855
     67 C                    -0.760642       0.001669
     68 H                     0.241784       0.001223
     69 H                     0.242596      -0.000802
     70 H                     0.242878      -0.000820
     71 C                    -0.207893      -0.022259
     72 C                     0.040623       0.002818
     73 C                    -0.369608      -0.000654
     74 H                     0.219945       0.000331
     75 C                     0.107050       0.000533
     76 C                    -0.362545      -0.000729
     77 H                     0.219071       0.000324
     78 C                     0.037576       0.002577
     79 C                    -0.722430      -0.000042
     80 H                     0.236340      -0.000002
     81 H                     0.236310       0.000017
     82 H                     0.237926       0.000025
     83 C                    -0.759926       0.001673
     84 H                     0.241910       0.001185
     85 H                     0.242692      -0.000861
     86 H                     0.242271      -0.000751
     87 C                    -0.760927       0.001494
     88 H                     0.242194       0.001222
     89 H                     0.243016      -0.000840
     90 H                     0.242678      -0.000783
  --------------------------------------------------------
  Sum of atomic charges =    -0.000000

                    Cartesian Multipole Moments
 -----------------------------------------------------------------
    Charge (ESU x 10^10)
                -0.0000
    Dipole Moment (Debye)
         X      -0.1215      Y       0.2538      Z      -0.1384
       Tot       0.3136
    Quadrupole Moments (Debye-Ang)
        XX    -240.7341     XY       1.0647     YY    -303.9309
        XZ     -35.7661     YZ      -0.1473     ZZ    -196.7783

 Total job time:  25535.03s(wall), 182833.30s(cpu)
        *  Thank you very much for using Q-Chem.  Have a nice day.  *
