 Q-Chem 5.1, Q-Chem, Inc., Pleasanton, CA (2018)
 Q-Chem 5.1.1 for Intel X86 EM64T Linux

User input:
--------------------------------------------------------------
$rem
threads 8
jobtype opt
method PBEh-3c
basis def2-mSVP
mem_static      1024
mem_total       8000
sym_ignore      true
unrestricted true
scf_algorithm	diis
scf_max_cycles	250
solvent_method  pcm
geom_opt_tol_energy 25
geom_opt_tol_gradient 75
$end

$pcm
theory  iefpcm
$end

$solvent
dielectric      2.38
$end

$molecule
read uincoords.mol
$end
--------------------------------------------------------------

   43   -1973.6052558962      5.75e-09  Convergence criterion met
 Total energy in the final basis set =    -1973.6052558962
   26   -1973.6126794328      7.83e-09  Convergence criterion met
 Total energy in the final basis set =    -1973.6126794328
   23   -1973.6131408987      5.92e-09  Convergence criterion met
 Total energy in the final basis set =    -1973.6131408987
   21   -1973.6132142803      9.82e-09  Convergence criterion met
 Total energy in the final basis set =    -1973.6132142803
   21   -1973.6132158658      9.13e-09  Convergence criterion met
 Total energy in the final basis set =    -1973.6132158658
   21   -1973.6132168403      9.24e-09  Convergence criterion met
 Total energy in the final basis set =    -1973.6132168403
   21   -1973.6132106899      9.41e-09  Convergence criterion met
 Total energy in the final basis set =    -1973.6132106899
   21   -1973.6132102625      9.41e-09  Convergence criterion met
 Total energy in the final basis set =    -1973.6132102625
   21   -1973.6132093280      9.46e-09  Convergence criterion met
 Total energy in the final basis set =    -1973.6132093280

             Standard Nuclear Orientation (Angstroms)
    I     Atom           X                Y                Z
 ----------------------------------------------------------------
    1      C       0.0219392898     0.0034557488     0.0498308413
    2      C       0.0120856897     0.0128916540     1.4715300681
    3      H       0.9590319348     0.0135336755     2.0018983488
    4      C      -1.1754354308     0.0222748715     2.1723637829
    5      C      -2.4092364365     0.0181222242     1.4579735932
    6      C      -2.4233039391     0.0055041178     0.0845453553
    7      H      -3.3673713063     0.0012928818    -0.4510905006
    8      C      -1.2137736501    -0.0002803301    -0.6538426139
    9      C      -1.4910926347     0.0354600194     3.5907941317
   10      C      -0.7635764166     0.0450730978     4.7696855914
   11      H       0.3187782792     0.0433644388     4.7695485956
   12      C      -2.8975387317     0.0385386628     3.6860557188
   13      C      -3.6158892106     0.0503130141     4.8787538999
   14      C      -3.4943399962     0.0281489831     2.4131373215
   15      C      -4.8774956402     0.0291703880     2.3226820995
   16      H      -5.3846703083     0.0212573991     1.3659558738
   17      C      -1.4617793813     0.0572722168     5.9875082790
   18      H      -0.8926428679     0.0649039773     6.9077038511
   19      C      -2.8464842253     0.0600004677     6.0625272031
   20      H      -3.3329969907     0.0695727888     7.0297773210
   21      C      -5.0253512974     0.0511188684     4.7623590713
   22      H      -5.6441611257     0.0599342096     5.6509312533
   23      C      -5.6221508294     0.0406063212     3.5108272550
   24      H      -6.7025782684     0.0413342994     3.4473225987
   25      B       1.3507699113    -0.0073957091    -0.7219409536
   26      C       1.3113366992     0.0140135296    -2.2576514833
   27      C       2.5198890108     0.0320459009    -3.0048055716
   28      H       3.4656920503     0.0330353705    -2.4728001555
   29      C       2.5001800545     0.0486784037    -4.3830005271
   30      C       1.2492451154     0.0437774905    -5.0669962430
   31      C       0.0695456348     0.0239295798    -4.3659073546
   32      H      -0.8780008550     0.0194090199    -4.8952841349
   33      C       0.0695678367     0.0102106409    -2.9484115389
   34      C       3.5498577848     0.0694561537    -5.3880639511
   35      C       4.9358512634     0.0830978709    -5.3788296495
   36      H       5.4977270176     0.0793200792    -4.4537934068
   37      C       2.9015666032     0.0757208727    -6.6399452244
   38      C       3.5512377683     0.0941654696    -7.8730264039
   39      C       1.5039337711     0.0605891335    -6.4922460194
   40      C       0.7139048538     0.0637416959    -7.6318181289
   41      H      -0.3673287772     0.0523572740    -7.5746208575
   42      C       5.6159854312     0.1019769589    -6.6067830486
   43      H       6.6979291823     0.1125358291    -6.5970763959
   44      C       4.9621522164     0.1076357221    -7.8297087224
   45      H       5.5361094365     0.1224865786    -8.7479288164
   46      C       1.3459873080     0.0819974365    -8.8840968199
   47      H       0.7324105459     0.0842954104    -9.7757115611
   48      C       2.7250692715     0.0970901370    -9.0206320146
   49      H       3.1670969338     0.1108466028   -10.0091761595
   50      B      -1.2616894405    -0.0122867301    -2.1877897891
   51      C       2.7310487310    -0.0636720781     0.0367530971
   52      C       3.3969378612     1.1110288949     0.4123493560
   53      C       4.6123198030     1.0381732521     1.0816797280
   54      H       5.1164129030     1.9560117271     1.3688350813
   55      C       5.1970012753    -0.1855524392     1.3934531514
   56      C       4.5331678044    -1.3442353080     1.0136937465
   57      H       4.9734048744    -2.3089051115     1.2456215764
   58      C       3.3145734922    -1.2977450336     0.3417190158
   59      C       6.5101201993    -0.2430685348     2.1201128860
   60      H       6.8257792275    -1.2712835179     2.2948994757
   61      H       7.3015650122     0.2527406314     1.5551791403
   62      H       6.4509700838     0.2530299535     3.0904259892
   63      C       2.6252197069    -2.5729645223    -0.0604344868
   64      H       3.1875678416    -3.4530557091     0.2521435716
   65      H       2.4939420606    -2.6310842176    -1.1432944460
   66      H       1.6271480423    -2.6444564149     0.3775477739
   67      C       2.7880699277     2.4457350026     0.0835052859
   68      H       3.4061838879     3.2716851296     0.4356825344
   69      H       2.6530547778     2.5665430761    -0.9937934489
   70      H       1.7986252226     2.5551384595     0.5333119398
   71      C      -2.6360096393    -0.0565238240    -2.9706660294
   72      C      -3.2841823634     1.1226350570    -3.3571229688
   73      C      -4.4808731193     1.0649730374    -4.0672659227
   74      H      -4.9675815464     1.9899229367    -4.3602751405
   75      C      -5.0643255779    -0.1466581265    -4.4112466601
   76      C      -4.4155627799    -1.3149635568    -4.0263947371
   77      H      -4.8516320775    -2.2746455439    -4.2872614576
   78      C      -3.2210209031    -1.2841444298    -3.3172351206
   79      C      -6.3615041163    -0.2048997168    -5.1661284740
   80      H      -6.6814448126     0.7848535556    -5.4906106815
   81      H      -6.2808341005    -0.8339748157    -6.0541699325
   82      H      -7.1612621414    -0.6227274727    -4.5513058567
   83      C      -2.6828606808     2.4567296619    -3.0141108032
   84      H      -3.3116905519     3.2813902995    -3.3502520351
   85      H      -2.5390510635     2.5653770438    -1.9371376803
   86      H      -1.6998647107     2.5806548549    -3.4739824901
   87      C      -2.5498356666    -2.5722610564    -2.9287322483
   88      H      -3.1288150560    -3.4402641355    -3.2449289933
   89      H      -2.4114332877    -2.6413115480    -1.8478201922
   90      H      -1.5571106877    -2.6556912106    -3.3766244237
 ----------------------------------------------------------------

   21   -1973.6132092555      9.76e-09  Convergence criterion met
 Total energy in the final basis set =    -1973.6132092555
 Final energy is   -1973.61320925546
 **  OPTIMIZATION CONVERGED  **

                    Orbital Energies (a.u.)
 --------------------------------------------------------------

 Alpha MOs
 -- Occupied --
-10.474 -10.473 -10.472 -10.472 -10.471 -10.471 -10.471 -10.471
-10.470 -10.470 -10.470 -10.470 -10.469 -10.469 -10.466 -10.465
-10.465 -10.465 -10.462 -10.462 -10.460 -10.459 -10.456 -10.456
-10.453 -10.453 -10.452 -10.452 -10.440 -10.440 -10.439 -10.439
-10.439 -10.438 -10.424 -10.424 -10.423 -10.423 -10.423 -10.423
-10.422 -10.422 -10.422 -10.421 -10.417 -10.417 -10.416 -10.416
-10.408 -10.406  -6.908  -6.908  -1.020  -1.020  -0.962  -0.960
 -0.947  -0.947  -0.940  -0.940  -0.908  -0.900  -0.865  -0.861
 -0.859  -0.859  -0.857  -0.855  -0.854  -0.854  -0.820  -0.816
 -0.815  -0.802  -0.773  -0.772  -0.751  -0.749  -0.748  -0.747
 -0.736  -0.734  -0.733  -0.722  -0.692  -0.683  -0.679  -0.665
 -0.650  -0.646  -0.633  -0.630  -0.630  -0.629  -0.599  -0.597
 -0.590  -0.588  -0.586  -0.577  -0.576  -0.545  -0.545  -0.541
 -0.532  -0.532  -0.530  -0.529  -0.519  -0.509  -0.504  -0.497
 -0.493  -0.493  -0.492  -0.491  -0.490  -0.487  -0.483  -0.475
 -0.474  -0.474  -0.472  -0.466  -0.465  -0.459  -0.459  -0.458
 -0.455  -0.454  -0.448  -0.447  -0.446  -0.443  -0.442  -0.440
 -0.438  -0.438  -0.432  -0.431  -0.427  -0.422  -0.407  -0.405
 -0.405  -0.404  -0.404  -0.403  -0.403  -0.397  -0.392  -0.385
 -0.377  -0.375  -0.374  -0.370  -0.369  -0.366  -0.354  -0.339
 -0.334  -0.328  -0.323  -0.323  -0.306  -0.304  -0.286  -0.273
 -0.265  -0.265  -0.264  -0.257  -0.255  -0.253  -0.159

 Beta MOs
 -- Occupied --
-10.474 -10.473 -10.471 -10.471 -10.471 -10.471 -10.469 -10.469
-10.468 -10.468 -10.468 -10.468 -10.467 -10.467 -10.467 -10.466
-10.466 -10.466 -10.460 -10.460 -10.458 -10.458 -10.455 -10.455
-10.453 -10.452 -10.452 -10.452 -10.440 -10.440 -10.439 -10.439
-10.439 -10.438 -10.424 -10.424 -10.423 -10.423 -10.423 -10.423
-10.421 -10.421 -10.421 -10.421 -10.417 -10.417 -10.416 -10.416
-10.408 -10.406  -6.906  -6.906  -1.019  -1.019  -0.959  -0.957
 -0.947  -0.947  -0.937  -0.937  -0.904  -0.896  -0.863  -0.860
 -0.859  -0.858  -0.852  -0.852  -0.851  -0.850  -0.816  -0.809
 -0.808  -0.799  -0.772  -0.772  -0.749  -0.749  -0.748  -0.747
 -0.733  -0.730  -0.730  -0.720  -0.690  -0.680  -0.675  -0.662
 -0.648  -0.644  -0.632  -0.629  -0.629  -0.629  -0.596  -0.595
 -0.587  -0.586  -0.585  -0.575  -0.573  -0.544  -0.543  -0.539
 -0.531  -0.531  -0.529  -0.528  -0.517  -0.507  -0.503  -0.496
 -0.492  -0.492  -0.490  -0.485  -0.485  -0.484  -0.482  -0.475
 -0.474  -0.473  -0.471  -0.465  -0.464  -0.458  -0.457  -0.457
 -0.455  -0.454  -0.448  -0.447  -0.446  -0.443  -0.442  -0.438
 -0.438  -0.436  -0.429  -0.421  -0.421  -0.416  -0.406  -0.404
 -0.403  -0.402  -0.401  -0.395  -0.393  -0.393  -0.391  -0.384
 -0.374  -0.373  -0.371  -0.369  -0.368  -0.357  -0.339  -0.338
 -0.331  -0.322  -0.305  -0.301  -0.301  -0.299  -0.271  -0.265
 -0.265  -0.257  -0.253  -0.245  -0.231

          Ground-State Mulliken Net Atomic Charges

     Atom                 Charge (a.u.)    Spin (a.u.)
  --------------------------------------------------------
      1 C                    -0.147210       0.048056
      2 C                    -0.383442       0.106683
      3 H                     0.243494      -0.006884
      4 C                     0.101878       0.030777
      5 C                     0.075171       0.026555
      6 C                    -0.373832       0.108929
      7 H                     0.243672      -0.006932
      8 C                    -0.143209       0.057140
      9 C                     0.189830       0.006421
     10 C                    -0.382872       0.138785
     11 H                     0.244499      -0.008700
     12 C                    -0.068968       0.004618
     13 C                     0.251563      -0.090279
     14 C                     0.188470       0.003786
     15 C                    -0.373331       0.142744
     16 H                     0.244606      -0.008857
     17 C                    -0.210689      -0.083510
     18 H                     0.249479       0.003547
     19 C                    -0.343588       0.198891
     20 H                     0.244834      -0.011257
     21 C                    -0.339082       0.201093
     22 H                     0.244262      -0.011403
     23 C                    -0.214143      -0.086770
     24 H                     0.249733       0.003709
     25 B                     0.605700       0.243240
     26 C                    -0.147456       0.044612
     27 C                    -0.381772       0.108491
     28 H                     0.244630      -0.006982
     29 C                     0.100716       0.032195
     30 C                     0.074777       0.024698
     31 C                    -0.373719       0.107591
     32 H                     0.244730      -0.006843
     33 C                    -0.142427       0.060419
     34 C                     0.191584       0.007855
     35 C                    -0.383050       0.139824
     36 H                     0.244824      -0.008775
     37 C                    -0.069548       0.004504
     38 C                     0.249615      -0.090263
     39 C                     0.189593       0.003379
     40 C                    -0.374527       0.141216
     41 H                     0.244542      -0.008769
     42 C                    -0.210596      -0.083880
     43 H                     0.249618       0.003550
     44 C                    -0.342702       0.201182
     45 H                     0.245154      -0.011378
     46 C                    -0.213839      -0.085797
     47 H                     0.249753       0.003676
     48 C                    -0.338252       0.197657
     49 H                     0.244323      -0.011194
     50 B                     0.599125       0.249487
     51 C                    -0.209333      -0.020475
     52 C                     0.049081       0.002711
     53 C                    -0.352082      -0.000713
     54 H                     0.204893       0.000325
     55 C                     0.118144       0.000613
     56 C                    -0.361728      -0.000680
     57 H                     0.205565       0.000307
     58 C                     0.045695       0.002301
     59 C                    -0.716779      -0.000048
     60 H                     0.230265      -0.000002
     61 H                     0.232031       0.000026
     62 H                     0.232017       0.000026
     63 C                    -0.757760       0.001514
     64 H                     0.233756       0.001292
     65 H                     0.243290      -0.000793
     66 H                     0.243806      -0.000842
     67 C                    -0.755184       0.001782
     68 H                     0.233126       0.001216
     69 H                     0.242502      -0.000794
     70 H                     0.242824      -0.000813
     71 C                    -0.213134      -0.021214
     72 C                     0.046934       0.002639
     73 C                    -0.357867      -0.000637
     74 H                     0.205447       0.000321
     75 C                     0.118158       0.000492
     76 C                    -0.352324      -0.000700
     77 H                     0.205379       0.000316
     78 C                     0.045478       0.002427
     79 C                    -0.716881      -0.000039
     80 H                     0.230110      -0.000002
     81 H                     0.231388       0.000016
     82 H                     0.233471       0.000023
     83 C                    -0.754314       0.001782
     84 H                     0.233282       0.001179
     85 H                     0.242739      -0.000850
     86 H                     0.242132      -0.000750
     87 C                    -0.755278       0.001609
     88 H                     0.233417       0.001206
     89 H                     0.243106      -0.000833
     90 H                     0.242709      -0.000774
  --------------------------------------------------------
  Sum of atomic charges =    -0.000000

                    Cartesian Multipole Moments
 -----------------------------------------------------------------
    Charge (ESU x 10^10)
                -0.0000
    Dipole Moment (Debye)
         X      -0.1062      Y       0.1493      Z      -0.1191
       Tot       0.2185
    Quadrupole Moments (Debye-Ang)
        XX    -251.0557     XY       0.8801     YY    -304.6408
        XZ     -29.2768     YZ      -0.0421     ZZ    -215.0342

 Total job time:  28688.34s(wall), 200464.70s(cpu)
        *  Thank you very much for using Q-Chem.  Have a nice day.  *
