 Q-Chem 5.0, Q-Chem, Inc., Pleasanton, CA (2017)
 Q-Chem 5.0.1 for Intel X86 EM64T Linux

User input:
--------------------------------------------------------------
$rem
threads 8
jobtype sp
method PBEh-3c
basis def2-mSVP
mem_static      1024
mem_total       8000
sym_ignore      true
unrestricted true
scf_algorithm	diis
scf_max_cycles	250
solvent_method  pcm
$end

$pcm
theory  iefpcm
$end

$solvent
dielectric      1.0001
$end

$molecule
read uincoords.mol
$end

--------------------------------------------------------------

   11   -1973.5976570725      5.93E-06 Convergence criterion met
 Total energy in the final basis set = -1973.59765707
 Total job time:  979.54s(wall), 3860.44s(cpu)
        *  Thank you very much for using Q-Chem.  Have a nice day.  *
 Q-Chem 5.0, Q-Chem, Inc., Pleasanton, CA (2017)
 Q-Chem 5.0.1 for Intel X86 EM64T Linux

User input:
--------------------------------------------------------------

$rem
threads 8
jobtype opt
method PBEh-3c
basis def2-mSVP
mem_static      1024
mem_total       8000
sym_ignore      true
unrestricted true
scf_algorithm   diis
scf_max_cycles  250
solvent_method  pcm
geom_opt_tol_energy 25
geom_opt_tol_gradient 75
scf_guess	read
mom_start	1
$end

$pcm
theory  iefpcm
$end

$solvent
dielectric      1.0001
$end

$molecule
read uincoords.mol
$end

--------------------------------------------------------------

   18   -1973.5969846669      8.51E-09 Convergence criterion met
 Total energy in the final basis set = -1973.59698467
   23   -1973.6006602211      8.67E-09 Convergence criterion met
 Total energy in the final basis set = -1973.60066022
   22   -1973.6005698489      9.44E-09 Convergence criterion met
 Total energy in the final basis set = -1973.60056985

                    Orbital Energies (a.u.)
 --------------------------------------------------------------

 Alpha MOs
 -- Occupied --
-10.473 -10.473 -10.473 -10.472 -10.472 -10.472 -10.471 -10.471
-10.471 -10.470 -10.470 -10.470 -10.470 -10.470 -10.467 -10.467
-10.467 -10.467 -10.461 -10.461 -10.459 -10.459 -10.454 -10.454
-10.451 -10.451 -10.451 -10.451 -10.436 -10.436 -10.435 -10.435
-10.435 -10.434 -10.423 -10.422 -10.420 -10.420 -10.420 -10.420
-10.419 -10.419 -10.419 -10.419 -10.415 -10.414 -10.414 -10.414
-10.403 -10.402  -6.906  -6.905  -1.020  -1.020  -0.962  -0.960
 -0.944  -0.943  -0.941  -0.941  -0.907  -0.900  -0.863  -0.858
 -0.857  -0.856  -0.855  -0.855  -0.855  -0.853  -0.819  -0.817
 -0.815  -0.801  -0.770  -0.770  -0.748  -0.745  -0.745  -0.744
 -0.736  -0.735  -0.733  -0.723  -0.693  -0.683  -0.678  -0.665
 -0.650  -0.646  -0.631  -0.627  -0.627  -0.626  -0.600  -0.599
 -0.591  -0.588  -0.587  -0.578  -0.576  -0.546  -0.543  -0.539
 -0.531  -0.530  -0.529  -0.528  -0.519  -0.510  -0.505  -0.496
 -0.494  -0.493  -0.492  -0.490  -0.489  -0.487  -0.484  -0.475
 -0.472  -0.471  -0.470  -0.467  -0.463  -0.459  -0.457  -0.456
 -0.453  -0.452  -0.447  -0.446  -0.445  -0.441  -0.440  -0.438
 -0.438  -0.436  -0.431  -0.430  -0.426  -0.421  -0.406  -0.405
 -0.405  -0.404  -0.403  -0.402  -0.401  -0.397  -0.393  -0.384
 -0.375  -0.372  -0.371  -0.367  -0.366  -0.363  -0.353  -0.336
 -0.332  -0.327  -0.322  -0.321  -0.306  -0.304  -0.284  -0.273
 -0.264  -0.260  -0.260  -0.253  -0.253  -0.250  -0.156

 Beta MOs
 -- Occupied --
-10.472 -10.472 -10.472 -10.471 -10.470 -10.470 -10.470 -10.470
-10.470 -10.469 -10.469 -10.469 -10.468 -10.468 -10.468 -10.468
-10.468 -10.468 -10.460 -10.460 -10.457 -10.457 -10.454 -10.453
-10.451 -10.451 -10.451 -10.451 -10.436 -10.436 -10.435 -10.435
-10.435 -10.434 -10.423 -10.422 -10.420 -10.420 -10.419 -10.419
-10.419 -10.419 -10.418 -10.418 -10.414 -10.414 -10.414 -10.414
-10.404 -10.402  -6.904  -6.903  -1.019  -1.018  -0.958  -0.957
 -0.943  -0.943  -0.937  -0.937  -0.903  -0.896  -0.861  -0.858
 -0.855  -0.855  -0.853  -0.853  -0.851  -0.850  -0.815  -0.810
 -0.808  -0.799  -0.770  -0.770  -0.747  -0.745  -0.745  -0.744
 -0.733  -0.731  -0.730  -0.721  -0.691  -0.681  -0.674  -0.662
 -0.648  -0.644  -0.630  -0.627  -0.626  -0.626  -0.597  -0.597
 -0.588  -0.587  -0.586  -0.576  -0.574  -0.544  -0.543  -0.537
 -0.531  -0.529  -0.528  -0.527  -0.516  -0.507  -0.503  -0.495
 -0.493  -0.492  -0.490  -0.485  -0.484  -0.484  -0.483  -0.474
 -0.472  -0.471  -0.469  -0.466  -0.463  -0.457  -0.457  -0.456
 -0.452  -0.451  -0.447  -0.445  -0.445  -0.441  -0.440  -0.437
 -0.436  -0.436  -0.428  -0.420  -0.420  -0.414  -0.405  -0.403
 -0.403  -0.401  -0.401  -0.395  -0.394  -0.393  -0.392  -0.383
 -0.371  -0.370  -0.368  -0.366  -0.365  -0.355  -0.338  -0.335
 -0.329  -0.320  -0.303  -0.301  -0.301  -0.298  -0.269  -0.260
 -0.260  -0.253  -0.249  -0.243  -0.231

          Ground-State Mulliken Net Atomic Charges

     Atom                 Charge (a.u.)    Spin (a.u.)
  --------------------------------------------------------
      1 C                    -0.145145       0.050402
      2 C                    -0.142965       0.055163
      3 B                     0.613306       0.239819
      4 C                    -0.143387       0.057749
      5 C                    -0.144424       0.047741
      6 B                     0.617815       0.236898
      7 C                    -0.377906       0.114719
      8 C                     0.108802       0.033117
      9 C                     0.086558       0.027704
     10 C                    -0.371381       0.114692
     11 C                    -0.380039       0.114854
     12 C                     0.111084       0.030724
     13 C                     0.083479       0.029510
     14 C                    -0.367954       0.115008
     15 H                     0.238896      -0.007341
     16 C                    -0.220379      -0.020228
     17 C                    -0.213852      -0.020023
     18 C                     0.050428       0.002204
     19 C                    -0.344981      -0.000626
     20 C                     0.129283       0.000529
     21 C                    -0.337760      -0.000671
     22 C                     0.057665       0.002589
     23 C                    -0.746772       0.001829
     24 C                    -0.747734       0.001738
     25 H                     0.191566       0.000306
     26 C                    -0.709474      -0.000041
     27 H                     0.191938       0.000312
     28 H                     0.241463      -0.000891
     29 H                     0.226122       0.001180
     30 H                     0.238026      -0.000629
     31 H                     0.239460      -0.000727
     32 H                     0.226447       0.001158
     33 H                     0.241788      -0.000949
     34 H                     0.223875      -0.000002
     35 H                     0.227665       0.000025
     36 H                     0.226497       0.000018
     37 C                     0.056160       0.002324
     38 C                    -0.344732      -0.000591
     39 C                     0.129341       0.000367
     40 C                    -0.340153      -0.000615
     41 C                     0.050620       0.002377
     42 C                    -0.747757       0.001816
     43 C                    -0.749241       0.001729
     44 H                     0.191410       0.000301
     45 C                    -0.709444      -0.000029
     46 H                     0.191486       0.000313
     47 H                     0.226245       0.001179
     48 H                     0.241544      -0.000970
     49 H                     0.239122      -0.000711
     50 H                     0.242011      -0.000901
     51 H                     0.226413       0.001265
     52 H                     0.238768      -0.000656
     53 H                     0.223894      -0.000002
     54 H                     0.226076       0.000011
     55 H                     0.227549       0.000015
     56 C                     0.195053      -0.000834
     57 C                     0.197618      -0.002375
     58 C                    -0.370427       0.148597
     59 C                    -0.197446      -0.088363
     60 C                    -0.337711       0.199919
     61 C                     0.264812      -0.090916
     62 C                    -0.333720       0.200976
     63 C                    -0.199862      -0.090455
     64 H                     0.232176       0.003958
     65 H                     0.225566      -0.011505
     66 C                    -0.070416       0.007858
     67 H                     0.239313      -0.007251
     68 C                    -0.376559       0.145804
     69 H                     0.232005       0.003850
     70 H                     0.227701      -0.009160
     71 H                     0.238696      -0.007326
     72 C                     0.197221      -0.003147
     73 C                    -0.334456       0.199112
     74 C                    -0.199779      -0.089832
     75 C                    -0.369904       0.147117
     76 H                     0.232077       0.003937
     77 H                     0.228066      -0.009174
     78 H                     0.240397      -0.007255
     79 H                     0.228060      -0.009277
     80 C                    -0.069328       0.007474
     81 C                     0.196050      -0.000329
     82 C                    -0.378513       0.144034
     83 C                    -0.196785      -0.087313
     84 C                    -0.337971       0.197245
     85 C                     0.265117      -0.090809
     86 H                     0.231960       0.003808
     87 H                     0.225596      -0.011340
     88 H                     0.227667      -0.009061
     89 H                     0.225328      -0.011574
     90 H                     0.225078      -0.011472
  --------------------------------------------------------
  Sum of atomic charges =    -0.000000

                    Cartesian Multipole Moments
 -----------------------------------------------------------------
    Charge (ESU x 10^10)
                -0.0000
    Dipole Moment (Debye)
         X      -0.3191      Y      -0.1842      Z      -0.7238
       Tot       0.8122
    Quadrupole Moments (Debye-Ang)
        XX    -229.9689     XY     -19.6998     YY    -265.0302
        XZ     -16.6988     YZ       0.2648     ZZ    -300.9742

             Standard Nuclear Orientation (Angstroms)
    I     Atom           X                Y                Z
 ----------------------------------------------------------------
    1      C      -6.2080561498     3.9954817858     1.7510744736
    2      C      -6.7388813126     2.7038882361     2.0048911280
    3      B      -5.8884591600     1.4413290180     1.8299477031
    4      C      -4.4342860334     1.6087611715     1.3772721200
    5      C      -3.8812486030     2.8958715903     1.1459905429
    6      B      -4.7396234773     4.1590886944     1.3288522691
    7      C      -2.5406281477     2.9970449168     0.6879066204
    8      C      -1.7838309025     1.8688037633     0.4508012836
    9      C      -2.3517391421     0.5810617007     0.6745865283
   10      C      -3.6406847456     0.4600977128     1.1338612528
   11      C      -7.0663866859     5.1252691442     1.8388840725
   12      C      -8.3991979358     4.9797356827     2.1600111306
   13      C      -8.9147379553     3.6809459303     2.4388594619
   14      C      -8.1029187712     2.5762576062     2.3641690469
   15      H      -6.6558281981     6.1067156978     1.6244620145
   16      C      -6.5268505279     0.0110974219     2.0359711836
   17      C      -4.1401980833     5.5878320508     1.0399604543
   18      C      -7.1430571930    -0.6475877614     0.9656949789
   19      C      -7.7101640414    -1.9048088927     1.1522527213
   20      C      -7.6872090073    -2.5364858251     2.3868786869
   21      C      -7.0770835972    -1.8759195732     3.4471309152
   22      C      -6.5024235672    -0.6216026077     3.2866547356
   23      C      -5.8603710859     0.0695378475     4.4566266921
   24      C      -7.2051094906     0.0045113814    -0.3883308710
   25      H      -8.1807639575    -2.4026009228     0.3103008688
   26      C      -8.3076852045    -3.8902504801     2.5806579820
   27      H      -7.0474878666    -2.3522249844     4.4222851872
   28      H      -4.8268082716     0.3462967166     4.2391170906
   29      H      -5.8568460069    -0.5595033179     5.3468837780
   30      H      -6.3849575943     0.9946998001     4.7060241745
   31      H      -7.7869901545     0.9284257500    -0.3582989993
   32      H      -7.6641454398    -0.6494430232    -1.1300831191
   33      H      -6.2119890682     0.2731368766    -0.7534757187
   34      H      -8.6619047992    -4.3071826716     1.6382377422
   35      H      -9.1619820472    -3.8450490765     3.2589498335
   36      H      -7.5972433659    -4.5997142845     3.0078992813
   37      C      -3.5414598364     6.3295402774     2.0625788167
   38      C      -3.0045948900     7.5845578021     1.7914982928
   39      C      -3.0461509036     8.1293167660     0.5157983976
   40      C      -3.6492421949     7.3883971280    -0.4944603947
   41      C      -4.1925435655     6.1340199677    -0.2500273506
   42      C      -4.8327674690     5.3556322835    -1.3666742127
   43      C      -3.4705332537     5.7582212383     3.4517393657
   44      H      -2.5421562329     8.1478531766     2.5955549988
   45      C      -2.4516101040     9.4759827660     0.2207982406
   46      H      -3.6964764186     7.7999276447    -1.4981712358
   47      H      -4.8613875401     5.9283382758    -2.2937909063
   48      H      -5.8577191281     5.0707532838    -1.1202767661
   49      H      -4.2932157493     4.4272910660    -1.5684341205
   50      H      -4.4614007475     5.4969771955     3.8289649952
   51      H      -3.0220841700     6.4584247711     4.1564490250
   52      H      -2.8777169987     4.8409230057     3.4726693397
   53      H      -2.0938877713     9.9641731154     1.1268748145
   54      H      -3.1785985312    10.1415008754    -0.2473755911
   55      H      -1.6043153351     9.3957931560    -0.4630396128
   56      C      -0.4438694260     1.6725390096    -0.0687316527
   57      C     -10.3285175872     3.7970866200     2.7158467676
   58      C     -11.3444616042     2.9069965909     3.0283495809
   59      C       1.7595245752     1.9101564778    -0.9818752231
   60      C       1.9362676543     0.5377673146    -1.0600062752
   61      C       0.9058455260    -0.3315534716    -0.6386349572
   62      C     -12.9469294773     4.7510222851     3.0626280655
   63      C     -12.6427417552     3.4063214946     3.2000862443
   64      H     -13.4376348928     2.7134741957     3.4437571244
   65      H       2.8627750119     0.1364510600    -1.4510186736
   66      C      -0.2463691404     0.2795021878    -0.1511148285
   67      H      -4.0780330784    -0.5201738815     1.2970981086
   68      C       0.5825530353     2.4985318062    -0.4957015152
   69      H       2.5605216870     2.5564549454    -1.3156356938
   70      H       0.4908905627     3.5764338963    -0.4659665210
   71      H      -2.1291475078     3.9840290901     0.5034569704
   72      C      -1.3831003769    -0.4208078868     0.2902802177
   73      C       0.8966845730    -1.7451779818    -0.6705166709
   74      C      -0.2185422222    -2.4449781606    -0.2377197858
   75      C      -1.3694001786    -1.8059488488     0.2444600088
   76      H      -0.2033631571    -3.5264695967    -0.2773207817
   77      H      -2.2213444686    -2.3936231203     0.5625480586
   78      H      -8.5042716055     1.5859488131     2.5564572020
   79      H     -11.1573200134     1.8460385049     3.1346418183
   80      C     -10.6459931028     5.1594543637     2.5851686919
   81      C      -9.5065996384     5.9168239174     2.2485385997
   82      C      -9.6744936169     7.2790256793     2.0582449999
   83      C     -10.9564051552     7.8291899889     2.2113496495
   84      C     -12.0659788632     7.0686031884     2.5434043412
   85      C     -11.9302953332     5.6777271278     2.7407283402
   86      H     -11.0828128245     8.8929838858     2.0592999457
   87      H     -13.0345128163     7.5420890988     2.6448885811
   88      H      -8.8449616769     7.9198479997     1.7894447376
   89      H     -13.9674075285     5.0874888644     3.1972255006
   90      H       1.7585928518    -2.2867363275    -1.0396343181
 ----------------------------------------------------------------
