 Q-Chem 5.1, Q-Chem, Inc., Pleasanton, CA (2018)
 Q-Chem 5.1.1 for Intel X86 EM64T Linux

User input:
--------------------------------------------------------------
$rem
threads 8
jobtype opt
method PBEh-3c
basis def2-mSVP
mem_static      1024
mem_total       8000
sym_ignore      true
unrestricted true
scf_algorithm   diis
scf_max_cycles  250
solvent_method  pcm
geom_opt_tol_energy 25
geom_opt_tol_gradient 75
$end

$pcm
theory  iefpcm
$end

$solvent
dielectric      2.03
$end

$molecule
read uincoords.mol
$end

--------------------------------------------------------------

   61   -1973.6032639922      4.13e-09  Convergence criterion met
 Total energy in the final basis set =    -1973.6032639922
   25   -1973.6107449871      8.38e-09  Convergence criterion met
 Total energy in the final basis set =    -1973.6107449871
   22   -1973.6111444407      9.21e-09  Convergence criterion met
 Total energy in the final basis set =    -1973.6111444407
   21   -1973.6111911331      9.90e-09  Convergence criterion met
 Total energy in the final basis set =    -1973.6111911331
   20   -1973.6111837906      9.92e-09  Convergence criterion met
 Total energy in the final basis set =    -1973.6111837906
   21   -1973.6111834275      8.37e-09  Convergence criterion met
 Total energy in the final basis set =    -1973.6111834275
   21   -1973.6111781557      8.37e-09  Convergence criterion met
 Total energy in the final basis set =    -1973.6111781557
   21   -1973.6111778726      8.37e-09  Convergence criterion met
 Total energy in the final basis set =    -1973.6111778726
   21   -1973.6111772588      8.34e-09  Convergence criterion met
 Total energy in the final basis set =    -1973.6111772588

             Standard Nuclear Orientation (Angstroms)
    I     Atom           X                Y                Z
 ----------------------------------------------------------------
    1      C       0.0217093328     0.0034302835     0.0499289517
    2      C       0.0119133168     0.0123838740     1.4715142573
    3      H       0.9591870117     0.0128976970     2.0013368059
    4      C      -1.1756601669     0.0213321284     2.1724591002
    5      C      -2.4093021530     0.0172623396     1.4581027978
    6      C      -2.4232590887     0.0051010158     0.0845604964
    7      H      -3.3670273956     0.0008693405    -0.4516431601
    8      C      -1.2137869597    -0.0002746551    -0.6536821421
    9      C      -1.4912893206     0.0338706884     3.5907322155
   10      C      -0.7639546471     0.0430739644     4.7696509855
   11      H       0.3183891244     0.0415079182     4.7695405311
   12      C      -2.8977233678     0.0366939474     3.6860623604
   13      C      -3.6161019114     0.0478454205     4.8786650219
   14      C      -3.4943494683     0.0267389940     2.4130509722
   15      C      -4.8774418627     0.0275844414     2.3226166296
   16      H      -5.3845495886     0.0199876546     1.3658670704
   17      C      -1.4621489313     0.0546407041     5.9874225146
   18      H      -0.8930367472     0.0619485240     6.9076358406
   19      C      -2.8466943208     0.0571337919     6.0623875177
   20      H      -3.3331786030     0.0662120721     7.0296559768
   21      C      -5.0255036908     0.0484834136     4.7620956864
   22      H      -5.6444347834     0.0568211320     5.6505843109
   23      C      -5.6221577875     0.0384112671     3.5106553850
   24      H      -6.7025814342     0.0389999419     3.4470821362
   25      B       1.3505603216    -0.0070155794    -0.7217668679
   26      C       1.3111192197     0.0140811985    -2.2574705110
   27      C       2.5196491672     0.0316824782    -3.0044362409
   28      H       3.4651387517     0.0325404172    -2.4718325412
   29      C       2.5001011011     0.0479204298    -4.3827453981
   30      C       1.2493322389     0.0431150430    -5.0667164623
   31      C       0.0695462391     0.0237304910    -4.3655580192
   32      H      -0.8782877092     0.0192445546    -4.8944601240
   33      C       0.0695707893     0.0103333274    -2.9481683384
   34      C       3.5497422829     0.0680865700    -5.3876064898
   35      C       4.9356700310     0.0813460542    -5.3784084438
   36      H       5.4974792115     0.0777015197    -4.4533449447
   37      C       2.9016297064     0.0741162334    -6.6395763939
   38      C       3.5513196234     0.0919699001    -7.8725766632
   39      C       1.5039953629     0.0593980175    -6.4918004496
   40      C       0.7141292210     0.0623571176    -7.6314015521
   41      H      -0.3670959065     0.0512512539    -7.5742174588
   42      C       5.6158724754     0.0996379948    -6.6062660379
   43      H       6.6978201170     0.1099021553    -6.5964914275
   44      C       4.9621904343     0.1050725432    -7.8290884475
   45      H       5.5362786780     0.1194550875    -8.7472292607
   46      C       1.3462027802     0.0800262894    -8.8836250302
   47      H       0.7326420972     0.0821759507    -9.7752512241
   48      C       2.7251413125     0.0947227361    -9.0201221762
   49      H       3.1671154647     0.1080298208   -10.0086957574
   50      B      -1.2617139338    -0.0118877202    -2.1876134965
   51      C       2.7307759479    -0.0624839790     0.0367515464
   52      C       3.3961952004     1.1126352919     0.4115488198
   53      C       4.6117562423     1.0404946060     1.0803694313
   54      H       5.1156215961     1.9586213906     1.3669426854
   55      C       5.1969463607    -0.1827954360     1.3923653849
   56      C       4.5334939424    -1.3418287935     1.0134595618
   57      H       4.9741889657    -2.3062011333     1.2456463010
   58      C       3.3147285626    -1.2961809591     0.3420063121
   59      C       6.5103483027    -0.2394387217     2.1185010564
   60      H       6.8265233199    -1.2674154025     2.2937474593
   61      H       7.3014621224     0.2562056621     1.5529712542
   62      H       6.4514311663     0.2569897962     3.0886519067
   63      C       2.6254796624    -2.5716196779    -0.0594876118
   64      H       3.1879091379    -3.4515434587     0.2533984146
   65      H       2.4940846496    -2.6302745302    -1.1422927638
   66      H       1.6274729714    -2.6430334851     0.3786176980
   67      C       2.7864260404     2.4467651250     0.0821778483
   68      H       3.4040217110     3.2733228690     0.4338250112
   69      H       2.6511160793     2.5670199455    -0.9951352541
   70      H       1.7969911902     2.5557841032     0.5320705571
   71      C      -2.6358779321    -0.0555476389    -2.9704813662
   72      C      -3.2837355663     1.1239243386    -3.3562439632
   73      C      -4.4802552931     1.0667933021    -4.0664590337
   74      H      -4.9668335390     1.9919547737    -4.3589404854
   75      C      -5.0637540476    -0.1444784441    -4.4111302038
   76      C      -4.4152717914    -1.3130293568    -4.0269821197
   77      H      -4.8514854559    -2.2724639953    -4.2884588900
   78      C      -3.2209067813    -1.2828711312    -3.3177525068
   79      C      -6.3608796017    -0.2021675578    -5.1660645572
   80      H      -6.6805917530     0.7877118534    -5.4903820957
   81      H      -6.2803614264    -0.8308840930    -6.0543684284
   82      H      -7.1608513551    -0.6198044793    -4.5514030092
   83      C      -2.6819829588     2.4575506534    -3.0123041570
   84      H      -3.3104543508     3.2827030161    -3.3478968071
   85      H      -2.5381765650     2.5654658459    -1.9352706789
   86      H      -1.6989182975     2.5814700003    -3.4720006386
   87      C      -2.5497045098    -2.5711167162    -2.9298392768
   88      H      -3.1286845630    -3.4390307641    -3.2462698014
   89      H      -2.4111618498    -2.6406195489    -1.8489882899
   90      H      -1.5570401816    -2.6544040867    -3.3778586861
 ----------------------------------------------------------------

   21   -1973.6111773942      8.65e-09  Convergence criterion met
 Total energy in the final basis set =    -1973.6111773942
 Final energy is   -1973.61117739417
 **  OPTIMIZATION CONVERGED  **

                    Orbital Energies (a.u.)
 --------------------------------------------------------------

 Alpha MOs
 -- Occupied --
-10.473 -10.473 -10.472 -10.472 -10.471 -10.471 -10.471 -10.470
-10.470 -10.470 -10.470 -10.469 -10.469 -10.469 -10.466 -10.466
-10.465 -10.465 -10.462 -10.461 -10.459 -10.459 -10.455 -10.455
-10.452 -10.452 -10.452 -10.451 -10.440 -10.439 -10.439 -10.438
-10.438 -10.437 -10.424 -10.423 -10.423 -10.423 -10.422 -10.422
-10.422 -10.421 -10.421 -10.421 -10.416 -10.416 -10.416 -10.416
-10.407 -10.405  -6.908  -6.907  -1.020  -1.020  -0.962  -0.960
 -0.946  -0.946  -0.940  -0.940  -0.907  -0.900  -0.864  -0.860
 -0.858  -0.858  -0.857  -0.854  -0.854  -0.854  -0.819  -0.816
 -0.815  -0.801  -0.772  -0.772  -0.750  -0.748  -0.748  -0.747
 -0.735  -0.734  -0.733  -0.722  -0.692  -0.682  -0.679  -0.665
 -0.650  -0.646  -0.633  -0.629  -0.629  -0.629  -0.599  -0.597
 -0.590  -0.588  -0.586  -0.577  -0.576  -0.545  -0.544  -0.540
 -0.531  -0.531  -0.530  -0.529  -0.519  -0.509  -0.504  -0.497
 -0.493  -0.493  -0.492  -0.490  -0.490  -0.487  -0.483  -0.475
 -0.474  -0.473  -0.471  -0.466  -0.465  -0.459  -0.458  -0.457
 -0.455  -0.454  -0.448  -0.447  -0.446  -0.443  -0.442  -0.440
 -0.438  -0.438  -0.432  -0.431  -0.426  -0.422  -0.407  -0.405
 -0.405  -0.403  -0.403  -0.403  -0.403  -0.397  -0.392  -0.385
 -0.376  -0.374  -0.373  -0.369  -0.369  -0.365  -0.354  -0.339
 -0.334  -0.328  -0.323  -0.323  -0.306  -0.304  -0.285  -0.273
 -0.265  -0.264  -0.264  -0.256  -0.254  -0.253  -0.158

 Beta MOs
 -- Occupied --
-10.473 -10.473 -10.471 -10.471 -10.470 -10.470 -10.469 -10.469
-10.468 -10.468 -10.468 -10.468 -10.467 -10.467 -10.467 -10.467
-10.466 -10.466 -10.460 -10.460 -10.458 -10.457 -10.455 -10.455
-10.452 -10.452 -10.451 -10.451 -10.440 -10.439 -10.438 -10.438
-10.438 -10.437 -10.424 -10.423 -10.423 -10.423 -10.422 -10.422
-10.421 -10.420 -10.420 -10.420 -10.416 -10.416 -10.416 -10.415
-10.407 -10.405  -6.906  -6.905  -1.019  -1.018  -0.958  -0.957
 -0.946  -0.946  -0.937  -0.936  -0.904  -0.896  -0.863  -0.860
 -0.858  -0.858  -0.852  -0.852  -0.851  -0.850  -0.816  -0.809
 -0.808  -0.798  -0.772  -0.772  -0.749  -0.748  -0.748  -0.746
 -0.732  -0.730  -0.730  -0.720  -0.690  -0.680  -0.674  -0.662
 -0.648  -0.643  -0.632  -0.629  -0.629  -0.628  -0.596  -0.595
 -0.587  -0.586  -0.584  -0.575  -0.573  -0.544  -0.543  -0.539
 -0.531  -0.530  -0.529  -0.528  -0.517  -0.507  -0.502  -0.495
 -0.492  -0.491  -0.490  -0.485  -0.484  -0.484  -0.482  -0.475
 -0.473  -0.473  -0.471  -0.465  -0.464  -0.458  -0.457  -0.457
 -0.454  -0.453  -0.447  -0.446  -0.446  -0.442  -0.441  -0.438
 -0.437  -0.436  -0.429  -0.421  -0.421  -0.415  -0.406  -0.403
 -0.403  -0.402  -0.401  -0.395  -0.393  -0.393  -0.391  -0.384
 -0.374  -0.372  -0.370  -0.369  -0.367  -0.356  -0.339  -0.337
 -0.330  -0.322  -0.305  -0.301  -0.301  -0.299  -0.270  -0.264
 -0.264  -0.256  -0.252  -0.244  -0.231

          Ground-State Mulliken Net Atomic Charges

     Atom                 Charge (a.u.)    Spin (a.u.)
  --------------------------------------------------------
      1 C                    -0.147101       0.048206
      2 C                    -0.382966       0.107557
      3 H                     0.242666      -0.006933
      4 C                     0.103508       0.031159
      5 C                     0.076756       0.026805
      6 C                    -0.373325       0.109980
      7 H                     0.242798      -0.006990
      8 C                    -0.143101       0.057075
      9 C                     0.191074       0.005114
     10 C                    -0.382156       0.139934
     11 H                     0.241811      -0.008774
     12 C                    -0.069169       0.005191
     13 C                     0.254105      -0.090469
     14 C                     0.189688       0.002599
     15 C                    -0.372540       0.143847
     16 H                     0.241942      -0.008930
     17 C                    -0.208484      -0.084340
     18 H                     0.246591       0.003599
     19 C                    -0.342994       0.199000
     20 H                     0.241598      -0.011296
     21 C                    -0.338411       0.201283
     22 H                     0.241042      -0.011446
     23 C                    -0.211971      -0.087546
     24 H                     0.246855       0.003758
     25 B                     0.608563       0.241774
     26 C                    -0.147329       0.044659
     27 C                    -0.381322       0.109452
     28 H                     0.243866      -0.007035
     29 C                     0.102339       0.032610
     30 C                     0.076344       0.024896
     31 C                    -0.373238       0.108633
     32 H                     0.243931      -0.006900
     33 C                    -0.142311       0.060454
     34 C                     0.192816       0.006540
     35 C                    -0.382330       0.141009
     36 H                     0.242154      -0.008851
     37 C                    -0.069746       0.005082
     38 C                     0.252172      -0.090455
     39 C                     0.190812       0.002187
     40 C                    -0.373734       0.142297
     41 H                     0.241915      -0.008840
     42 C                    -0.208403      -0.084729
     43 H                     0.246729       0.003603
     44 C                    -0.342116       0.201324
     45 H                     0.241909      -0.011419
     46 C                    -0.211656      -0.086568
     47 H                     0.246877       0.003725
     48 C                    -0.337590       0.197817
     49 H                     0.241087      -0.011235
     50 B                     0.601944       0.248121
     51 C                    -0.210254      -0.020310
     52 C                     0.050296       0.002691
     53 C                    -0.350118      -0.000712
     54 H                     0.202593       0.000324
     55 C                     0.120046       0.000614
     56 C                    -0.359387      -0.000678
     57 H                     0.203133       0.000306
     58 C                     0.047031       0.002278
     59 C                    -0.715643      -0.000048
     60 H                     0.229192      -0.000002
     61 H                     0.231172       0.000026
     62 H                     0.231171       0.000026
     63 C                    -0.756670       0.001528
     64 H                     0.232456       0.001289
     65 H                     0.243037      -0.000791
     66 H                     0.243575      -0.000840
     67 C                    -0.754071       0.001800
     68 H                     0.231824       0.001213
     69 H                     0.242230      -0.000792
     70 H                     0.242547      -0.000811
     71 C                    -0.214026      -0.021058
     72 C                     0.048084       0.002620
     73 C                    -0.355549      -0.000636
     74 H                     0.203016       0.000320
     75 C                     0.120040       0.000490
     76 C                    -0.350309      -0.000697
     77 H                     0.203075       0.000315
     78 C                     0.046802       0.002405
     79 C                    -0.715750      -0.000039
     80 H                     0.229036      -0.000002
     81 H                     0.230499       0.000016
     82 H                     0.232651       0.000023
     83 C                    -0.753179       0.001799
     84 H                     0.231985       0.001177
     85 H                     0.242480      -0.000849
     86 H                     0.241844      -0.000749
     87 C                    -0.754159       0.001623
     88 H                     0.232107       0.001203
     89 H                     0.242854      -0.000832
     90 H                     0.242442      -0.000773
  --------------------------------------------------------
  Sum of atomic charges =    -0.000000

                    Cartesian Multipole Moments
 -----------------------------------------------------------------
    Charge (ESU x 10^10)
                -0.0000
    Dipole Moment (Debye)
         X      -0.1025      Y       0.1394      Z      -0.1164
       Tot       0.2086
    Quadrupole Moments (Debye-Ang)
        XX    -252.5884     XY       0.8566     YY    -304.7547
        XZ     -28.2147     YZ      -0.0303     ZZ    -217.8807

 Total job time:  25452.19s(wall), 183750.89s(cpu)
        *  Thank you very much for using Q-Chem.  Have a nice day.  *
