 Q-Chem 5.1, Q-Chem, Inc., Pleasanton, CA (2018)
 Q-Chem 5.1.1 for Intel X86 EM64T Linux

User input:
--------------------------------------------------------------
$rem
threads 8
jobtype opt
method PBEh-3c
basis def2-mSVP
mem_static      1024
mem_total       8000
sym_ignore      true
unrestricted true
scf_algorithm   diis
scf_max_cycles  250
solvent_method  pcm
geom_opt_tol_energy 25
geom_opt_tol_gradient 75
$end

$pcm
theory  iefpcm
$end

$solvent
dielectric      1.0001
$end

$molecule
read uincoords.mol
$end

--------------------------------------------------------------

   64   -1973.5935061194      8.47e-09  Convergence criterion met
 Total energy in the final basis set =    -1973.5935061194
   36   -1973.5994945121      7.23e-09  Convergence criterion met
 Total energy in the final basis set =    -1973.5994945121
   24   -1973.5997029805      8.05e-09  Convergence criterion met
 Total energy in the final basis set =    -1973.5997029805
   22   -1973.6008740527      5.91e-09  Convergence criterion met
 Total energy in the final basis set =    -1973.6008740527
   19   -1973.6009695062      6.85e-09  Convergence criterion met
 Total energy in the final basis set =    -1973.6009695062
   16   -1973.6010172165      6.93e-09  Convergence criterion met
 Total energy in the final basis set =    -1973.6010172165
   17   -1973.6010326236      8.05e-09  Convergence criterion met
 Total energy in the final basis set =    -1973.6010326236
   18   -1973.6010328891      4.66e-09  Convergence criterion met
   15   -1973.6010570590      8.74e-09  Convergence criterion met
 Total energy in the final basis set =    -1973.6010570590
   16   -1973.6010614499      7.01e-09  Convergence criterion met
 Total energy in the final basis set =    -1973.6010614499
   17   -1973.6010630141      5.73e-09  Convergence criterion met
 Total energy in the final basis set =    -1973.6010630141
   12   -1973.6010637503      5.87e-09  Convergence criterion met
 Total energy in the final basis set =    -1973.6010637503
   16   -1973.6010634116      9.36e-09  Convergence criterion met
 Total energy in the final basis set =    -1973.6010634116
   11   -1973.6010645224      9.60e-09  Convergence criterion met
 Total energy in the final basis set =    -1973.6010645224

             Standard Nuclear Orientation (Angstroms)
    I     Atom           X                Y                Z
 ----------------------------------------------------------------
    1      C       0.0205196535     0.0041503522     0.0495248510
    2      C       0.0103847608     0.0105423127     1.4705045970
    3      H       0.9590045194     0.0108517146     1.9981453458
    4      C      -1.1778131958     0.0169709535     2.1714045505
    5      C      -2.4104824637     0.0126062860     1.4567261352
    6      C      -2.4232501447     0.0025745152     0.0826249736
    7      H      -3.3652147995    -0.0026116888    -0.4569832073
    8      C      -1.2136703207     0.0001735211    -0.6543047923
    9      C      -1.4937782818     0.0265072841     3.5887829357
   10      C      -0.7676709080     0.0343928464     4.7680472018
   11      H       0.3145942524     0.0341656104     4.7683749898
   12      C      -2.9001812757     0.0273296221     3.6839825063
   13      C      -3.6190246589     0.0353801790     4.8759428969
   14      C      -3.4955848108     0.0189279561     2.4103683661
   15      C      -4.8783460469     0.0181926035     2.3197583555
   16      H      -5.3848929524     0.0116043626     1.3628017498
   17      C      -1.4661511603     0.0427947559     5.9853358557
   18      H      -0.8974776449     0.0490727078     6.9057916358
   19      C      -2.8499700209     0.0434217666     6.0596121498
   20      H      -3.3367103141     0.0501021616     7.0267346442
   21      C      -5.0280720840     0.0344942513     4.7582075871
   22      H      -5.6477406678     0.0404258014     5.6461495220
   23      C      -5.6236867886     0.0259675293     3.5070475908
   24      H      -6.7040515870     0.0253173757     3.4429043773
   25      B       1.3499551869    -0.0038917663    -0.7213037815
   26      C       1.3108933864     0.0190440797    -2.2569201918
   27      C       2.5196074751     0.0377909918    -3.0023051252
   28      H       3.4632112250     0.0388937042    -2.4661193533
   29      C       2.5014093894     0.0547629332    -4.3811719337
   30      C       1.2516497341     0.0497466390    -5.0656276665
   31      C       0.0711446814     0.0294869572    -4.3646763024
   32      H      -0.8779461252     0.0245154502    -4.8915813591
   33      C       0.0706453644     0.0151988632    -2.9478490956
   34      C       3.5512615520     0.0750035006    -5.3846000547
   35      C       4.9368541223     0.0881583349    -5.3749895696
   36      H       5.4979519873     0.0847236437    -4.4495932461
   37      C       2.9045606990     0.0807496918    -6.6372796493
   38      C       3.5549163034     0.0981263067    -7.8695904891
   39      C       1.5068778420     0.0658742479    -6.4898110860
   40      C       0.7184259009     0.0682020958    -7.6300108680
   41      H      -0.3627467339     0.0567901516    -7.5734084718
   42      C       5.6179131795     0.1060413111    -6.6020119727
   43      H       6.6998327372     0.1162322580    -6.5914828681
   44      C       4.9654971309     0.1111408850    -7.8246246128
   45      H       5.5405314925     0.1251441940    -8.7421194315
   46      C       1.3509999200     0.0854839736    -8.8816158659
   47      H       0.7380144385     0.0871400926    -9.7736049218
   48      C       2.7293017335     0.1003499015    -9.0172579698
   49      H       3.1715511677     0.1133285987   -10.0056854668
   50      B      -1.2611462377    -0.0090828468    -2.1882954558
   51      C       2.7288911829    -0.0593706310     0.0374217458
   52      C       3.3911473867     1.1147144960     0.4147253551
   53      C       4.6056638869     1.0421094850     1.0867059880
   54      H       5.1069013025     1.9597487014     1.3784018441
   55      C       5.1907599296    -0.1797438385     1.3960663179
   56      C       4.5275188998    -1.3395811333     1.0170038053
   57      H       4.9670047593    -2.3036205073     1.2529657613
   58      C       3.3121212280    -1.2942065204     0.3437581076
   59      C       6.5177752062    -0.2436931621     2.0954339884
   60      H       6.6411351690    -1.1808276180     2.6382271527
   61      H       7.3440770171    -0.1706708423     1.3848840293
   62      H       6.6353881295     0.5711663497     2.8101631740
   63      C       2.6201654997    -2.5678676191    -0.0579215014
   64      H       3.1791799138    -3.4493011042     0.2566300011
   65      H       2.4910834466    -2.6270574380    -1.1409228096
   66      H       1.6210822623    -2.6362582548     0.3780644349
   67      C       2.7791318328     2.4485047768     0.0886122822
   68      H       3.3969804953     3.2755338769     0.4385360125
   69      H       2.6400638029     2.5697958634    -0.9880695542
   70      H       1.7912181886     2.5569242419     0.5419170276
   71      C      -2.6341621388    -0.0547643850    -2.9711068919
   72      C      -3.2844427252     1.1250248385    -3.3567009201
   73      C      -4.4780273032     1.0660751085    -4.0671209853
   74      H      -4.9658426501     1.9901755217    -4.3610992476
   75      C      -5.0591350606    -0.1473342356    -4.4121689006
   76      C      -4.4084115367    -1.3130927726    -4.0314254418
   77      H      -4.8409998443    -2.2726774327    -4.2968375866
   78      C      -3.2140239402    -1.2815892293    -3.3204285045
   79      C      -6.3666844030    -0.1984148684    -5.1488230655
   80      H      -6.4841146305     0.6516202006    -5.8212646744
   81      H      -6.4577480133    -1.1069395163    -5.7443700291
   82      H      -7.2116636117    -0.1807708826    -4.4568536927
   83      C      -2.6825469841     2.4578693759    -3.0109282209
   84      H      -3.3093060443     3.2838936769    -3.3473668698
   85      H      -2.5413061297     2.5651090906    -1.9335054350
   86      H      -1.6982826254     2.5814479367    -3.4680041736
   87      C      -2.5388379969    -2.5687853873    -2.9363388928
   88      H      -3.1153358316    -3.4376621633    -3.2544833169
   89      H      -2.3998240478    -2.6410828173    -1.8557893733
   90      H      -1.5462836476    -2.6485811867    -3.3850818206
 ----------------------------------------------------------------

   15   -1973.6010644923      6.50e-09  Convergence criterion met
 Total energy in the final basis set =    -1973.6010644923
 Final energy is   -1973.60106449235
 **  OPTIMIZATION CONVERGED  **

                    Orbital Energies (a.u.)
 --------------------------------------------------------------

 Alpha MOs
 -- Occupied --
-10.473 -10.473 -10.473 -10.472 -10.472 -10.472 -10.471 -10.471
-10.471 -10.470 -10.470 -10.470 -10.470 -10.470 -10.467 -10.467
-10.467 -10.467 -10.461 -10.461 -10.459 -10.459 -10.454 -10.454
-10.451 -10.451 -10.451 -10.451 -10.436 -10.436 -10.435 -10.435
-10.435 -10.434 -10.423 -10.422 -10.420 -10.420 -10.420 -10.419
-10.419 -10.419 -10.419 -10.419 -10.415 -10.414 -10.414 -10.414
-10.404 -10.402  -6.906  -6.906  -1.020  -1.020  -0.962  -0.960
 -0.944  -0.943  -0.941  -0.941  -0.907  -0.899  -0.863  -0.858
 -0.856  -0.856  -0.855  -0.855  -0.855  -0.853  -0.819  -0.816
 -0.815  -0.801  -0.770  -0.770  -0.748  -0.745  -0.745  -0.745
 -0.735  -0.735  -0.733  -0.723  -0.693  -0.683  -0.678  -0.665
 -0.649  -0.646  -0.631  -0.627  -0.627  -0.627  -0.600  -0.599
 -0.591  -0.588  -0.587  -0.578  -0.576  -0.546  -0.543  -0.539
 -0.531  -0.530  -0.529  -0.528  -0.519  -0.510  -0.505  -0.496
 -0.494  -0.493  -0.492  -0.489  -0.489  -0.487  -0.484  -0.475
 -0.473  -0.471  -0.470  -0.467  -0.463  -0.459  -0.457  -0.456
 -0.453  -0.452  -0.447  -0.446  -0.445  -0.441  -0.440  -0.438
 -0.438  -0.436  -0.431  -0.430  -0.426  -0.421  -0.406  -0.405
 -0.405  -0.404  -0.403  -0.402  -0.401  -0.397  -0.392  -0.384
 -0.375  -0.371  -0.371  -0.367  -0.366  -0.363  -0.353  -0.336
 -0.332  -0.327  -0.322  -0.321  -0.306  -0.305  -0.284  -0.273
 -0.264  -0.260  -0.260  -0.253  -0.253  -0.249  -0.156

 Beta MOs
 -- Occupied --
-10.473 -10.472 -10.472 -10.471 -10.470 -10.470 -10.470 -10.470
-10.469 -10.469 -10.469 -10.469 -10.468 -10.468 -10.468 -10.468
-10.468 -10.468 -10.460 -10.459 -10.457 -10.457 -10.454 -10.453
-10.451 -10.451 -10.451 -10.451 -10.436 -10.436 -10.435 -10.435
-10.434 -10.434 -10.423 -10.422 -10.420 -10.419 -10.419 -10.419
-10.419 -10.419 -10.419 -10.418 -10.414 -10.414 -10.414 -10.414
-10.404 -10.402  -6.904  -6.904  -1.018  -1.018  -0.958  -0.956
 -0.943  -0.943  -0.937  -0.937  -0.903  -0.895  -0.861  -0.858
 -0.855  -0.855  -0.853  -0.853  -0.851  -0.850  -0.815  -0.809
 -0.808  -0.798  -0.770  -0.770  -0.747  -0.745  -0.745  -0.744
 -0.733  -0.731  -0.730  -0.720  -0.691  -0.681  -0.674  -0.662
 -0.647  -0.643  -0.630  -0.626  -0.626  -0.626  -0.597  -0.597
 -0.588  -0.587  -0.586  -0.576  -0.573  -0.544  -0.542  -0.537
 -0.531  -0.529  -0.528  -0.528  -0.516  -0.507  -0.503  -0.495
 -0.493  -0.492  -0.490  -0.485  -0.484  -0.483  -0.483  -0.475
 -0.472  -0.470  -0.469  -0.466  -0.462  -0.458  -0.456  -0.456
 -0.452  -0.451  -0.447  -0.445  -0.445  -0.441  -0.440  -0.436
 -0.436  -0.436  -0.428  -0.420  -0.420  -0.414  -0.405  -0.403
 -0.402  -0.401  -0.401  -0.395  -0.393  -0.393  -0.392  -0.382
 -0.371  -0.370  -0.368  -0.366  -0.365  -0.355  -0.338  -0.335
 -0.329  -0.320  -0.304  -0.301  -0.301  -0.298  -0.269  -0.260
 -0.260  -0.253  -0.249  -0.243  -0.231

          Ground-State Mulliken Net Atomic Charges

     Atom                 Charge (a.u.)    Spin (a.u.)
  --------------------------------------------------------
      1 C                    -0.146545       0.048975
      2 C                    -0.380240       0.111596
      3 H                     0.238434      -0.007155
      4 C                     0.110976       0.032947
      5 C                     0.084286       0.028024
      6 C                    -0.370405       0.114696
      7 H                     0.238023      -0.007254
      8 C                    -0.142805       0.056563
      9 C                     0.196997      -0.000658
     10 C                    -0.377929       0.145024
     11 H                     0.227831      -0.009122
     12 C                    -0.070496       0.007767
     13 C                     0.266092      -0.091337
     14 C                     0.195488      -0.002679
     15 C                    -0.367930       0.148712
     16 H                     0.227709      -0.009273
     17 C                    -0.196865      -0.087964
     18 H                     0.231962       0.003835
     19 C                    -0.338859       0.199615
     20 H                     0.225518      -0.011491
     21 C                    -0.333979       0.202163
     22 H                     0.225070      -0.011656
     23 C                    -0.200486      -0.090881
     24 H                     0.232168       0.003979
     25 B                     0.621131       0.234344
     26 C                    -0.146869       0.045015
     27 C                    -0.378605       0.113627
     28 H                     0.239453      -0.007268
     29 C                     0.109925       0.034625
     30 C                     0.083619       0.026049
     31 C                    -0.370603       0.113230
     32 H                     0.239782      -0.007153
     33 C                    -0.141701       0.060591
     34 C                     0.198710       0.000646
     35 C                    -0.378056       0.146335
     36 H                     0.227825      -0.009216
     37 C                    -0.071084       0.007683
     38 C                     0.264276      -0.091401
     39 C                     0.196584      -0.003078
     40 C                    -0.369143       0.147266
     41 H                     0.228140      -0.009185
     42 C                    -0.196805      -0.088439
     43 H                     0.231989       0.003843
     44 C                    -0.338110       0.202066
     45 H                     0.225785      -0.011624
     46 C                    -0.200138      -0.090010
     47 H                     0.232273       0.003950
     48 C                    -0.333173       0.198849
     49 H                     0.224986      -0.011453
     50 B                     0.614299       0.241181
     51 C                    -0.215008      -0.019515
     52 C                     0.055741       0.002649
     53 C                    -0.340709      -0.000709
     54 H                     0.190975       0.000315
     55 C                     0.128306       0.000687
     56 C                    -0.344252      -0.000699
     57 H                     0.191197       0.000303
     58 C                     0.053324       0.002197
     59 C                    -0.706987      -0.000053
     60 H                     0.223570       0.000005
     61 H                     0.229512       0.000040
     62 H                     0.223629       0.000012
     63 C                    -0.750450       0.001585
     64 H                     0.226739       0.001268
     65 H                     0.240754      -0.000778
     66 H                     0.241454      -0.000833
     67 C                    -0.748031       0.001889
     68 H                     0.226246       0.001198
     69 H                     0.239935      -0.000788
     70 H                     0.240047      -0.000789
     71 C                    -0.218654      -0.020318
     72 C                     0.053882       0.002606
     73 C                    -0.339814      -0.000667
     74 H                     0.191187       0.000317
     75 C                     0.128330       0.000531
     76 C                    -0.341701      -0.000664
     77 H                     0.191374       0.000306
     78 C                     0.052601       0.002270
     79 C                    -0.707108      -0.000042
     80 H                     0.223551       0.000007
     81 H                     0.223633       0.000004
     82 H                     0.230095       0.000029
     83 C                    -0.746618       0.001896
     84 H                     0.226210       0.001157
     85 H                     0.240105      -0.000835
     86 H                     0.239438      -0.000749
     87 C                    -0.748250       0.001653
     88 H                     0.226553       0.001193
     89 H                     0.240590      -0.000819
     90 H                     0.240102      -0.000761
  --------------------------------------------------------
  Sum of atomic charges =    -0.000000

                    Cartesian Multipole Moments
 -----------------------------------------------------------------
    Charge (ESU x 10^10)
                -0.0000
    Dipole Moment (Debye)
         X      -0.0854      Y       0.1174      Z      -0.1064
       Tot       0.1800
    Quadrupole Moments (Debye-Ang)
        XX    -258.9461     XY       0.3557     YY    -305.2721
        XZ     -23.1977     YZ      -0.3322     ZZ    -231.3667

 Total job time:  77920.44s(wall), 534451.65s(cpu)
        *  Thank you very much for using Q-Chem.  Have a nice day.  *
