 Q-Chem 5.1, Q-Chem, Inc., Pleasanton, CA (2018)
 Q-Chem 5.1.1 for Intel X86 EM64T Linux

User input:
--------------------------------------------------------------
$rem
threads 8
jobtype opt
method PBEh-3c
basis def2-mSVP
mem_static      1024
mem_total       8000
sym_ignore      true
unrestricted true
scf_algorithm	diis
scf_max_cycles	250
solvent_method  pcm
geom_opt_tol_energy 25
geom_opt_tol_gradient 75
$end

$pcm
theory  iefpcm
$end
$solvent
dielectric      4.33
$end

$molecule
read uincoords.mol
$end
--------------------------------------------------------------

   40   -1973.6115797828      6.84e-09  Convergence criterion met
 Total energy in the final basis set =    -1973.6115797828
   25   -1973.6190837516      9.61e-09  Convergence criterion met
 Total energy in the final basis set =    -1973.6190837516
   23   -1973.6195813937      6.63e-09  Convergence criterion met
 Total energy in the final basis set =    -1973.6195813937
   22   -1973.6196807158      7.76e-09  Convergence criterion met
 Total energy in the final basis set =    -1973.6196807158
   22   -1973.6196856322      8.19e-09  Convergence criterion met
 Total energy in the final basis set =    -1973.6196856322
   22   -1973.6196871768      9.26e-09  Convergence criterion met
 Total energy in the final basis set =    -1973.6196871768
   22   -1973.6196800123      8.03e-09  Convergence criterion met
 Total energy in the final basis set =    -1973.6196800123
   22   -1973.6196788362      7.91e-09  Convergence criterion met
 Total energy in the final basis set =    -1973.6196788362
   22   -1973.6196779677      8.77e-09  Convergence criterion met
 Total energy in the final basis set =    -1973.6196779677

             Standard Nuclear Orientation (Angstroms)
    I     Atom           X                Y                Z
 ----------------------------------------------------------------
    1      C       0.0223294238     0.0043119697     0.0496811239
    2      C       0.0122252575     0.0166391459     1.4717202703
    3      H       0.9581183672     0.0181674638     2.0038605350
    4      C      -1.1751778295     0.0282776905     2.1720749966
    5      C      -2.4094912098     0.0230489777     1.4574761905
    6      C      -2.4238427768     0.0074470675     0.0844294815
    7      H      -3.3688086435     0.0025935446    -0.4495015157
    8      C      -1.2140498921    -0.0001447800    -0.6543102577
    9      C      -1.4909991584     0.0452194695     3.5909676495
   10      C      -0.7629573542     0.0575991747     4.7698147961
   11      H       0.3194260938     0.0554608045     4.7696195253
   12      C      -2.8974882059     0.0492626843     3.6859335666
   13      C      -3.6157816990     0.0645261005     4.8789129778
   14      C      -3.4948167872     0.0359944621     2.4133159933
   15      C      -4.8781908064     0.0375484220     2.3228080250
   16      H      -5.3855714773     0.0275141501     1.3661710027
   17      C      -1.4612061487     0.0733310338     5.9877249001
   18      H      -0.8920621002     0.0831475240     6.9078830807
   19      C      -2.8464536218     0.0769300239     6.0628514118
   20      H      -3.3331436202     0.0892998763     7.0299706632
   21      C      -5.0254133881     0.0657912058     4.7630855999
   22      H      -5.6437901635     0.0772411849     5.6519242219
   23      C      -5.6226601179     0.0523828510     3.5112412917
   24      H      -6.7030908918     0.0535286392     3.4479639210
   25      B       1.3512257831    -0.0085671178    -0.7221178927
   26      C       1.3118894518     0.0147878573    -2.2578770326
   27      C       2.5206165410     0.0354630507    -3.0054179903
   28      H       3.4673397242     0.0369283831    -2.4751715951
   29      C       2.5005563747     0.0545710823    -4.3832205598
   30      C       1.2491480622     0.0490147212    -5.0675112616
   31      C       0.0696196107     0.0262459427    -4.3668447819
   32      H      -0.8769561477     0.0213479491    -4.8978445429
   33      C       0.0694755057     0.0104893547    -2.9490082578
   34      C       3.5505011158     0.0789070184    -5.3887478713
   35      C       4.9367069281     0.0948972678    -5.3791702215
   36      H       5.4986435012     0.0904442504    -4.4541374791
   37      C       2.9018365148     0.0864337338    -6.6404439532
   38      C       3.5516599632     0.1082729034    -7.8736625183
   39      C       1.5041939589     0.0688406010    -6.4932658301
   40      C       0.7138994633     0.0729454773    -7.6329391361
   41      H      -0.3673558949     0.0598349207    -7.5758872738
   42      C       5.6168001023     0.1171610252    -6.6072577350
   43      H       6.6987114917     0.1295270807    -6.5976083078
   44      C       4.9626760738     0.1239908803    -7.8306400194
   45      H       5.5363276370     0.1415362654    -8.7490007818
   46      C       1.3462104801     0.0945512417    -8.8852377596
   47      H       0.7327742699     0.0975842894    -9.7769352668
   48      C       2.7257859344     0.1120637304    -9.0216254276
   49      H       3.1682200026     0.1283942367   -10.0099396532
   50      B      -1.2618303563    -0.0142890044    -2.1883506485
   51      C       2.7315889668    -0.0698342540     0.0369482088
   52      C       3.4012569190     1.1020680291     0.4154850872
   53      C       4.6164809743     1.0243462024     1.0853824034
   54      H       5.1231304141     1.9401561514     1.3746261079
   55      C       5.1976378297    -0.2020035011     1.3950666020
   56      C       4.5302409978    -1.3581444458     1.0123950572
   57      H       4.9674782016    -2.3246810896     1.2424618747
   58      C       3.3117605007    -1.3063321881     0.3397503941
   59      C       6.5103498550    -0.2650850905     2.1222287643
   60      H       6.8225389982    -1.2947062262     2.2949488498
   61      H       7.3032977749     0.2299394894     1.5586961519
   62      H       6.4522480364     0.2298067356     3.0932298151
   63      C       2.6197734533    -2.5794657842    -0.0649923315
   64      H       3.1802561291    -3.4611556784     0.2464076433
   65      H       2.4890677480    -2.6353910371    -1.1480848559
   66      H       1.6213319104    -2.6496419212     0.3724887843
   67      C       2.7974449330     2.4399152958     0.0896562366
   68      H       3.4187692136     3.2625138252     0.4439914798
   69      H       2.6633051216     2.5636556165    -0.9874681471
   70      H       1.8083606180     2.5519171212     0.5397231067
   71      C      -2.6364321856    -0.0629136007    -2.9712756062
   72      C      -3.2879654931     1.1139057153    -3.3600442726
   73      C      -4.4852110826     1.0520861002    -4.0696879931
   74      H      -4.9742389442     1.9753248583    -4.3644181334
   75      C      -5.0661791637    -0.1618991659    -4.4111399176
   76      C      -4.4141668735    -1.3280940506    -4.0240257672
   77      H      -4.8479443610    -2.2894440239    -4.2826784671
   78      C      -3.2190120125    -1.2926800194    -3.3153288762
   79      C      -6.3635434331    -0.2245311095    -5.1655466979
   80      H      -6.6859642148     0.7640859569    -5.4910156120
   81      H      -6.2815135839    -0.8551342163    -6.0523861587
   82      H      -7.1617608367    -0.6440347071    -4.5498329176
   83      C      -2.6906181665     2.4507601291    -3.0203786565
   84      H      -3.3224156876     3.2724899307    -3.3581013157
   85      H      -2.5466507779     2.5622073302    -1.9436562706
   86      H      -1.7083364364     2.5767034716    -3.4813411158
   87      C      -2.5454092218    -2.5790670832    -2.9248034216
   88      H      -3.1227976464    -3.4484726016    -3.2400174511
   89      H      -2.4073002229    -2.6462819906    -1.8436831812
   90      H      -1.5524266060    -2.6612550342    -3.3724819249
 ----------------------------------------------------------------

   22   -1973.6196780486      8.04e-09  Convergence criterion met
 Total energy in the final basis set =    -1973.6196780486
 Final energy is   -1973.61967804857
 **  OPTIMIZATION CONVERGED  **

                    Orbital Energies (a.u.)
 --------------------------------------------------------------

 Alpha MOs
 -- Occupied --
-10.475 -10.475 -10.472 -10.472 -10.472 -10.472 -10.472 -10.472
-10.471 -10.470 -10.470 -10.470 -10.470 -10.470 -10.466 -10.466
-10.465 -10.465 -10.464 -10.463 -10.461 -10.461 -10.458 -10.458
-10.455 -10.455 -10.453 -10.453 -10.443 -10.443 -10.442 -10.442
-10.442 -10.441 -10.426 -10.426 -10.426 -10.425 -10.425 -10.424
-10.424 -10.424 -10.424 -10.424 -10.419 -10.419 -10.419 -10.418
-10.410 -10.409  -6.910  -6.910  -1.022  -1.022  -0.963  -0.961
 -0.950  -0.949  -0.941  -0.941  -0.909  -0.901  -0.867  -0.863
 -0.862  -0.861  -0.858  -0.856  -0.855  -0.854  -0.821  -0.817
 -0.816  -0.803  -0.774  -0.774  -0.753  -0.751  -0.751  -0.749
 -0.737  -0.734  -0.734  -0.723  -0.693  -0.683  -0.681  -0.666
 -0.651  -0.647  -0.635  -0.632  -0.632  -0.631  -0.599  -0.597
 -0.591  -0.590  -0.586  -0.578  -0.577  -0.547  -0.546  -0.542
 -0.534  -0.534  -0.530  -0.529  -0.521  -0.510  -0.505  -0.498
 -0.494  -0.494  -0.493  -0.492  -0.492  -0.487  -0.483  -0.476
 -0.476  -0.475  -0.473  -0.467  -0.466  -0.460  -0.460  -0.459
 -0.458  -0.457  -0.450  -0.449  -0.447  -0.445  -0.444  -0.442
 -0.440  -0.439  -0.434  -0.432  -0.428  -0.424  -0.409  -0.406
 -0.406  -0.406  -0.405  -0.404  -0.403  -0.398  -0.393  -0.387
 -0.379  -0.377  -0.376  -0.372  -0.371  -0.368  -0.356  -0.342
 -0.336  -0.330  -0.326  -0.325  -0.307  -0.305  -0.288  -0.275
 -0.268  -0.268  -0.266  -0.259  -0.257  -0.256  -0.161

 Beta MOs
 -- Occupied --
-10.475 -10.475 -10.472 -10.472 -10.472 -10.472 -10.469 -10.469
-10.469 -10.469 -10.469 -10.468 -10.468 -10.468 -10.467 -10.467
-10.466 -10.466 -10.462 -10.462 -10.460 -10.459 -10.457 -10.457
-10.455 -10.454 -10.453 -10.453 -10.443 -10.443 -10.442 -10.442
-10.442 -10.441 -10.426 -10.426 -10.426 -10.425 -10.424 -10.424
-10.424 -10.423 -10.423 -10.423 -10.419 -10.419 -10.419 -10.418
-10.411 -10.409  -6.908  -6.908  -1.020  -1.020  -0.960  -0.958
 -0.949  -0.949  -0.937  -0.937  -0.905  -0.898  -0.865  -0.863
 -0.861  -0.861  -0.853  -0.853  -0.852  -0.852  -0.817  -0.811
 -0.809  -0.800  -0.774  -0.774  -0.751  -0.751  -0.751  -0.749
 -0.734  -0.731  -0.731  -0.721  -0.691  -0.681  -0.676  -0.663
 -0.649  -0.645  -0.634  -0.632  -0.632  -0.631  -0.596  -0.595
 -0.588  -0.587  -0.585  -0.576  -0.574  -0.546  -0.544  -0.541
 -0.533  -0.533  -0.530  -0.529  -0.518  -0.508  -0.503  -0.497
 -0.493  -0.493  -0.492  -0.486  -0.486  -0.486  -0.482  -0.476
 -0.475  -0.475  -0.473  -0.466  -0.465  -0.460  -0.459  -0.458
 -0.457  -0.456  -0.449  -0.449  -0.446  -0.444  -0.444  -0.440
 -0.439  -0.437  -0.431  -0.423  -0.423  -0.417  -0.408  -0.405
 -0.405  -0.403  -0.402  -0.396  -0.394  -0.394  -0.392  -0.386
 -0.377  -0.375  -0.373  -0.371  -0.370  -0.358  -0.341  -0.340
 -0.333  -0.325  -0.307  -0.302  -0.302  -0.301  -0.273  -0.268
 -0.268  -0.259  -0.256  -0.247  -0.233

          Ground-State Mulliken Net Atomic Charges

     Atom                 Charge (a.u.)    Spin (a.u.)
  --------------------------------------------------------
      1 C                    -0.147609       0.047524
      2 C                    -0.384835       0.103632
      3 H                     0.246012      -0.006717
      4 C                     0.096429       0.029532
      5 C                     0.069932       0.025767
      6 C                    -0.375390       0.105256
      7 H                     0.246396      -0.006729
      8 C                    -0.143613       0.057371
      9 C                     0.185756       0.011007
     10 C                    -0.384834       0.134791
     11 H                     0.252751      -0.008449
     12 C                    -0.068469       0.002614
     13 C                     0.243223      -0.089633
     14 C                     0.184461       0.007923
     15 C                    -0.375555       0.138897
     16 H                     0.252768      -0.008611
     17 C                    -0.217375      -0.080560
     18 H                     0.258541       0.003366
     19 C                    -0.344907       0.198598
     20 H                     0.255147      -0.011135
     21 C                    -0.340669       0.200475
     22 H                     0.254535      -0.011263
     23 C                    -0.220740      -0.084010
     24 H                     0.258744       0.003539
     25 B                     0.595449       0.247951
     26 C                    -0.147917       0.044424
     27 C                    -0.383085       0.105182
     28 H                     0.247002      -0.006801
     29 C                     0.095326       0.030834
     30 C                     0.069547       0.024054
     31 C                    -0.375155       0.104010
     32 H                     0.247214      -0.006648
     33 C                    -0.142878       0.060280
     34 C                     0.187566       0.012454
     35 C                    -0.385034       0.135687
     36 H                     0.253017      -0.008515
     37 C                    -0.069059       0.002488
     38 C                     0.241244      -0.089594
     39 C                     0.185574       0.007540
     40 C                    -0.376738       0.137422
     41 H                     0.252599      -0.008528
     42 C                    -0.217254      -0.080853
     43 H                     0.258677       0.003365
     44 C                    -0.344008       0.200737
     45 H                     0.255498      -0.011246
     46 C                    -0.220458      -0.083044
     47 H                     0.258767       0.003506
     48 C                    -0.339807       0.197120
     49 H                     0.254622      -0.011060
     50 B                     0.589024       0.253871
     51 C                    -0.206404      -0.021028
     52 C                     0.045339       0.002805
     53 C                    -0.357721      -0.000723
     54 H                     0.212371       0.000331
     55 C                     0.111975       0.000635
     56 C                    -0.368767      -0.000698
     57 H                     0.213477       0.000311
     58 C                     0.041287       0.002383
     59 C                    -0.720049      -0.000049
     60 H                     0.233680      -0.000002
     61 H                     0.234700       0.000027
     62 H                     0.234647       0.000027
     63 C                    -0.760960       0.001454
     64 H                     0.238306       0.001302
     65 H                     0.243589      -0.000797
     66 H                     0.244041      -0.000848
     67 C                    -0.758386       0.001723
     68 H                     0.237647       0.001221
     69 H                     0.242875      -0.000799
     70 H                     0.243188      -0.000818
     71 C                    -0.210287      -0.021750
     72 C                     0.043365       0.002724
     73 C                    -0.364700      -0.000645
     74 H                     0.213349       0.000326
     75 C                     0.112069       0.000508
     76 C                    -0.358271      -0.000715
     77 H                     0.212854       0.000320
     78 C                     0.041176       0.002504
     79 C                    -0.720142      -0.000040
     80 H                     0.233539      -0.000002
     81 H                     0.234148       0.000016
     82 H                     0.235990       0.000024
     83 C                    -0.757603       0.001725
     84 H                     0.237786       0.001183
     85 H                     0.243058      -0.000856
     86 H                     0.242540      -0.000752
     87 C                    -0.758572       0.001552
     88 H                     0.237986       0.001215
     89 H                     0.243406      -0.000837
     90 H                     0.243044      -0.000779
  --------------------------------------------------------
  Sum of atomic charges =    -0.000000

                    Cartesian Multipole Moments
 -----------------------------------------------------------------
    Charge (ESU x 10^10)
                -0.0000
    Dipole Moment (Debye)
         X      -0.1158      Y       0.1987      Z      -0.1285
       Tot       0.2635
    Quadrupole Moments (Debye-Ang)
        XX    -245.6978     XY       0.9769     YY    -304.2588
        XZ     -32.7573     YZ      -0.0958     ZZ    -205.3992

 Total job time:  28840.61s(wall), 201669.52s(cpu)
        *  Thank you very much for using Q-Chem.  Have a nice day.  *
