 Q-Chem 5.1, Q-Chem, Inc., Pleasanton, CA (2018)
 Q-Chem 5.1.1 for Intel X86 EM64T Linux

User input:
--------------------------------------------------------------
$rem
threads 4
jobtype	opt
method PBEh-3c
basis def2-mSVP
mem_static	1024
mem_total	4000
sym_ignore	true
scf_convergence	9
solvent_method	pcm
$end

$molecule
read gsopt.mol
$end

$solvent
dielectric	2.38
$end

$pcm
theory iefpcm
$end
--------------------------------------------------------------

   16   -2285.1764278511      4.87e-10  Convergence criterion met
 Total energy in the final basis set =    -2285.1764278511
   14   -2285.1770693686      7.61e-10  Convergence criterion met
 Total energy in the final basis set =    -2285.1770693686
   14   -2285.1773122334      5.49e-10  Convergence criterion met
 Total energy in the final basis set =    -2285.1773122334
   14   -2285.1774028627      4.71e-10  Convergence criterion met
 Total energy in the final basis set =    -2285.1774028627
   14   -2285.1774319246      4.69e-10  Convergence criterion met
 Total energy in the final basis set =    -2285.1774319246
   14   -2285.1774375136      5.09e-10  Convergence criterion met
 Total energy in the final basis set =    -2285.1774375136
   14   -2285.1774331204      4.26e-10  Convergence criterion met
 Total energy in the final basis set =    -2285.1774331204
   14   -2285.1774342062      4.30e-10  Convergence criterion met
 Total energy in the final basis set =    -2285.1774342062

             Standard Nuclear Orientation (Angstroms)
    I     Atom           X                Y                Z
 ----------------------------------------------------------------
    1      C       0.0146804002    -0.2481283123     0.0682156626
    2      C       0.0054019044    -0.1675116654     1.4474410558
    3      H       0.9619890938    -0.1827427906     1.9521475467
    4      C      -1.1792138039    -0.0706377558     2.2005006022
    5      C      -2.4063691730    -0.0652327191     1.5122478140
    6      C      -2.3872376261    -0.1370834530     0.1096397475
    7      H      -3.3185555081    -0.1195545284    -0.4395105892
    8      C      -1.2231960411    -0.2261360428    -0.6242307687
    9      C      -1.1616824734     0.0284305280     3.6518678024
   10      C      -2.3732458621     0.1228086918     4.3587920273
   11      C      -2.3142448150     0.2330841492     5.7573556396
   12      H      -3.2225099080     0.3141103931     6.3367379779
   13      C      -1.1193263506     0.2451395000     6.4315229645
   14      H      -1.1175459616     0.3324772318     7.5115698825
   15      C       0.0937553607     0.1458702486     5.7398055977
   16      C       0.0462857749     0.0391970073     4.3683005019
   17      H       0.9859321717    -0.0375441869     3.8391537751
   18      C      -3.6422496744     0.1044233290     3.6461662525
   19      C      -4.8740112813     0.1728638210     4.3186906414
   20      H      -4.9057753299     0.2415848995     5.3964571643
   21      C      -6.0689520377     0.1509311154     3.6442671570
   22      H      -6.9963796613     0.2050827866     4.2022646949
   23      C      -6.1021044403     0.0560708283     2.2477143795
   24      C      -4.9002732408    -0.0120876804     1.5801562698
   25      H      -4.9350728801    -0.0900528055     0.5023573983
   26      C      -3.6613475069     0.0110030711     2.2443120723
   27      C      -7.4091108522     0.0294677096     1.5131180549
   28      H      -7.2632039834    -0.0739511481     0.4386780786
   29      H      -8.0333312872    -0.8016742416     1.8452899795
   30      H      -7.9775944564     0.9455082580     1.6833563398
   31      C       1.3973479778     0.1629515567     6.4792116940
   32      H       2.2420422262     0.0220600681     5.8062280208
   33      H       1.4359781204    -0.6259753057     7.2318675710
   34      H       1.5423132509     1.1112982617     6.9995954410
   35      B       1.3483845260    -0.3675266298    -0.7183492944
   36      C       1.3036239284    -0.4312412797    -2.2689093308
   37      C       2.4679199280    -0.5081251859    -3.0083594226
   38      H       3.4035434826    -0.5201406266    -2.4661389662
   39      C       2.4792529283    -0.5741767430    -4.4130806998
   40      C       1.2458465264    -0.5817677279    -5.0899879080
   41      C       0.0668023540    -0.4992006642    -4.3314813625
   42      H      -0.8920458909    -0.4965943717    -4.8314537905
   43      C       0.0630065592    -0.4172622893    -2.9547301982
   44      C       1.2050835606    -0.6776722331    -6.5413953603
   45      C      -0.0139826425    -0.6979802810    -7.2418221285
   46      H      -0.9487755724    -0.6306744177    -6.7029828264
   47      C      -0.0814540852    -0.8008208547    -8.6131496407
   48      C       1.1222576242    -0.8870866474    -9.3226870302
   49      H       1.1052224956    -0.9717190778   -10.4029604028
   50      C       2.3265168365    -0.8647856859    -8.6659881684
   51      H       3.2255280294    -0.9349608347    -9.2607768774
   52      C       2.4050278806    -0.7571681980    -7.2675068328
   53      C       3.7211499134    -0.6331131600    -5.1690399417
   54      C       3.6814023924    -0.7239478176    -6.5715832986
   55      C       4.9005055762    -0.7738038689    -7.2664987991
   56      H       4.9118384423    -0.8401007235    -8.3448240695
   57      C       6.1061069529    -0.7355038093    -6.6131950321
   58      H       7.0245332448    -0.7749266314    -7.1869491089
   59      C       6.1603832195    -0.6425378249    -5.2175399873
   60      C       4.9699853674    -0.5937693276    -4.5276715719
   61      H       5.0190737004    -0.5175539564    -3.4503446361
   62      C      -1.3953236612    -0.8260595440    -9.3357990639
   63      H      -2.2334565563    -0.7001179920    -8.6516920381
   64      H      -1.4524660324    -0.0314442280   -10.0814421402
   65      H      -1.5370754506    -1.7712419304    -9.8629735722
   66      C       7.4798623494    -0.5943843435    -4.5084604998
   67      H       7.3525037598    -0.5275352621    -3.4289464375
   68      H       8.0743635127    -1.4850870863    -4.7184971230
   69      H       8.0684617718     0.2671632765    -4.8281313013
   70      B      -1.2746598727    -0.3072609744    -2.1749827822
   71      C      -2.6430847226    -0.2721201721    -2.9476125296
   72      C      -3.1811674088     0.9436684502    -3.3817572454
   73      C      -4.3807540737     0.9587054244    -4.0873600443
   74      H      -4.7864832611     1.9091820460    -4.4182346888
   75      C      -5.0680074730    -0.2121442648    -4.3775822171
   76      C      -4.5239848446    -1.4157067485    -3.9412246860
   77      H      -5.0451673954    -2.3433426426    -4.1568808390
   78      C      -3.3288161187    -1.4605768577    -3.2355188400
   79      C      -6.3592801505    -0.1925995630    -5.1439125074
   80      H      -6.6800272507     0.8250159582    -5.3639453235
   81      H      -7.1611759435    -0.6790168740    -4.5861000765
   82      H      -6.2652607701    -0.7212431674    -6.0943053750
   83      C      -2.4573818252     2.2293326722    -3.0955037023
   84      H      -3.0143349066     3.0950312954    -3.4529859354
   85      H      -2.2903799826     2.3657577111    -2.0247721717
   86      H      -1.4768236964     2.2489133507    -3.5768634464
   87      C      -2.7639977200    -2.7798193422    -2.7874710438
   88      H      -3.4163476181    -3.6104800830    -3.0558365115
   89      H      -2.6245201039    -2.8083942787    -1.7045363262
   90      H      -1.7881919018    -2.9696663068    -3.2403411749
   91      C       2.7198090976    -0.4485720970     0.0333794093
   92      C       3.2393601564    -1.6933744944     0.4001010774
   93      C       4.4591549127    -1.7613500679     1.0651742992
   94      H       4.8529838819    -2.7318528804     1.3491755648
   95      C       5.1820946113    -0.6163593698     1.3734937707
   96      C       4.6537817516     0.6161618876     1.0024085747
   97      H       5.2028533766     1.5224503899     1.2378009559
   98      C       3.4377351319     0.7135023885     0.3380517311
   99      C       6.5097914931    -0.7026066688     2.0693157476
  100      H       6.6656991799    -1.6846650967     2.5148447485
  101      H       6.5960448971     0.0410143072     2.8622051583
  102      H       7.3322261672    -0.5263705868     1.3728870020
  103      C       2.8835819437     2.0536695572    -0.0586826990
  104      H       3.5416643226     2.8692643383     0.2394537288
  105      H       2.7441799208     2.1217058289    -1.1402732333
  106      H       1.9078656364     2.2336733237     0.3985224500
  107      C       2.4773035370    -2.9485646464     0.0736701349
  108      H       2.9983351394    -3.8404616585     0.4207606582
  109      H       2.3267372430    -3.0558422846    -1.0032146506
  110      H       1.4866855573    -2.9474662188     0.5344465432
 ----------------------------------------------------------------

   14   -2285.1774342955      4.26e-10  Convergence criterion met
 Total energy in the final basis set =    -2285.1774342955
 Final energy is   -2285.17743429552
 **  OPTIMIZATION CONVERGED  **

                    Orbital Energies (a.u.)
 --------------------------------------------------------------

 Alpha MOs
 -- Occupied --
-10.468 -10.468 -10.467 -10.467 -10.464 -10.464 -10.464 -10.464
-10.464 -10.463 -10.463 -10.463 -10.458 -10.458 -10.458 -10.458
-10.452 -10.451 -10.450 -10.450 -10.450 -10.450 -10.450 -10.450
-10.449 -10.449 -10.448 -10.448 -10.448 -10.447 -10.447 -10.447
-10.447 -10.447 -10.446 -10.446 -10.446 -10.446 -10.432 -10.432
-10.432 -10.432 -10.431 -10.431 -10.430 -10.430 -10.430 -10.430
-10.429 -10.429 -10.428 -10.427 -10.424 -10.424 -10.424 -10.424
-10.419 -10.417  -6.947  -6.946  -0.999  -0.999  -0.961  -0.961
 -0.959  -0.956  -0.953  -0.953  -0.904  -0.901  -0.880  -0.877
 -0.875  -0.869  -0.868  -0.867  -0.867  -0.867  -0.849  -0.849
 -0.820  -0.818  -0.818  -0.806  -0.794  -0.794  -0.779  -0.779
 -0.758  -0.757  -0.756  -0.756  -0.753  -0.752  -0.730  -0.716
 -0.711  -0.707  -0.685  -0.679  -0.668  -0.667  -0.663  -0.658
 -0.644  -0.643  -0.639  -0.638  -0.618  -0.611  -0.611  -0.605
 -0.578  -0.569  -0.565  -0.561  -0.552  -0.542  -0.540  -0.540
 -0.538  -0.538  -0.532  -0.527  -0.525  -0.513  -0.511  -0.506
 -0.499  -0.499  -0.492  -0.491  -0.491  -0.486  -0.485  -0.479
 -0.479  -0.478  -0.478  -0.478  -0.475  -0.474  -0.470  -0.469
 -0.468  -0.466  -0.464  -0.464  -0.462  -0.462  -0.459  -0.454
 -0.454  -0.453  -0.451  -0.447  -0.447  -0.445  -0.444  -0.443
 -0.443  -0.436  -0.435  -0.434  -0.423  -0.419  -0.419  -0.413
 -0.412  -0.411  -0.410  -0.409  -0.408  -0.408  -0.408  -0.403
 -0.400  -0.390  -0.380  -0.380  -0.379  -0.378  -0.378  -0.378
 -0.367  -0.352  -0.350  -0.342  -0.335  -0.331  -0.329  -0.327
 -0.321  -0.320  -0.284  -0.277  -0.272  -0.272  -0.267  -0.266
 -0.262  -0.253  -0.252  -0.249

          Ground-State Mulliken Net Atomic Charges

     Atom                 Charge (a.u.)
  ----------------------------------------
      1 C                    -0.115269
      2 C                    -0.429049
      3 H                     0.248851
      4 C                     0.106564
      5 C                     0.103035
      6 C                    -0.429531
      7 H                     0.249182
      8 C                    -0.114467
      9 C                     0.115032
     10 C                     0.076985
     11 C                    -0.319959
     12 H                     0.224034
     13 C                    -0.272435
     14 H                     0.229589
     15 C                     0.132692
     16 C                    -0.399461
     17 H                     0.230826
     18 C                     0.073784
     19 C                    -0.320251
     20 H                     0.223704
     21 C                    -0.272870
     22 H                     0.229716
     23 C                     0.133286
     24 C                    -0.397993
     25 H                     0.230590
     26 C                     0.115755
     27 C                    -0.715567
     28 H                     0.240511
     29 H                     0.239144
     30 H                     0.240078
     31 C                    -0.715516
     32 H                     0.240469
     33 H                     0.238941
     34 H                     0.240192
     35 B                     0.692432
     36 C                    -0.115769
     37 C                    -0.428218
     38 H                     0.249181
     39 C                     0.106984
     40 C                     0.102694
     41 C                    -0.428784
     42 H                     0.250196
     43 C                    -0.113092
     44 C                     0.117264
     45 C                    -0.400147
     46 H                     0.231028
     47 C                     0.133280
     48 C                    -0.272962
     49 H                     0.229587
     50 C                    -0.319354
     51 H                     0.223796
     52 C                     0.073163
     53 C                     0.116645
     54 C                     0.074915
     55 C                    -0.318824
     56 H                     0.224005
     57 C                    -0.272763
     58 H                     0.229660
     59 C                     0.133127
     60 C                    -0.400275
     61 H                     0.230256
     62 C                    -0.715462
     63 H                     0.240436
     64 H                     0.238968
     65 H                     0.240123
     66 C                    -0.715492
     67 H                     0.239973
     68 H                     0.239597
     69 H                     0.239527
     70 B                     0.691083
     71 C                    -0.225922
     72 C                     0.058541
     73 C                    -0.360686
     74 H                     0.211554
     75 C                     0.120538
     76 C                    -0.353089
     77 H                     0.210931
     78 C                     0.057644
     79 C                    -0.716632
     80 H                     0.232799
     81 H                     0.234511
     82 H                     0.235163
     83 C                    -0.766310
     84 H                     0.242583
     85 H                     0.247012
     86 H                     0.246979
     87 C                    -0.764720
     88 H                     0.242343
     89 H                     0.246718
     90 H                     0.246287
     91 C                    -0.222296
     92 C                     0.058125
     93 C                    -0.361916
     94 H                     0.211225
     95 C                     0.120094
     96 C                    -0.355311
     97 H                     0.210468
     98 C                     0.059954
     99 C                    -0.715135
    100 H                     0.232404
    101 H                     0.232563
    102 H                     0.236476
    103 C                    -0.765452
    104 H                     0.242337
    105 H                     0.246569
    106 H                     0.246715
    107 C                    -0.768923
    108 H                     0.243143
    109 H                     0.247828
    110 H                     0.247515
  ----------------------------------------
  Sum of atomic charges =    -0.000000

                    Cartesian Multipole Moments
 -----------------------------------------------------------------
    Charge (ESU x 10^10)
                -0.0000
    Dipole Moment (Debye)
         X      -0.0172      Y       0.0011      Z      -0.0975
       Tot       0.0990
    Quadrupole Moments (Debye-Ang)
        XX    -292.2681     XY      -0.4934     YY    -352.7244
        XZ       0.8201     YZ       4.3326     ZZ    -293.1843

 Total job time:  32577.95s(wall), 120679.61s(cpu)
        *  Thank you very much for using Q-Chem.  Have a nice day.  *
