 Q-Chem 5.1, Q-Chem, Inc., Pleasanton, CA (2018)
 Q-Chem 5.1.1 for Intel X86 EM64T Linux

User input:
--------------------------------------------------------------
$rem
threads 8
jobtype	sp
method PBEh-3c
basis def2-mSVP
mem_static	1024
mem_total	14000
sym_ignore	true
cis_n_roots             6
cis_singlets            true
cis_triplets		false
rpa                     false
state_analysis 		true
make_cube_files		true
cis_moments		true
sym_ignore              true
$end

$plots
att. det. elec. hole and diff. dens for gsopt.out
131 -5.50 11.66
168 -13.43 7.43
120 -8.65 7.39
0 0 0 2
1 2
$end

$molecule
0 1
C         2.4821756750   -1.5733799184    0.4018220808
C         3.4510735910   -1.2677669608   -0.5838865336
B         4.4739966039   -2.3559060912   -1.0194029072
C         4.5136547660   -3.7220379440   -0.2778697200
C         3.5295564017   -4.0327913370    0.6887493264
B         2.4509752679   -2.9803315851    1.0659562818
C         5.4574384897   -4.6856388657   -0.6425159974
C         5.4113408317   -5.9448799606   -0.0744196223
C         4.4059506723   -6.2655080774    0.8643142620
C         3.4832390061   -5.3114625656    1.2497486965
C         1.4859890346   -0.6439391736    0.7061814937
C         1.4479248590    0.5686159230    0.0432257956
C         2.4277078847    0.8865267393   -0.9226018911
C         3.4164198109   -0.0307843566   -1.2334414946
C         7.2494807005   -7.4778267699   -1.1440682848
C         7.7130395519   -8.8148197716   -1.1526169208
C         7.1392799750   -9.7998077053   -0.3841445795
C         6.0448146993   -9.4934100380    0.4591422541
C         5.6264963259   -8.1668322978    0.4625855441
C         6.1991166771   -7.1531617580   -0.3269869326
C         5.3022011628  -10.3853908322    1.2695186745
C         4.2283931011   -9.9255286483    1.9943769615
C         3.8217760224   -8.5702112250    1.9716291104
C         4.5304711851   -7.6852498202    1.2018679939
C         1.9029547530    4.1539177335   -2.8557317610
C         2.5967485090    2.9718328848   -2.5025517916
C         2.0802420194    2.1826578150   -1.5096662962
C         0.8828680905    2.5863434044   -0.8892211040
C         0.1626607285    3.7241099377   -1.2338397806
C         0.7234485423    4.5274298610   -2.2556078137
C         0.4570295405    1.6421248890    0.0623661950
C        -0.7356200541    1.8454069244    0.7039705529
C        -1.4848597137    3.0016823161    0.3835363880
C        -1.0624870535    3.9173775427   -0.5512499021
C         7.4409216461   -1.3556472603   -3.2951459593
C         6.6372949068   -1.5299432574   -2.1692383244
C         5.3885566405   -2.1390790438   -2.2751606732
C         4.9541179850   -2.5823784728   -3.5346000628
C         5.7547281738   -2.4023226557   -4.6487488224
C         6.9992679344   -1.7884768114   -4.5382568650
C         7.1213495912   -1.0628009316   -0.8247746432
C         3.6207395493   -3.2641068244   -3.6740143196
O         7.6979038863   -1.6591195743   -5.6862364154
C         8.9566920540   -1.0448771680   -5.6395485220
C         0.4456766500   -3.4803583918    4.3261692387
C         1.4596265901   -3.1434990358    3.4456527560
C         1.3046830670   -3.3590386274    2.0693544004
C         0.1147153584   -3.9218057541    1.6058928143
C        -0.9030685053   -4.2570558299    2.4967062194
C        -0.7416890008   -4.0359486613    3.8580130902
C         2.7394568770   -2.5460848623    3.9588684149
C        -0.0750449523   -4.1762422226    0.1354934959
O        -1.6731231465   -4.3248999442    4.7916515630
C        -2.9008167558   -4.8551585978    4.3712355162
H         6.1982187360   -4.4525321779   -1.3995290573
H         2.7027316907   -5.5555820821    1.9624155947
H         0.7217944344   -0.8989973321    1.4325050931
H         4.1425699348    0.1833797233   -2.0101022819
H         7.7206436360   -6.7460521247   -1.7880577290
H         8.5420534079   -9.0701418423   -1.7996351361
H         7.5170713372  -10.8137601416   -0.4351902820
H         5.5706766980  -11.4340936229    1.3092279085
H         3.6653117601  -10.6237682272    2.5999696698
H         2.9580945444   -8.2638302609    2.5485613085
H         2.3110874116    4.7754920688   -3.6419052463
H         3.5044402838    2.7067027624   -3.0300296384
H         0.2179238285    5.4303920593   -2.5751918156
H        -1.1214344159    1.1415205195    1.4310662054
H        -2.4295699573    3.1618479841    0.8865553648
H        -1.6766607222    4.7811829641   -0.7743003672
H         8.4051555600   -0.8779767026   -3.1776039825
H         5.4213463795   -2.7368992104   -5.6241350727
H         8.1132905449   -0.6151666842   -0.8798562294
H         7.1751399193   -1.8897358477   -0.1129808933
H         6.4485977956   -0.3169779937   -0.3955359350
H         3.3825468336   -3.4744689951   -4.7161806812
H         2.8109148943   -2.6526596332   -3.2697676147
H         3.6034849119   -4.2140759448   -3.1351092758
H         9.3387673052   -1.0402073310   -6.6583996509
H         9.6640282310   -1.5913406870   -5.0068869929
H         8.9021286338   -0.0103426393   -5.2850234501
H         0.5621809522   -3.3118160509    5.3900419242
H        -1.8145001564   -4.6887838210    2.1027647863
H         3.5926691453   -3.1928344991    3.7418402558
H         2.7120564726   -2.3883823084    5.0363530488
H         2.9429550103   -1.5809850444    3.4895219756
H         0.6617582541   -4.8877037403   -0.2443562632
H         0.0355943116   -3.2596107981   -0.4479306105
H        -1.0624814710   -4.5828614989   -0.0822590405
H        -3.5019424186   -4.9971520900    5.2670400083
H        -3.4375939164   -4.1794575177    3.6969858438
H        -2.7887760078   -5.8237975740    3.8727770789
$end

--------------------------------------------------------------

             Standard Nuclear Orientation (Angstroms)
    I     Atom           X                Y                Z
 ----------------------------------------------------------------
    1      C       2.4821756750    -1.5733799184     0.4018220808
    2      C       3.4510735910    -1.2677669608    -0.5838865336
    3      B       4.4739966039    -2.3559060912    -1.0194029072
    4      C       4.5136547660    -3.7220379440    -0.2778697200
    5      C       3.5295564017    -4.0327913370     0.6887493264
    6      B       2.4509752679    -2.9803315851     1.0659562818
    7      C       5.4574384897    -4.6856388657    -0.6425159974
    8      C       5.4113408317    -5.9448799606    -0.0744196223
    9      C       4.4059506723    -6.2655080774     0.8643142620
   10      C       3.4832390061    -5.3114625656     1.2497486965
   11      C       1.4859890346    -0.6439391736     0.7061814937
   12      C       1.4479248590     0.5686159230     0.0432257956
   13      C       2.4277078847     0.8865267393    -0.9226018911
   14      C       3.4164198109    -0.0307843566    -1.2334414946
   15      C       7.2494807005    -7.4778267699    -1.1440682848
   16      C       7.7130395519    -8.8148197716    -1.1526169208
   17      C       7.1392799750    -9.7998077053    -0.3841445795
   18      C       6.0448146993    -9.4934100380     0.4591422541
   19      C       5.6264963259    -8.1668322978     0.4625855441
   20      C       6.1991166771    -7.1531617580    -0.3269869326
   21      C       5.3022011628   -10.3853908322     1.2695186745
   22      C       4.2283931011    -9.9255286483     1.9943769615
   23      C       3.8217760224    -8.5702112250     1.9716291104
   24      C       4.5304711851    -7.6852498202     1.2018679939
   25      C       1.9029547530     4.1539177335    -2.8557317610
   26      C       2.5967485090     2.9718328848    -2.5025517916
   27      C       2.0802420194     2.1826578150    -1.5096662962
   28      C       0.8828680905     2.5863434044    -0.8892211040
   29      C       0.1626607285     3.7241099377    -1.2338397806
   30      C       0.7234485423     4.5274298610    -2.2556078137
   31      C       0.4570295405     1.6421248890     0.0623661950
   32      C      -0.7356200541     1.8454069244     0.7039705529
   33      C      -1.4848597137     3.0016823161     0.3835363880
   34      C      -1.0624870535     3.9173775427    -0.5512499021
   35      C       7.4409216461    -1.3556472603    -3.2951459593
   36      C       6.6372949068    -1.5299432574    -2.1692383244
   37      C       5.3885566405    -2.1390790438    -2.2751606732
   38      C       4.9541179850    -2.5823784728    -3.5346000628
   39      C       5.7547281738    -2.4023226557    -4.6487488224
   40      C       6.9992679344    -1.7884768114    -4.5382568650
   41      C       7.1213495912    -1.0628009316    -0.8247746432
   42      C       3.6207395493    -3.2641068244    -3.6740143196
   43      O       7.6979038863    -1.6591195743    -5.6862364154
   44      C       8.9566920540    -1.0448771680    -5.6395485220
   45      C       0.4456766500    -3.4803583918     4.3261692387
   46      C       1.4596265901    -3.1434990358     3.4456527560
   47      C       1.3046830670    -3.3590386274     2.0693544004
   48      C       0.1147153584    -3.9218057541     1.6058928143
   49      C      -0.9030685053    -4.2570558299     2.4967062194
   50      C      -0.7416890008    -4.0359486613     3.8580130902
   51      C       2.7394568770    -2.5460848623     3.9588684149
   52      C      -0.0750449523    -4.1762422226     0.1354934959
   53      O      -1.6731231465    -4.3248999442     4.7916515630
   54      C      -2.9008167558    -4.8551585978     4.3712355162
   55      H       6.1982187360    -4.4525321779    -1.3995290573
   56      H       2.7027316907    -5.5555820821     1.9624155947
   57      H       0.7217944344    -0.8989973321     1.4325050931
   58      H       4.1425699348     0.1833797233    -2.0101022819
   59      H       7.7206436360    -6.7460521247    -1.7880577290
   60      H       8.5420534079    -9.0701418423    -1.7996351361
   61      H       7.5170713372   -10.8137601416    -0.4351902820
   62      H       5.5706766980   -11.4340936229     1.3092279085
   63      H       3.6653117601   -10.6237682272     2.5999696698
   64      H       2.9580945444    -8.2638302609     2.5485613085
   65      H       2.3110874116     4.7754920688    -3.6419052463
   66      H       3.5044402838     2.7067027624    -3.0300296384
   67      H       0.2179238285     5.4303920593    -2.5751918156
   68      H      -1.1214344159     1.1415205195     1.4310662054
   69      H      -2.4295699573     3.1618479841     0.8865553648
   70      H      -1.6766607222     4.7811829641    -0.7743003672
   71      H       8.4051555600    -0.8779767026    -3.1776039825
   72      H       5.4213463795    -2.7368992104    -5.6241350727
   73      H       8.1132905449    -0.6151666842    -0.8798562294
   74      H       7.1751399193    -1.8897358477    -0.1129808933
   75      H       6.4485977956    -0.3169779937    -0.3955359350
   76      H       3.3825468336    -3.4744689951    -4.7161806812
   77      H       2.8109148943    -2.6526596332    -3.2697676147
   78      H       3.6034849119    -4.2140759448    -3.1351092758
   79      H       9.3387673052    -1.0402073310    -6.6583996509
   80      H       9.6640282310    -1.5913406870    -5.0068869929
   81      H       8.9021286338    -0.0103426393    -5.2850234501
   82      H       0.5621809522    -3.3118160509     5.3900419242
   83      H      -1.8145001564    -4.6887838210     2.1027647863
   84      H       3.5926691453    -3.1928344991     3.7418402558
   85      H       2.7120564726    -2.3883823084     5.0363530488
   86      H       2.9429550103    -1.5809850444     3.4895219756
   87      H       0.6617582541    -4.8877037403    -0.2443562632
   88      H       0.0355943116    -3.2596107981    -0.4479306105
   89      H      -1.0624814710    -4.5828614989    -0.0822590405
   90      H      -3.5019424186    -4.9971520900     5.2670400083
   91      H      -3.4375939164    -4.1794575177     3.6969858438
   92      H      -2.7887760078    -5.8237975740     3.8727770789
 ----------------------------------------------------------------

   15   -2123.7988060391      6.31e-09  Convergence criterion met
 Total energy in the final basis set =    -2123.7988060391

         TDDFT/TDA Excitation Energies
 ---------------------------------------------------

 Excited state   1: excitation energy (eV) =    2.9233
 Total energy for state  1:                 -2123.69137532 au
    Multiplicity: Singlet
    Trans. Mom.: -0.1587 X   0.2186 Y   0.0324 Z
    Strength   :     0.0053004272
    D(182) --> V(  1) amplitude =  0.9591

 Excited state   2: excitation energy (eV) =    3.0239
 Total energy for state  2:                 -2123.68767976 au
    Multiplicity: Singlet
    Trans. Mom.: -0.1241 X   0.1656 Y   0.0271 Z
    Strength   :     0.0032271439
    D(179) --> V(  1) amplitude = -0.5171
    D(181) --> V(  1) amplitude =  0.8044

 Excited state   3: excitation energy (eV) =    3.0486
 Total energy for state  3:                 -2123.68677387 au
    Multiplicity: Singlet
    Trans. Mom.: -0.0747 X   0.0775 Y   0.0172 Z
    Strength   :     0.0008872406
    D(179) --> V(  1) amplitude =  0.7534
    D(180) --> V(  1) amplitude =  0.2780
    D(181) --> V(  1) amplitude =  0.5338

 Excited state   4: excitation energy (eV) =    3.3402
 Total energy for state  4:                 -2123.67605446 au
    Multiplicity: Singlet
    Trans. Mom.:  1.3802 X  -3.1065 Y   0.4028 Z
    Strength   :     0.9588960015
    D(179) --> V(  1) amplitude = -0.2961
    D(180) --> V(  1) amplitude =  0.8902

 Excited state   5: excitation energy (eV) =    3.6271
 Total energy for state  5:                 -2123.66551341 au
    Multiplicity: Singlet
    Trans. Mom.: -0.1591 X  -0.0640 Y  -0.1014 Z
    Strength   :     0.0035266024
    D(178) --> V(  1) amplitude =  0.9224

 Excited state   6: excitation energy (eV) =    3.7063
 Total energy for state  6:                 -2123.66260041 au
    Multiplicity: Singlet
    Trans. Mom.: -0.5102 X  -0.1681 Y   0.5329 Z
    Strength   :     0.0519915363
    D(175) --> V(  1) amplitude =  0.7149
    D(179) --> V(  2) amplitude = -0.5771

 ---------------------------------------------------

                    Orbital Energies (a.u.)
 --------------------------------------------------------------

 Alpha MOs
 -- Occupied --
-19.522 -19.522 -10.498 -10.498 -10.488 -10.488 -10.462 -10.462
-10.462 -10.462 -10.462 -10.462 -10.460 -10.460 -10.460 -10.460
-10.460 -10.460 -10.459 -10.459 -10.459 -10.458 -10.458 -10.458
-10.458 -10.458 -10.457 -10.457 -10.450 -10.450 -10.450 -10.449
-10.449 -10.449 -10.448 -10.448 -10.444 -10.444 -10.431 -10.431
-10.430 -10.429 -10.429 -10.429 -10.427 -10.426 -10.426 -10.425
-10.424 -10.423 -10.411 -10.411  -6.944  -6.944  -1.180  -1.180
 -1.013  -1.013  -0.960  -0.956  -0.951  -0.950  -0.931  -0.931
 -0.906  -0.898  -0.869  -0.869  -0.858  -0.851  -0.851  -0.847
 -0.845  -0.844  -0.819  -0.811  -0.810  -0.802  -0.789  -0.788
 -0.764  -0.763  -0.754  -0.753  -0.732  -0.726  -0.724  -0.718
 -0.687  -0.680  -0.677  -0.662  -0.659  -0.648  -0.645  -0.644
 -0.641  -0.641  -0.593  -0.590  -0.590  -0.586  -0.582  -0.582
 -0.581  -0.573  -0.572  -0.557  -0.557  -0.541  -0.541  -0.534
 -0.533  -0.533  -0.526  -0.521  -0.510  -0.505  -0.500  -0.494
 -0.493  -0.489  -0.488  -0.487  -0.484  -0.481  -0.481  -0.479
 -0.477  -0.474  -0.471  -0.470  -0.468  -0.466  -0.463  -0.462
 -0.462  -0.455  -0.455  -0.452  -0.442  -0.440  -0.440  -0.439
 -0.431  -0.424  -0.424  -0.420  -0.418  -0.417  -0.417  -0.409
 -0.399  -0.398  -0.396  -0.392  -0.392  -0.392  -0.390  -0.388
 -0.376  -0.373  -0.371  -0.364  -0.360  -0.355  -0.352  -0.348
 -0.337  -0.335  -0.316  -0.310  -0.293  -0.292  -0.277  -0.273
 -0.273  -0.259  -0.253  -0.253  -0.247  -0.244

                    Cartesian Multipole Moments
 -----------------------------------------------------------------
    Charge (ESU x 10^10)
                -0.0000
    Dipole Moment (Debye)
         X      -0.4655      Y      -0.2539      Z      -1.0208
       Tot       1.1503
    Quadrupole Moments (Debye-Ang)
        XX    -267.4364     XY      -1.8259     YY    -267.8097
        XZ     -21.4533     YZ     -10.9874     ZZ    -309.1568

 Total job time:  21473.48s(wall), 31637.36s(cpu)
        *  Thank you very much for using Q-Chem.  Have a nice day.  *
