 Q-Chem 5.1, Q-Chem, Inc., Pleasanton, CA (2018)
 Q-Chem 5.1.1 for Intel X86 EM64T Linux

User input:
--------------------------------------------------------------
$solvent
dielectric      4.33
dielectric_infi 1.83
$end

$rem
threads 8
jobtype	sp
method PBEh-3c
basis def2-mSVP
mem_static	1024
mem_total	14000
sym_ignore	true
cis_n_roots             2
cis_singlets            false
cis_triplets		true
rpa                     false
calc_soc 		true
cis_moments             true
cis_relaxed_density	true
solvent_method		pcm
$end

$pcm
StateSpecific   1
ChargeSeparation Excited
$end

$molecule
read utleopt_eth.mol
$end

--------------------------------------------------------------

   15   -2280.7270800649      5.03e-09  Convergence criterion met
 Total energy in the final basis set =    -2280.7270800649
 Total job time:  6939.32s(wall), 26690.77s(cpu)
        *  Thank you very much for using Q-Chem.  Have a nice day.  *
 Q-Chem 5.1, Q-Chem, Inc., Pleasanton, CA (2018)
 Q-Chem 5.1.1 for Intel X86 EM64T Linux

User input:
--------------------------------------------------------------
$rem
threads 8
jobtype sp
method PBEh-3c
basis def2-mSVP
mem_static      1024
mem_total       14000
sym_ignore      true
cis_n_roots             6
cis_singlets            true
cis_triplets            true
rpa                     false
calc_soc                true
cis_moments             true
cis_relaxed_density     true
solvent_method          pcm
$end

$molecule
read
$end

$pcm
statespecific           Marcus
$end

$solvent
dielectric      4.33
dielectric_infi 1.83
$end

--------------------------------------------------------------

             Standard Nuclear Orientation (Angstroms)
    I     Atom           X                Y                Z
 ----------------------------------------------------------------
    1      C       0.0000000000     0.0000000000     0.0000000000
    2      C       0.0000000000     0.0000000000     1.4078440000
    3      H       0.9438764665     0.0000000000     1.9415018439
    4      C      -1.1870351605     0.0029317844     2.1032631070
    5      C      -2.4203974141     0.0037603772     1.3941984768
    6      C      -2.4399356805    -0.0009603524     0.0178832483
    7      H      -3.3857713794    -0.0068107893    -0.5131696038
    8      C      -1.2368854803     0.0001759259    -0.7083026084
    9      C      -3.5058704939     0.0060629722     2.3706301496
   10      C      -4.8748068134     0.0081829183     2.2937512964
   11      H      -5.3951854837     0.0093265535     1.3436721104
   12      C      -2.8948284611     0.0062813699     3.6394539923
   13      C      -3.5986389156     0.0070644049     4.8393247388
   14      C      -1.4897747584     0.0046255055     3.5366993635
   15      C      -0.7524772066     0.0036056290     4.6918111724
   16      H       0.3303168169     0.0016111779     4.6800253996
   17      C      -5.6159663988     0.0091743428     3.4988434714
   18      H      -6.6968472836     0.0106200050     3.4411216454
   19      C      -5.0120554440     0.0084059469     4.7357737109
   20      H      -5.6210235993     0.0091319240     5.6315653554
   21      C      -2.8131343331     0.0065056372     6.0177382887
   22      H      -3.2919355550     0.0072502349     6.9893045989
   23      C      -1.4395115844     0.0047433126     5.9302215840
   24      H      -0.8563896442     0.0037636022     6.8419057242
   25      B       1.3472246019    -0.0039901594    -0.7559418312
   26      C       1.3401205503     0.0313637743    -2.2938491173
   27      C       2.5446423274     0.0406936666    -2.9918620830
   28      H       3.4808130408     0.0221367219    -2.4457587702
   29      C       2.5535519108     0.0689707823    -4.3726208251
   30      C       3.6037051950     0.0826225966    -5.3372919325
   31      C       4.9912661794     0.0765295026    -5.2896210672
   32      H       5.5268828365     0.0601831347    -4.3495763217
   33      C       5.6963111023     0.0891742614    -6.5021928293
   34      H       6.7781136029     0.0839390694    -6.4711313634
   35      C       5.0682053264     0.1065127773    -7.7376921180
   36      H       5.6631053117     0.1145047050    -8.6425211302
   37      C       3.6551741084     0.1119936639    -7.8218203108
   38      C       2.9723528161     0.1005554834    -6.6064763298
   39      C       2.8521382123     0.1245606273    -8.9898098043
   40      H       3.3204154235     0.1335599472    -9.9662356871
   41      C       1.4673792486     0.1246376950    -8.8941521125
   42      H       0.8843249966     0.1346769430    -9.8060978100
   43      C       0.7941487526     0.1117676788    -7.6672618609
   44      H      -0.2878240558     0.1116802076    -7.6396139952
   45      C       1.5541639922     0.0989059116    -6.4995793837
   46      C       1.2580804876     0.0777834474    -5.1159182582
   47      C       0.0552647646     0.0553806278    -4.4179756753
   48      H      -0.8821113580     0.0515702402    -4.9637367993
   49      C       0.0485639693     0.0312557728    -3.0341701732
   50      B      -1.2814942308    -0.0073811817    -2.2586978656
   51      C       2.7162067309    -0.0709206959     0.0154784175
   52      C       3.4865869856     1.0764196641     0.2282049849
   53      C       4.7026718304     1.0037168711     0.9074404657
   54      H       5.2686029367     1.9153424294     1.0567992518
   55      C       5.1676741154    -0.2171866421     1.3791067041
   56      O       6.3302639449    -0.3861594582     2.0441798397
   57      C       4.4077125520    -1.3647875504     1.1681522957
   58      H       4.7764613058    -2.3165515516     1.5354159317
   59      C       3.1965791540    -1.3006116318     0.4978960723
   60      C       7.1319276717     0.7447689473     2.2884739272
   61      H       8.0079416454     0.3939740391     2.8296513902
   62      H       6.6183073636     1.4904263751     2.9026847465
   63      H       7.4629830182     1.2241161741     1.3623406800
   64      C       2.9940935225     2.4300226778    -0.2174987471
   65      H       3.8471066710     3.0750972245    -0.4430429018
   66      H       2.4304629765     2.3411552000    -1.1498446738
   67      C       2.4405763322    -2.5827808771     0.2507975938
   68      H       2.6275526618    -3.2793633049     1.0717396948
   69      H       1.3636519389    -2.3973698634     0.2542067150
   70      C       2.1154392316     3.1054666017     0.8335057362
   71      H       1.2234855719     2.5144217136     1.0426482097
   72      H       2.6553884552     3.2352117480     1.7721827101
   73      H       1.7883025663     4.0891224014     0.4943748949
   74      C       2.8302606801    -3.2489683725    -1.0679054222
   75      H       2.6113526994    -2.6039735537    -1.9192392448
   76      H       3.8960708048    -3.4792163063    -1.0920431096
   77      H       2.2822751650    -4.1814348708    -1.2100634913
   78      C      -2.6522014175    -0.0749702671    -3.0387268378
   79      C      -3.1349602229    -1.2972220732    -3.5179911608
   80      C      -4.3405282565    -1.3711558513    -4.2153750861
   81      H      -4.6761800715    -2.3403456446    -4.5650146288
   82      C      -5.0886255469    -0.2254642661    -4.4451040299
   83      O      -6.2655340716    -0.1994461394    -5.1061972131
   84      C      -4.6187596771     0.9965543160    -3.9722202029
   85      H      -5.2033537098     1.8920835969    -4.1543409527
   86      C      -3.4204958144     1.0775808599    -3.2801886550
   87      C      -6.7885381727    -1.4127210081    -5.5941148451
   88      H      -7.7300163164    -1.1713208690    -6.0827013893
   89      H      -6.1266362728    -1.8836331425    -6.3270615644
   90      H      -6.9859307494    -2.1298374656    -4.7916874822
   91      C      -2.9356080717     2.4394772083    -2.8555212101
   92      H      -2.3069870490     2.3615520580    -1.9649781635
   93      H      -3.7894867196     3.0584403059    -2.5688504600
   94      C      -2.4088500898    -2.5903187253    -3.2430405948
   95      H      -1.3408469771    -2.4072257034    -3.1036769995
   96      H      -2.4900352710    -3.2485223829    -4.1122742115
   97      C      -2.9617183976    -3.3074065491    -2.0131815948
   98      H      -2.8647974186    -2.6871663374    -1.1215034412
   99      H      -2.4278673003    -4.2408118691    -1.8305463116
  100      H      -4.0190112089    -3.5446490930    -2.1386776060
  101      C      -2.1571001820     3.1415046504    -3.9664235268
  102      H      -1.2696727328     2.5728406041    -4.2454552775
  103      H      -1.8309097938     4.1330280163    -3.6502944516
  104      H      -2.7707288884     3.2582757644    -4.8605521962
 ----------------------------------------------------------------

   15   -2280.7269241369      5.71e-09  Convergence criterion met
 Total energy in the final basis set =    -2280.7269241369

         TDDFT/TDA Excitation Energies
 ---------------------------------------------------

 Excited state   1: excitation energy (eV) =    1.9081
 Total energy for state  1:                 -2280.65680396 au
    Multiplicity: Triplet
    Trans. Mom.:  0.0000 X   0.0000 Y   0.0000 Z
    Strength   :     0.0000000000
    D(197) --> V(  1) amplitude = -0.2314
    D(198) --> V(  1) amplitude =  0.8833

 Excited state   2: excitation energy (eV) =    2.2509
 Total energy for state  2:                 -2280.64420597 au
    Multiplicity: Triplet
    Trans. Mom.:  0.0000 X   0.0000 Y   0.0000 Z
    Strength   :     0.0000000000
    D(194) --> V(  1) amplitude =  0.4734
    D(194) --> V(  2) amplitude =  0.3334
    D(195) --> V(  1) amplitude =  0.6685
    D(195) --> V(  2) amplitude =  0.2942

 Excited state   3: excitation energy (eV) =    2.4871
 Total energy for state  3:                 -2280.63552531 au
    Multiplicity: Triplet
    Trans. Mom.:  0.0000 X   0.0000 Y   0.0000 Z
    Strength   :     0.0000000000
    D(194) --> V(  1) amplitude =  0.5011
    D(194) --> V(  2) amplitude = -0.3310
    D(195) --> V(  1) amplitude = -0.4224
    D(195) --> V(  2) amplitude =  0.4286
    D(196) --> V(  1) amplitude =  0.2328

 Excited state   4: excitation energy (eV) =    2.5570
 Total energy for state  4:                 -2280.63295766 au
    Multiplicity: Triplet
    Trans. Mom.:  0.0000 X   0.0000 Y   0.0000 Z
    Strength   :     0.0000000000
    D(191) --> V(  1) amplitude = -0.6143
    D(191) --> V(  2) amplitude =  0.2139
    D(197) --> V(  1) amplitude =  0.2898
    D(198) --> V(  2) amplitude =  0.4716

 Excited state   5: excitation energy (eV) =    2.6327
 Total energy for state  5:                 -2280.63017498 au
    Multiplicity: Singlet
    Trans. Mom.: -0.2689 X  -0.0020 Y  -0.5567 Z
    Strength   :     0.0246557161
    D(197) --> V(  1) amplitude = -0.2156
    D(198) --> V(  1) amplitude =  0.9386

 Excited state   6: excitation energy (eV) =    2.8026
 Total energy for state  6:                 -2280.62393205 au
    Multiplicity: Triplet
    Trans. Mom.:  0.0000 X   0.0000 Y   0.0000 Z
    Strength   :     0.0000000000
    D(197) --> V(  1) amplitude =  0.8602
    D(198) --> V(  1) amplitude =  0.2738

 Excited state   7: excitation energy (eV) =    2.8560
 Total energy for state  7:                 -2280.62196989 au
    Multiplicity: Singlet
    Trans. Mom.: -0.4343 X  -0.0179 Y  -0.5174 Z
    Strength   :     0.0319527142
    D(197) --> V(  1) amplitude =  0.9406

 Excited state   8: excitation energy (eV) =    2.9153
 Total energy for state  8:                 -2280.61979042 au
    Multiplicity: Triplet
    Trans. Mom.:  0.0000 X   0.0000 Y   0.0000 Z
    Strength   :     0.0000000000
    D(194) --> V(  1) amplitude = -0.2234
    D(196) --> V(  1) amplitude =  0.9200

 Excited state   9: excitation energy (eV) =    2.9449
 Total energy for state  9:                 -2280.61870114 au
    Multiplicity: Singlet
    Trans. Mom.:  0.0690 X   0.0296 Y  -0.0653 Z
    Strength   :     0.0007138076
    D(196) --> V(  1) amplitude =  0.9586

 Excited state  10: excitation energy (eV) =    3.0848
 Total energy for state 10:                 -2280.61355963 au
    Multiplicity: Singlet
    Trans. Mom.:  2.0603 X   0.0380 Y  -3.4802 Z
    Strength   :     1.2363070993
    D(195) --> V(  1) amplitude =  0.9342

 Excited state  11: excitation energy (eV) =    3.3985
 Total energy for state 11:                 -2280.60203304 au
    Multiplicity: Singlet
    Trans. Mom.: -0.7505 X   0.0097 Y  -0.3549 Z
    Strength   :     0.0573883657
    D(191) --> V(  1) amplitude = -0.5702
    D(194) --> V(  1) amplitude =  0.3199
    D(198) --> V(  2) amplitude =  0.6255

 Excited state  12: excitation energy (eV) =    3.4251
 Total energy for state 12:                 -2280.60105314 au
    Multiplicity: Singlet
    Trans. Mom.:  0.0213 X   0.0323 Y   0.5009 Z
    Strength   :     0.0211801095
    D(191) --> V(  1) amplitude =  0.2133
    D(194) --> V(  1) amplitude =  0.8652
    D(195) --> V(  2) amplitude =  0.2338

 ---------------------------------------------------

                    Orbital Energies (a.u.)
 --------------------------------------------------------------

 Alpha MOs
 -- Occupied --
-19.527 -19.527 -10.504 -10.504 -10.483 -10.483 -10.469 -10.468
-10.468 -10.467 -10.467 -10.466 -10.466 -10.465 -10.465 -10.464
-10.464 -10.464 -10.463 -10.463 -10.462 -10.461 -10.461 -10.461
-10.460 -10.460 -10.458 -10.458 -10.454 -10.454 -10.454 -10.454
-10.452 -10.452 -10.452 -10.452 -10.450 -10.449 -10.438 -10.438
-10.437 -10.436 -10.435 -10.434 -10.434 -10.434 -10.434 -10.433
-10.432 -10.432 -10.421 -10.420 -10.420 -10.420 -10.419 -10.419
 -6.948  -6.945  -1.183  -1.182  -1.017  -1.014  -0.962  -0.957
 -0.957  -0.954  -0.934  -0.933  -0.907  -0.898  -0.890  -0.889
 -0.868  -0.864  -0.860  -0.855  -0.850  -0.847  -0.823  -0.821
 -0.817  -0.814  -0.813  -0.802  -0.802  -0.797  -0.774  -0.772
 -0.737  -0.733  -0.728  -0.718  -0.712  -0.711  -0.704  -0.703
 -0.688  -0.683  -0.678  -0.668  -0.656  -0.647  -0.645  -0.639
 -0.631  -0.631  -0.599  -0.592  -0.591  -0.588  -0.584  -0.583
 -0.583  -0.576  -0.575  -0.564  -0.563  -0.543  -0.542  -0.537
 -0.533  -0.533  -0.527  -0.523  -0.516  -0.510  -0.504  -0.503
 -0.502  -0.501  -0.499  -0.498  -0.492  -0.492  -0.487  -0.487
 -0.485  -0.485  -0.483  -0.481  -0.480  -0.479  -0.477  -0.465
 -0.460  -0.459  -0.458  -0.456  -0.455  -0.452  -0.443  -0.439
 -0.436  -0.435  -0.432  -0.430  -0.429  -0.428  -0.424  -0.415
 -0.413  -0.412  -0.409  -0.406  -0.401  -0.401  -0.398  -0.398
 -0.396  -0.394  -0.393  -0.391  -0.391  -0.388  -0.383  -0.381
 -0.375  -0.372  -0.364  -0.364  -0.360  -0.359  -0.356  -0.349
 -0.342  -0.338  -0.325  -0.317  -0.300  -0.296  -0.279  -0.278
 -0.277  -0.264  -0.256  -0.253  -0.252  -0.249

          Ground-State Mulliken Net Atomic Charges

     Atom                 Charge (a.u.)
  ----------------------------------------
      1 C                    -0.151289
      2 C                    -0.398430
      3 H                     0.249820
      4 C                     0.088660
      5 C                     0.081793
      6 C                    -0.395550
      7 H                     0.246715
      8 C                    -0.154838
      9 C                     0.177026
     10 C                    -0.389532
     11 H                     0.249800
     12 C                    -0.067011
     13 C                     0.222817
     14 C                     0.183737
     15 C                    -0.395639
     16 H                     0.249838
     17 C                    -0.231694
     18 H                     0.254737
     19 C                    -0.346422
     20 H                     0.251388
     21 C                    -0.348538
     22 H                     0.251604
     23 C                    -0.230083
     24 H                     0.254550
     25 B                     0.638289
     26 C                    -0.156123
     27 C                    -0.377450
     28 H                     0.250115
     29 C                     0.056725
     30 C                     0.193523
     31 C                    -0.374752
     32 H                     0.252897
     33 C                    -0.230710
     34 H                     0.255829
     35 C                    -0.344729
     36 H                     0.253667
     37 C                     0.223575
     38 C                    -0.089565
     39 C                    -0.342652
     40 H                     0.253619
     41 C                    -0.230326
     42 H                     0.256519
     43 C                    -0.367076
     44 H                     0.253079
     45 C                     0.184085
     46 C                     0.051452
     47 C                    -0.381422
     48 H                     0.248896
     49 C                    -0.148881
     50 B                     0.643766
     51 C                    -0.226159
     52 C                     0.074621
     53 C                    -0.445231
     54 H                     0.252126
     55 C                     0.389717
     56 O                    -0.467963
     57 C                    -0.400716
     58 H                     0.237066
     59 C                     0.068298
     60 C                    -0.426573
     61 H                     0.251653
     62 H                     0.218268
     63 H                     0.218075
     64 C                    -0.550561
     65 H                     0.238867
     66 H                     0.254133
     67 C                    -0.553574
     68 H                     0.241558
     69 H                     0.254261
     70 C                    -0.657404
     71 H                     0.239281
     72 H                     0.220768
     73 H                     0.227013
     74 C                    -0.657892
     75 H                     0.240474
     76 H                     0.221737
     77 H                     0.226105
     78 C                    -0.227100
     79 C                     0.062323
     80 C                    -0.440643
     81 H                     0.252366
     82 C                     0.389526
     83 O                    -0.468455
     84 C                    -0.394078
     85 H                     0.236848
     86 C                     0.067897
     87 C                    -0.426421
     88 H                     0.251712
     89 H                     0.218349
     90 H                     0.218436
     91 C                    -0.550107
     92 H                     0.251411
     93 H                     0.241071
     94 C                    -0.553171
     95 H                     0.257229
     96 H                     0.240119
     97 C                    -0.653752
     98 H                     0.235632
     99 H                     0.226524
    100 H                     0.220645
    101 C                    -0.656202
    102 H                     0.237486
    103 H                     0.226557
    104 H                     0.222038
  ----------------------------------------
  Sum of atomic charges =     0.000000

                    Cartesian Multipole Moments
 -----------------------------------------------------------------
    Charge (ESU x 10^10)
                 0.0000
    Dipole Moment (Debye)
         X       0.7612      Y      -0.0456      Z      -1.2810
       Tot       1.4908
    Quadrupole Moments (Debye-Ang)
        XX    -277.6614     XY      21.8852     YY    -334.3351
        XZ      -6.6941     YZ      12.0223     ZZ    -267.9275

 Total job time:  17960.12s(wall), 54879.39s(cpu)
        *  Thank you very much for using Q-Chem.  Have a nice day.  *
