 Q-Chem 5.1, Q-Chem, Inc., Pleasanton, CA (2018)
 Q-Chem 5.1.1 for Intel X86 EM64T Linux

User input:
--------------------------------------------------------------
$solvent
dielectric      2.38
dielectric_infi 2.25
$end

$rem
threads 8
jobtype	sp
method PBEh-3c
basis def2-mSVP
mem_static	1024
mem_total	14000
sym_ignore	true
cis_n_roots             2
cis_singlets            false
cis_triplets		true
rpa                     false
calc_soc 		true
cis_moments             true
cis_relaxed_density	true
solvent_method		pcm
$end

$pcm
StateSpecific   1
ChargeSeparation Excited
$end

$molecule
read utleopt_tol.mol
$end

--------------------------------------------------------------

   15   -2280.7205706549      5.70e-09  Convergence criterion met
 Total energy in the final basis set =    -2280.7205706549
 Total job time:  5428.13s(wall), 20569.98s(cpu)
        *  Thank you very much for using Q-Chem.  Have a nice day.  *
 Q-Chem 5.1, Q-Chem, Inc., Pleasanton, CA (2018)
 Q-Chem 5.1.1 for Intel X86 EM64T Linux

User input:
--------------------------------------------------------------
$rem
threads 8
jobtype sp
method PBEh-3c
basis def2-mSVP
mem_static      1024
mem_total       14000
sym_ignore      true
cis_n_roots             6
cis_singlets            true
cis_triplets            true
rpa                     false
calc_soc                true
cis_moments             true
cis_relaxed_density     true
solvent_method          pcm
$end

$molecule
read
$end

$pcm
statespecific           Marcus
$end

$solvent
dielectric      2.38
dielectric_infi 2.25
$end

--------------------------------------------------------------

             Standard Nuclear Orientation (Angstroms)
    I     Atom           X                Y                Z
 ----------------------------------------------------------------
    1      C       0.0000000000     0.0000000000     0.0000000000
    2      C       0.0000000000     0.0000000000     1.4075660000
    3      H       0.9444818647     0.0000000000     1.9401964488
    4      C      -1.1870685662     0.0026312848     2.1026146577
    5      C      -2.4200675396     0.0037206551     1.3935304587
    6      C      -2.4395462089    -0.0000500350     0.0174054749
    7      H      -3.3845673747    -0.0052174324    -0.5151494249
    8      C      -1.2365220830     0.0010952976    -0.7083029185
    9      C      -3.5055254514     0.0055843339     2.3698229225
   10      C      -4.8741008735     0.0077344240     2.2928321430
   11      H      -5.3941169418     0.0093103079     1.3426063582
   12      C      -2.8949955352     0.0053204952     3.6386591036
   13      C      -3.5988814729     0.0056154424     4.8381715869
   14      C      -1.4901393278     0.0037269592     3.5358902050
   15      C      -0.7533297643     0.0022013066     4.6908952871
   16      H       0.3294186690     0.0000645703     4.6790805193
   17      C      -5.6154966469     0.0082375275     3.4974176804
   18      H      -6.6963500684     0.0097435480     3.4395770546
   19      C      -5.0119594624     0.0069940214     4.7341015633
   20      H      -5.6213766777     0.0073661524     5.6295637924
   21      C      -1.4402323351     0.0028345912     5.9290274484
   22      H      -0.8573281046     0.0014219393     6.8408217481
   23      C      -2.8134907918     0.0046075678     6.0163007458
   24      H      -3.2921008436     0.0049438490     6.9879447499
   25      B       1.3470531074    -0.0048840481    -0.7558702870
   26      C       1.3403682220     0.0257320145    -2.2939970906
   27      C       2.5443947648     0.0272780642    -2.9914214267
   28      H       3.4795854544     0.0051933484    -2.4436655469
   29      C       2.5537765417     0.0525298866    -4.3727607819
   30      C       3.6033859475     0.0585092566    -5.3368795448
   31      C       4.9911145698     0.0440196510    -5.2891436781
   32      H       5.5263691889     0.0255698029    -4.3489972662
   33      C       5.6961910849     0.0505163459    -6.5009496713
   34      H       6.7779160603     0.0386494926    -6.4697806416
   35      C       5.0685223475     0.0696726037    -7.7366004560
   36      H       5.6640909351     0.0725406274    -8.6409927512
   37      C       3.6559422150     0.0834792044    -7.8215746724
   38      C       2.9726564532     0.0781626452    -6.6063899007
   39      C       2.8534002041     0.0987122128    -8.9894071415
   40      H       3.3217354136     0.1032815979    -9.9658204601
   41      C       1.4688924099     0.1071297344    -8.8941704301
   42      H       0.8861751892     0.1191273717    -9.8062888773
   43      C       0.7955468004     0.1002667131    -7.6677490691
   44      H      -0.2863703127     0.1066804284    -7.6405480744
   45      C       1.5548646284     0.0849460894    -6.4997845656
   46      C       1.2583121847     0.0675841803    -5.1161787291
   47      C       0.0556576250     0.0522340724    -4.4180964715
   48      H      -0.8827864205     0.0523035474    -4.9621362654
   49      C       0.0490777887     0.0292080034    -3.0343766851
   50      B      -1.2811825350    -0.0044452638    -2.2584230732
   51      C       2.7161164816    -0.0669877204     0.0151141801
   52      C       3.4849818117     1.0823229206     0.2208081051
   53      C       4.7012221516     1.0146429662     0.8998078130
   54      H       5.2656276608     1.9280085440     1.0440095172
   55      C       5.1678684000    -0.2027507349     1.3779824609
   56      O       6.3310231071    -0.3671688576     2.0433211049
   57      C       4.4092771599    -1.3520838667     1.1740182387
   58      H       4.7803320547    -2.3005342463     1.5469967421
   59      C       3.1979057871    -1.2932853229     0.5046233178
   60      C       7.1300097717     0.7643051669     2.2819908899
   61      H       8.0065787169     0.4174054462     2.8249825913
   62      H       6.6161324100     1.5129458495     2.8929298386
   63      H       7.4614547131     1.2404349408     1.3539399079
   64      C       2.9900749593     2.4326816507    -0.2319700773
   65      H       2.4298119357     2.3385921799    -1.1658238992
   66      H       3.8420939406     3.0789636860    -0.4583854336
   67      C       2.4424501966    -2.5773564759     0.2661400565
   68      H       1.3652931633    -2.3934713255     0.2735104141
   69      H       2.6333183780    -3.2695234344     1.0899734001
   70      C       2.1065407721     3.1104087875     0.8133799100
   71      H       1.2138570655     2.5198231423     1.0201757031
   72      H       2.6421065908     3.2424258401     1.7541989079
   73      H       1.7802507420     4.0930836326     0.4706250184
   74      C       2.8278377538    -3.2493306368    -1.0507841816
   75      H       2.6009077628    -2.6106490642    -1.9046657694
   76      H       3.8946227336    -3.4741071149    -1.0799276101
   77      H       2.2837853514    -4.1853081927    -1.1846653769
   78      C      -2.6516896941    -0.0637621036    -3.0386973648
   79      C      -3.1392156499    -1.2815253849    -3.5236786502
   80      C      -4.3448985602    -1.3466340057    -4.2213517308
   81      H      -4.6846163774    -2.3127912570    -4.5754352112
   82      C      -5.0880382644    -0.1970543754    -4.4457168139
   83      O      -6.2648023131    -0.1625145003    -5.1068034991
   84      C      -4.6132856090     1.0203766585    -3.9670611786
   85      H      -5.1949143038     1.9183741566    -4.1454481244
   86      C      -3.4152543009     1.0930801467    -3.2746118649
   87      C      -6.7936115592    -1.3696344899    -5.5978071906
   88      H      -7.7343928662    -1.1219514739    -6.0848114669
   89      H      -6.1353974402    -1.8421410922    -6.3335198296
   90      H      -6.9945592958    -2.0893470358    -4.7981617867
   91      C      -2.9246791672     2.4506792385    -2.8429170268
   92      H      -2.3015573848     2.3664767926    -1.9491122772
   93      H      -3.7766940757     3.0731515086    -2.5581416074
   94      C      -2.4189336471    -2.5789346487    -3.2541017184
   95      H      -1.3495490262    -2.4018256702    -3.1179012490
   96      H      -2.5056264597    -3.2342368508    -4.1251133674
   97      C      -2.9713485063    -3.2963511996    -2.0242977297
   98      H      -2.8633578046    -2.6812356921    -1.1305140264
   99      H      -2.4454018080    -4.2355397424    -1.8485298199
  100      H      -4.0316160748    -3.5227980046    -2.1442306135
  101      C      -2.1367249719     3.1522171838    -3.9473617798
  102      H      -1.2493764795     2.5813715550    -4.2218919558
  103      H      -1.8089021608     4.1419718857    -3.6274225760
  104      H      -2.7440147417     3.2726463096    -4.8452592837
 ----------------------------------------------------------------

   15   -2280.7205589984      5.73e-09  Convergence criterion met
 Total energy in the final basis set =    -2280.7205589984

         TDDFT/TDA Excitation Energies
 ---------------------------------------------------

 Excited state   1: excitation energy (eV) =    1.9045
 Total energy for state  1:                 -2280.65056862 au
    Multiplicity: Triplet
    Trans. Mom.:  0.0000 X   0.0000 Y   0.0000 Z
    Strength   :     0.0000000000
    D(197) --> V(  1) amplitude = -0.2690
    D(198) --> V(  1) amplitude =  0.8726

 Excited state   2: excitation energy (eV) =    2.2509
 Total energy for state  2:                 -2280.63784117 au
    Multiplicity: Triplet
    Trans. Mom.:  0.0000 X   0.0000 Y   0.0000 Z
    Strength   :     0.0000000000
    D(194) --> V(  1) amplitude =  0.5165
    D(194) --> V(  2) amplitude =  0.3492
    D(195) --> V(  1) amplitude =  0.6420
    D(195) --> V(  2) amplitude =  0.2723

 Excited state   3: excitation energy (eV) =    2.4860
 Total energy for state  3:                 -2280.62919913 au
    Multiplicity: Triplet
    Trans. Mom.:  0.0000 X   0.0000 Y   0.0000 Z
    Strength   :     0.0000000000
    D(194) --> V(  1) amplitude =  0.4688
    D(194) --> V(  2) amplitude = -0.3073
    D(195) --> V(  1) amplitude = -0.4431
    D(195) --> V(  2) amplitude =  0.4475
    D(196) --> V(  1) amplitude =  0.2295

 Excited state   4: excitation energy (eV) =    2.5478
 Total energy for state  4:                 -2280.62693027 au
    Multiplicity: Triplet
    Trans. Mom.:  0.0000 X   0.0000 Y   0.0000 Z
    Strength   :     0.0000000000
    D(191) --> V(  1) amplitude =  0.6130
    D(191) --> V(  2) amplitude = -0.2157
    D(197) --> V(  1) amplitude = -0.2963
    D(197) --> V(  2) amplitude =  0.2263
    D(198) --> V(  2) amplitude = -0.4648

 Excited state   5: excitation energy (eV) =    2.6268
 Total energy for state  5:                 -2280.62402770 au
    Multiplicity: Singlet
    Trans. Mom.: -0.2912 X  -0.0016 Y  -0.5544 Z
    Strength   :     0.0252400473
    D(197) --> V(  1) amplitude = -0.2537
    D(198) --> V(  1) amplitude =  0.9308

 Excited state   6: excitation energy (eV) =    2.7914
 Total energy for state  6:                 -2280.61797602 au
    Multiplicity: Triplet
    Trans. Mom.:  0.0000 X   0.0000 Y   0.0000 Z
    Strength   :     0.0000000000
    D(197) --> V(  1) amplitude =  0.8458
    D(198) --> V(  1) amplitude =  0.3144

 Excited state   7: excitation energy (eV) =    2.8431
 Total energy for state  7:                 -2280.61607734 au
    Multiplicity: Singlet
    Trans. Mom.: -0.4688 X  -0.0202 Y  -0.5156 Z
    Strength   :     0.0338522885
    D(197) --> V(  1) amplitude =  0.9308
    D(198) --> V(  1) amplitude =  0.2512

 Excited state   8: excitation energy (eV) =    2.9032
 Total energy for state  8:                 -2280.61386983 au
    Multiplicity: Triplet
    Trans. Mom.:  0.0000 X   0.0000 Y   0.0000 Z
    Strength   :     0.0000000000
    D(196) --> V(  1) amplitude =  0.9202

 Excited state   9: excitation energy (eV) =    2.9321
 Total energy for state  9:                 -2280.61280723 au
    Multiplicity: Singlet
    Trans. Mom.:  0.0572 X   0.0263 Y  -0.0370 Z
    Strength   :     0.0003832750
    D(196) --> V(  1) amplitude =  0.9590

 Excited state  10: excitation energy (eV) =    3.0735
 Total energy for state 10:                 -2280.60760833 au
    Multiplicity: Singlet
    Trans. Mom.:  2.1251 X   0.0294 Y  -3.5905 Z
    Strength   :     1.3109058660
    D(195) --> V(  1) amplitude =  0.9294

 Excited state  11: excitation energy (eV) =    3.3842
 Total energy for state 11:                 -2280.59619030 au
    Multiplicity: Singlet
    Trans. Mom.:  0.7724 X  -0.0079 Y   0.4125 Z
    Strength   :     0.0635856567
    D(191) --> V(  1) amplitude =  0.5872
    D(194) --> V(  1) amplitude = -0.2847
    D(198) --> V(  2) amplitude = -0.6273

 Excited state  12: excitation energy (eV) =    3.4128
 Total energy for state 12:                 -2280.59514225 au
    Multiplicity: Singlet
    Trans. Mom.:  0.0311 X   0.0262 Y   0.4430 Z
    Strength   :     0.0165433905
    D(194) --> V(  1) amplitude =  0.8707
    D(195) --> V(  2) amplitude =  0.2476

 ---------------------------------------------------

                    Orbital Energies (a.u.)
 --------------------------------------------------------------

 Alpha MOs
 -- Occupied --
-19.525 -19.525 -10.502 -10.502 -10.484 -10.484 -10.469 -10.468
-10.467 -10.467 -10.466 -10.466 -10.466 -10.464 -10.463 -10.463
-10.463 -10.463 -10.462 -10.462 -10.461 -10.460 -10.460 -10.460
-10.460 -10.460 -10.457 -10.457 -10.453 -10.453 -10.452 -10.452
-10.451 -10.450 -10.450 -10.450 -10.449 -10.447 -10.437 -10.436
-10.434 -10.434 -10.433 -10.433 -10.433 -10.433 -10.432 -10.431
-10.430 -10.429 -10.420 -10.419 -10.419 -10.418 -10.418 -10.417
 -6.946  -6.943  -1.182  -1.181  -1.015  -1.014  -0.961  -0.956
 -0.955  -0.953  -0.934  -0.932  -0.906  -0.897  -0.888  -0.887
 -0.867  -0.863  -0.859  -0.854  -0.850  -0.846  -0.821  -0.820
 -0.815  -0.813  -0.811  -0.801  -0.800  -0.796  -0.773  -0.772
 -0.737  -0.732  -0.727  -0.717  -0.711  -0.710  -0.702  -0.702
 -0.688  -0.682  -0.677  -0.667  -0.655  -0.646  -0.644  -0.639
 -0.630  -0.629  -0.599  -0.591  -0.590  -0.588  -0.583  -0.582
 -0.582  -0.575  -0.574  -0.562  -0.562  -0.542  -0.541  -0.536
 -0.533  -0.533  -0.527  -0.522  -0.515  -0.508  -0.503  -0.502
 -0.501  -0.500  -0.498  -0.497  -0.491  -0.491  -0.486  -0.485
 -0.484  -0.484  -0.482  -0.480  -0.479  -0.479  -0.476  -0.464
 -0.460  -0.458  -0.457  -0.456  -0.454  -0.451  -0.443  -0.438
 -0.435  -0.433  -0.430  -0.429  -0.428  -0.427  -0.423  -0.414
 -0.412  -0.411  -0.408  -0.405  -0.400  -0.400  -0.398  -0.397
 -0.395  -0.394  -0.393  -0.390  -0.390  -0.386  -0.381  -0.380
 -0.374  -0.371  -0.363  -0.362  -0.359  -0.358  -0.354  -0.348
 -0.340  -0.336  -0.324  -0.315  -0.299  -0.295  -0.277  -0.276
 -0.275  -0.263  -0.255  -0.251  -0.250  -0.247

          Ground-State Mulliken Net Atomic Charges

     Atom                 Charge (a.u.)
  ----------------------------------------
      1 C                    -0.151387
      2 C                    -0.397322
      3 H                     0.247182
      4 C                     0.093134
      5 C                     0.086194
      6 C                    -0.394453
      7 H                     0.244100
      8 C                    -0.154246
      9 C                     0.181580
     10 C                    -0.386953
     11 H                     0.242373
     12 C                    -0.066230
     13 C                     0.230948
     14 C                     0.188471
     15 C                    -0.393109
     16 H                     0.242393
     17 C                    -0.224872
     18 H                     0.246931
     19 C                    -0.343522
     20 H                     0.242635
     21 C                    -0.223157
     22 H                     0.246754
     23 C                    -0.345713
     24 H                     0.242864
     25 B                     0.641309
     26 C                    -0.156537
     27 C                    -0.376876
     28 H                     0.247643
     29 C                     0.059125
     30 C                     0.197164
     31 C                    -0.371339
     32 H                     0.245875
     33 C                    -0.223595
     34 H                     0.248542
     35 C                    -0.341739
     36 H                     0.245428
     37 C                     0.231134
     38 C                    -0.090230
     39 C                    -0.339969
     40 H                     0.245206
     41 C                    -0.223766
     42 H                     0.248938
     43 C                    -0.364290
     44 H                     0.245815
     45 C                     0.187665
     46 C                     0.053712
     47 C                    -0.380798
     48 H                     0.245976
     49 C                    -0.149344
     50 B                     0.646913
     51 C                    -0.226850
     52 C                     0.077844
     53 C                    -0.441153
     54 H                     0.243649
     55 C                     0.393204
     56 O                    -0.463933
     57 C                    -0.394705
     58 H                     0.232697
     59 C                     0.072188
     60 C                    -0.421046
     61 H                     0.248250
     62 H                     0.214128
     63 H                     0.213672
     64 C                    -0.550295
     65 H                     0.254191
     66 H                     0.234715
     67 C                    -0.553315
     68 H                     0.255014
     69 H                     0.238558
     70 C                    -0.654057
     71 H                     0.241559
     72 H                     0.218730
     73 H                     0.224436
     74 C                    -0.654650
     75 H                     0.240788
     76 H                     0.220565
     77 H                     0.223549
     78 C                    -0.227785
     79 C                     0.066225
     80 C                    -0.436384
     81 H                     0.243915
     82 C                     0.393066
     83 O                    -0.464454
     84 C                    -0.388344
     85 H                     0.232460
     86 C                     0.071106
     87 C                    -0.420913
     88 H                     0.248300
     89 H                     0.213963
     90 H                     0.214308
     91 C                    -0.550197
     92 H                     0.252298
     93 H                     0.238232
     94 C                    -0.552812
     95 H                     0.257234
     96 H                     0.236141
     97 C                    -0.650123
     98 H                     0.237776
     99 H                     0.223944
    100 H                     0.218163
    101 C                    -0.652941
    102 H                     0.237742
    103 H                     0.224111
    104 H                     0.220681
  ----------------------------------------
  Sum of atomic charges =     0.000000

                    Cartesian Multipole Moments
 -----------------------------------------------------------------
    Charge (ESU x 10^10)
                 0.0000
    Dipole Moment (Debye)
         X       0.6856      Y      -0.0610      Z      -1.1265
       Tot       1.3201
    Quadrupole Moments (Debye-Ang)
        XX    -280.8619     XY      20.3922     YY    -335.3339
        XZ      -5.6420     YZ      11.3984     ZZ    -273.0916

 Total job time:  12123.91s(wall), 41603.92s(cpu)
        *  Thank you very much for using Q-Chem.  Have a nice day.  *
