 Q-Chem 5.1, Q-Chem, Inc., Pleasanton, CA (2018)
 Q-Chem 5.1.1 for Intel X86 EM64T Linux

User input:
--------------------------------------------------------------
$solvent
dielectric      8.93
dielectric_infi 2.03
$end

$rem
threads 8
jobtype	sp
method PBEh-3c
basis def2-mSVP
mem_static	1024
mem_total	14000
sym_ignore	true
cis_n_roots             2
cis_singlets            false
cis_triplets		true
rpa                     false
calc_soc 		true
cis_moments             true
cis_relaxed_density	true
solvent_method		pcm
$end

$pcm
StateSpecific   1
ChargeSeparation Excited
$end

$molecule
read utleopt_dcm.mol
$end

--------------------------------------------------------------

   15   -2280.7314292664      4.30e-09  Convergence criterion met
 Total energy in the final basis set =    -2280.7314292664
 Total job time:  5825.86s(wall), 21928.47s(cpu)
        *  Thank you very much for using Q-Chem.  Have a nice day.  *
 Q-Chem 5.1, Q-Chem, Inc., Pleasanton, CA (2018)
 Q-Chem 5.1.1 for Intel X86 EM64T Linux

User input:
--------------------------------------------------------------
$rem
threads 8
jobtype sp
method PBEh-3c
basis def2-mSVP
mem_static      1024
mem_total       14000
sym_ignore      true
cis_n_roots             6
cis_singlets            true
cis_triplets            true
rpa                     false
calc_soc                true
cis_moments             true
cis_relaxed_density     true
solvent_method          pcm
$end

$molecule
read
$end

$pcm
statespecific           Marcus
$end

$solvent
dielectric      8.93
dielectric_infi 2.03
$end

--------------------------------------------------------------

             Standard Nuclear Orientation (Angstroms)
    I     Atom           X                Y                Z
 ----------------------------------------------------------------
    1      C       0.0000000000     0.0000000000     0.0000000000
    2      C       0.0000000000     0.0000000000     1.4081070000
    3      H       0.9434209978     0.0000000000     1.9425533964
    4      C      -1.1869886625     0.0030623317     2.1038778411
    5      C      -2.4207015543     0.0033349812     1.3948207941
    6      C      -2.4402809977    -0.0020309493     0.0183374964
    7      H      -3.3867957471    -0.0084888973    -0.5114765823
    8      C      -1.2372084590    -0.0005300132    -0.7083059734
    9      C      -3.5061665897     0.0057219485     2.3713912892
   10      C      -4.8754211985     0.0073614621     2.2946933495
   11      H      -5.3961392483     0.0078622112     1.3447642191
   12      C      -2.8946561535     0.0066919336     3.6401955775
   13      C      -3.5983827259     0.0079279204     4.8403945229
   14      C      -1.4894323128     0.0054052706     3.5374450512
   15      C      -0.7517518227     0.0054181705     4.6926806228
   16      H       0.3310741477     0.0039723821     4.6809015960
   17      C      -5.6163379519     0.0086465971     3.5002233173
   18      H      -6.6972350975     0.0096447637     3.4426654830
   19      C      -5.0120692533     0.0087327507     4.7373340963
   20      H      -5.6205761762     0.0097095256     5.6334425056
   21      C      -2.8128022118     0.0083652940     6.0190411330
   22      H      -3.2918256166     0.0095534219     6.9905019355
   23      C      -1.4388783318     0.0070767622     5.9313201157
   24      H      -0.8555890574     0.0069737584     6.8429072239
   25      B       1.3474026721    -0.0035200217    -0.7559578685
   26      C       1.3398366796     0.0370321117    -2.2936716402
   27      C       2.5448700060     0.0539515547    -2.9921889807
   28      H       3.4818285001     0.0387920192    -2.4474128378
   29      C       2.5533609007     0.0853073824    -4.3723167200
   30      C       3.6040349049     0.1064908911    -5.3375090565
   31      C       4.9913338901     0.1090567807    -5.2899302008
   32      H       5.5272794001     0.0953288774    -4.3499849623
   33      C       5.6962966423     0.1275951989    -6.5031853515
   34      H       6.7781218007     0.1292470872    -6.4722372270
   35      C       5.0677956143     0.1425409914    -7.7384935688
   36      H       5.6619872562     0.1554505568    -8.6437371105
   37      C       3.6544427174     0.1394689203    -7.8218298691
   38      C       2.9721322147     0.1222732114    -6.6063425539
   39      C       2.8509351488     0.1488697297    -8.9899143554
   40      H       3.3191360502     0.1619716655    -9.9663359465
   41      C       1.4659940304     0.1406112053    -8.8938697169
   42      H       0.8826613898     0.1482885976    -9.8056603127
   43      C       0.7929702935     0.1222075216    -7.6666080537
   44      H      -0.2889984669     0.1156190144    -7.6384559829
   45      C       1.5535989477     0.1122724301    -6.4991460939
   46      C       1.2579602389     0.0879384094    -5.1155418183
   47      C       0.0549404292     0.0590871258    -4.4177493342
   48      H      -0.8814797926     0.0516989882    -4.9650489627
   49      C       0.0480885817     0.0338931713    -3.0339276169
   50      B      -1.2818125706    -0.0092565763    -2.2589960457
   51      C       2.7163222306    -0.0766876329     0.0154882566
   52      C       3.4899630272     1.0676740345     0.2339147913
   53      C       4.7064997570     0.9885659977     0.9119672111
   54      H       5.2751838909     1.8978056572     1.0654712416
   55      C       5.1687914684    -0.2362112499     1.3769138701
   56      O       6.3313960126    -0.4111840374     2.0402248125
   57      C       4.4056388369    -1.3810490425     1.1604968430
   58      H       4.7713797763    -2.3362856135     1.5220718165
   59      C       3.1940223728    -1.3101543785     0.4910550550
   60      C       7.1375279813     0.7176735490     2.2885665537
   61      H       8.0132757083     0.3618631594     2.8267395185
   62      H       7.4676845429     1.1997226829     1.3638324839
   63      H       6.6263389700     1.4614977370     2.9065662058
   64      C       3.0010605095     2.4249742142    -0.2044278259
   65      H       3.8555771598     3.0680290791    -0.4294417626
   66      H       2.4336963819     2.3419803494    -1.1350665884
   67      C       2.4352882887    -2.5894387859     0.2372351086
   68      H       2.6199597271    -3.2907226359     1.0546286702
   69      H       1.3588275642    -2.4012564763     0.2399783888
   70      C       2.1284340173     3.0987846592     0.8526803463
   71      H       1.2367659878     2.5080731457     1.0644921488
   72      H       2.6733311127     3.2254523202     1.7889339381
   73      H       1.8013399350     4.0838688705     0.5176797264
   74      C       2.8246997568    -3.2501735044    -1.0843582525
   75      H       2.6121220967    -2.5986765688    -1.9324415209
   76      H       3.8891454854    -3.4870232755    -1.1066040142
   77      H       2.2715325861    -4.1785075498    -1.2333307100
   78      C      -2.6527931564    -0.0834776182    -3.0385223889
   79      C      -3.1317584288    -1.3092764866    -3.5132243063
   80      C      -4.3376778813    -1.3904344465    -4.2094924593
   81      H      -4.6699677040    -2.3620125448    -4.5556698323
   82      C      -5.0901595335    -0.2479961156    -4.4426365544
   83      O      -6.2676630064    -0.2289654921    -5.1027115558
   84      C      -4.6241848485     0.9776924021    -3.9744611561
   85      H      -5.2114044082     1.8711683913    -4.1589905739
   86      C      -3.4252571855     1.0655109807    -3.2837119537
   87      C      -6.7856075644    -1.4470459836    -5.5886352238
   88      H      -7.7278822523    -1.2108005918    -6.0780426645
   89      H      -6.1207901530    -1.9160582107    -6.3197875956
   90      H      -6.9795534379    -2.1626871726    -4.7843755373
   91      C      -2.9447585214     2.4308613851    -2.8651013120
   92      H      -3.7998533670     3.0469733968    -2.5760837108
   93      H      -2.3108095184     2.3579881611    -1.9778693931
   94      C      -2.4005508220    -2.5987754103    -3.2347388177
   95      H      -1.3337462274    -2.4105254536    -3.0928075396
   96      H      -2.4771595988    -3.2588958983    -4.1028076789
   97      C      -2.9536019949    -3.3164831316    -2.0052876882
   98      H      -2.8668605065    -2.6922654834    -1.1151607125
   99      H      -2.4126550263    -4.2446800120    -1.8170722253
  100      H      -4.0080263181    -3.5635330548    -2.1359571094
  101      C      -2.1751426198     3.1332461890    -3.9820177759
  102      H      -1.2883770367     2.5659791067    -4.2661729255
  103      H      -1.8495028990     4.1260224959    -3.6692643812
  104      H      -2.7951379375     3.2475014729    -4.8721045000
 ----------------------------------------------------------------

   15   -2280.7312313133      5.60e-09  Convergence criterion met
 Total energy in the final basis set =    -2280.7312313133

         TDDFT/TDA Excitation Energies
 ---------------------------------------------------

 Excited state   1: excitation energy (eV) =    1.9135
 Total energy for state  1:                 -2280.66091128 au
    Multiplicity: Triplet
    Trans. Mom.:  0.0000 X   0.0000 Y   0.0000 Z
    Strength   :     0.0000000000
    D(197) --> V(  1) amplitude = -0.2369
    D(198) --> V(  1) amplitude =  0.8809

 Excited state   2: excitation energy (eV) =    2.2517
 Total energy for state  2:                 -2280.64848258 au
    Multiplicity: Triplet
    Trans. Mom.:  0.0000 X   0.0000 Y   0.0000 Z
    Strength   :     0.0000000000
    D(194) --> V(  1) amplitude =  0.4509
    D(194) --> V(  2) amplitude =  0.3248
    D(195) --> V(  1) amplitude =  0.6794
    D(195) --> V(  2) amplitude =  0.3023

 Excited state   3: excitation energy (eV) =    2.4866
 Total energy for state  3:                 -2280.63984999 au
    Multiplicity: Triplet
    Trans. Mom.:  0.0000 X   0.0000 Y   0.0000 Z
    Strength   :     0.0000000000
    D(194) --> V(  1) amplitude =  0.5182
    D(194) --> V(  2) amplitude = -0.3416
    D(195) --> V(  1) amplitude = -0.4130
    D(195) --> V(  2) amplitude =  0.4187
    D(196) --> V(  1) amplitude =  0.2334

 Excited state   4: excitation energy (eV) =    2.5636
 Total energy for state  4:                 -2280.63701925 au
    Multiplicity: Triplet
    Trans. Mom.:  0.0000 X   0.0000 Y   0.0000 Z
    Strength   :     0.0000000000
    D(191) --> V(  1) amplitude =  0.6201
    D(191) --> V(  2) amplitude = -0.2132
    D(197) --> V(  1) amplitude =  0.2930
    D(198) --> V(  2) amplitude =  0.4659

 Excited state   5: excitation energy (eV) =    2.6348
 Total energy for state  5:                 -2280.63440306 au
    Multiplicity: Singlet
    Trans. Mom.: -0.2586 X  -0.0026 Y  -0.6043 Z
    Strength   :     0.0278947415
    D(197) --> V(  1) amplitude = -0.2196
    D(198) --> V(  1) amplitude =  0.9365

 Excited state   6: excitation energy (eV) =    2.8045
 Total energy for state  6:                 -2280.62816868 au
    Multiplicity: Triplet
    Trans. Mom.:  0.0000 X   0.0000 Y   0.0000 Z
    Strength   :     0.0000000000
    D(197) --> V(  1) amplitude =  0.8583
    D(198) --> V(  1) amplitude =  0.2762

 Excited state   7: excitation energy (eV) =    2.8574
 Total energy for state  7:                 -2280.62622394 au
    Multiplicity: Singlet
    Trans. Mom.: -0.4156 X  -0.0155 Y  -0.5573 Z
    Strength   :     0.0338531088
    D(197) --> V(  1) amplitude =  0.9407
    D(198) --> V(  1) amplitude =  0.2150

 Excited state   8: excitation energy (eV) =    2.9168
 Total energy for state  8:                 -2280.62404174 au
    Multiplicity: Triplet
    Trans. Mom.:  0.0000 X   0.0000 Y   0.0000 Z
    Strength   :     0.0000000000
    D(194) --> V(  1) amplitude = -0.2301
    D(196) --> V(  1) amplitude =  0.9207

 Excited state   9: excitation energy (eV) =    2.9457
 Total energy for state  9:                 -2280.62297891 au
    Multiplicity: Singlet
    Trans. Mom.:  0.0948 X   0.0343 Y  -0.1118 Z
    Strength   :     0.0016344959
    D(196) --> V(  1) amplitude =  0.9590

 Excited state  10: excitation energy (eV) =    3.0713
 Total energy for state 10:                 -2280.61836236 au
    Multiplicity: Singlet
    Trans. Mom.:  2.1003 X   0.0479 Y  -3.5365 Z
    Strength   :     1.2731987293
    D(195) --> V(  1) amplitude =  0.9362

 Excited state  11: excitation energy (eV) =    3.4015
 Total energy for state 11:                 -2280.60622993 au
    Multiplicity: Singlet
    Trans. Mom.: -0.7212 X   0.0249 Y  -0.1206 Z
    Strength   :     0.0446097281
    D(191) --> V(  1) amplitude =  0.4528
    D(194) --> V(  1) amplitude =  0.6231
    D(198) --> V(  2) amplitude =  0.5037

 Excited state  12: excitation energy (eV) =    3.4193
 Total energy for state 12:                 -2280.60557611 au
    Multiplicity: Singlet
    Trans. Mom.:  0.2999 X   0.0317 Y   0.6349 Z
    Strength   :     0.0413886773
    D(191) --> V(  1) amplitude = -0.4164
    D(194) --> V(  1) amplitude =  0.6842
    D(195) --> V(  2) amplitude =  0.2304
    D(198) --> V(  2) amplitude = -0.4034

 ---------------------------------------------------

                    Orbital Energies (a.u.)
 --------------------------------------------------------------

 Alpha MOs
 -- Occupied --
-19.528 -19.528 -10.506 -10.506 -10.483 -10.483 -10.469 -10.469
-10.469 -10.469 -10.468 -10.467 -10.467 -10.466 -10.466 -10.465
-10.465 -10.465 -10.464 -10.464 -10.463 -10.463 -10.462 -10.462
-10.460 -10.459 -10.459 -10.458 -10.456 -10.456 -10.456 -10.455
-10.454 -10.454 -10.453 -10.453 -10.451 -10.450 -10.439 -10.439
-10.438 -10.438 -10.436 -10.435 -10.435 -10.435 -10.434 -10.434
-10.433 -10.433 -10.422 -10.422 -10.421 -10.421 -10.420 -10.420
 -6.950  -6.946  -1.183  -1.183  -1.018  -1.015  -0.963  -0.958
 -0.958  -0.955  -0.935  -0.934  -0.908  -0.899  -0.891  -0.890
 -0.869  -0.865  -0.861  -0.857  -0.850  -0.847  -0.824  -0.822
 -0.818  -0.814  -0.813  -0.803  -0.803  -0.798  -0.774  -0.773
 -0.737  -0.734  -0.729  -0.719  -0.713  -0.713  -0.705  -0.704
 -0.689  -0.684  -0.678  -0.669  -0.657  -0.648  -0.647  -0.640
 -0.632  -0.632  -0.599  -0.592  -0.592  -0.588  -0.584  -0.584
 -0.583  -0.576  -0.575  -0.565  -0.564  -0.544  -0.542  -0.537
 -0.533  -0.533  -0.527  -0.523  -0.517  -0.511  -0.505  -0.504
 -0.503  -0.502  -0.500  -0.499  -0.493  -0.493  -0.488  -0.488
 -0.486  -0.486  -0.484  -0.482  -0.480  -0.480  -0.477  -0.465
 -0.461  -0.460  -0.459  -0.457  -0.456  -0.453  -0.443  -0.440
 -0.437  -0.436  -0.433  -0.431  -0.430  -0.429  -0.425  -0.416
 -0.414  -0.413  -0.410  -0.406  -0.402  -0.401  -0.399  -0.399
 -0.397  -0.395  -0.394  -0.392  -0.391  -0.389  -0.384  -0.382
 -0.377  -0.373  -0.365  -0.365  -0.362  -0.360  -0.357  -0.350
 -0.343  -0.339  -0.326  -0.318  -0.300  -0.297  -0.280  -0.279
 -0.278  -0.265  -0.257  -0.255  -0.253  -0.250

          Ground-State Mulliken Net Atomic Charges

     Atom                 Charge (a.u.)
  ----------------------------------------
      1 C                    -0.151316
      2 C                    -0.399177
      3 H                     0.251680
      4 C                     0.085408
      5 C                     0.078616
      6 C                    -0.396234
      7 H                     0.248555
      8 C                    -0.155481
      9 C                     0.173817
     10 C                    -0.391005
     11 H                     0.254736
     12 C                    -0.067700
     13 C                     0.217152
     14 C                     0.180394
     15 C                    -0.397075
     16 H                     0.254779
     17 C                    -0.236154
     18 H                     0.259981
     19 C                    -0.348031
     20 H                     0.257306
     21 C                    -0.350086
     22 H                     0.257517
     23 C                    -0.234610
     24 H                     0.259791
     25 B                     0.635922
     26 C                    -0.156538
     27 C                    -0.377897
     28 H                     0.251961
     29 C                     0.054402
     30 C                     0.190621
     31 C                    -0.376447
     32 H                     0.257748
     33 C                    -0.235348
     34 H                     0.260880
     35 C                    -0.346088
     36 H                     0.259462
     37 C                     0.218070
     38 C                    -0.089634
     39 C                    -0.343971
     40 H                     0.259488
     41 C                    -0.234626
     42 H                     0.261715
     43 C                    -0.368330
     44 H                     0.258053
     45 C                     0.180956
     46 C                     0.049096
     47 C                    -0.381975
     48 H                     0.251017
     49 C                    -0.148937
     50 B                     0.641526
     51 C                    -0.225752
     52 C                     0.072420
     53 C                    -0.447554
     54 H                     0.257985
     55 C                     0.387455
     56 O                    -0.470669
     57 C                    -0.404644
     58 H                     0.239949
     59 C                     0.065558
     60 C                    -0.430224
     61 H                     0.253881
     62 H                     0.221139
     63 H                     0.221134
     64 C                    -0.550382
     65 H                     0.241937
     66 H                     0.253428
     67 C                    -0.553693
     68 H                     0.243743
     69 H                     0.253607
     70 C                    -0.659431
     71 H                     0.237412
     72 H                     0.222359
     73 H                     0.228745
     74 C                    -0.659825
     75 H                     0.239559
     76 H                     0.222704
     77 H                     0.227930
     78 C                    -0.226817
     79 C                     0.059572
     80 C                    -0.443201
     81 H                     0.258212
     82 C                     0.387231
     83 O                    -0.471124
     84 C                    -0.397724
     85 H                     0.239756
     86 C                     0.065791
     87 C                    -0.430063
     88 H                     0.253941
     89 H                     0.221384
     90 H                     0.221283
     91 C                    -0.549940
     92 H                     0.243131
     93 H                     0.250652
     94 C                    -0.553220
     95 H                     0.256654
     96 H                     0.243059
     97 C                    -0.656004
     98 H                     0.233863
     99 H                     0.228265
    100 H                     0.222568
    101 C                    -0.658119
    102 H                     0.236700
    103 H                     0.228248
    104 H                     0.223138
  ----------------------------------------
  Sum of atomic charges =     0.000000

                    Cartesian Multipole Moments
 -----------------------------------------------------------------
    Charge (ESU x 10^10)
                 0.0000
    Dipole Moment (Debye)
         X       0.8243      Y      -0.0299      Z      -1.3839
       Tot       1.6111
    Quadrupole Moments (Debye-Ang)
        XX    -274.9667     XY      23.0208     YY    -333.6274
        XZ      -7.5347     YZ      12.4197     ZZ    -263.9063

 Total job time:  13204.06s(wall), 44325.66s(cpu)
        *  Thank you very much for using Q-Chem.  Have a nice day.  *
