 Q-Chem 5.1, Q-Chem, Inc., Pleasanton, CA (2018)
 Q-Chem 5.1.1 for Intel X86 EM64T Linux

User input:
--------------------------------------------------------------
$solvent
dielectric      2.03
dielectric_infi 2.02
$end

$rem
threads 8
jobtype	sp
method PBEh-3c
basis def2-mSVP
mem_static	1024
mem_total	14000
sym_ignore	true
cis_n_roots             2
cis_singlets            false
cis_triplets		true
rpa                     false
calc_soc 		true
cis_moments             true
cis_relaxed_density	true
solvent_method		pcm
$end

$pcm
StateSpecific   1
ChargeSeparation Excited
$end

$molecule
read utleopt_chx.mol
$end

--------------------------------------------------------------

   15   -2280.7181980025      5.80e-09  Convergence criterion met
 Total energy in the final basis set =    -2280.7181980025
 Total job time:  5903.84s(wall), 23187.06s(cpu)
        *  Thank you very much for using Q-Chem.  Have a nice day.  *
 Q-Chem 5.1, Q-Chem, Inc., Pleasanton, CA (2018)
 Q-Chem 5.1.1 for Intel X86 EM64T Linux

User input:
--------------------------------------------------------------
$rem
threads 8
jobtype sp
method PBEh-3c
basis def2-mSVP
mem_static      1024
mem_total       14000
sym_ignore      true
cis_n_roots             6
cis_singlets            true
cis_triplets            true
rpa                     false
calc_soc                true
cis_moments             true
cis_relaxed_density     true
solvent_method          pcm
$end

$molecule
read
$end

$pcm
statespecific           Marcus
$end

$solvent
dielectric      2.03
dielectric_infi 2.02
$end

--------------------------------------------------------------

             Standard Nuclear Orientation (Angstroms)
    I     Atom           X                Y                Z
 ----------------------------------------------------------------
    1      C       0.0000000000     0.0000000000     0.0000000000
    2      C       0.0000000000     0.0000000000     1.4074850000
    3      H       0.9446808667     0.0000000000     1.9397807502
    4      C      -1.1870736886     0.0025279733     2.1024263301
    5      C      -2.4199701362     0.0036337450     1.3933343821
    6      C      -2.4394261123     0.0001358692     0.0172643625
    7      H      -3.3841936438    -0.0048440028    -0.5157604637
    8      C      -1.2364090627     0.0013431084    -0.7083065809
    9      C      -3.5054173739     0.0053694739     2.3695910971
   10      C      -4.8738861741     0.0074818098     2.2925912006
   11      H      -5.3938016795     0.0091214435     1.3423287351
   12      C      -2.8950359572     0.0050418556     3.6384299060
   13      C      -3.5989368016     0.0052599577     4.8378408998
   14      C      -1.4902385449     0.0035038609     3.5356514118
   15      C      -0.7535844298     0.0019467195     4.6906298788
   16      H       0.3291478368    -0.0001862196     4.6787992501
   17      C      -5.6153422838     0.0078798568     3.4970257343
   18      H      -6.6961856115     0.0093606837     3.4391642623
   19      C      -5.0119088641     0.0065996118     4.7336278034
   20      H      -5.6214425638     0.0069051140     5.6289986746
   21      C      -1.4404373924     0.0025048752     5.9286775269
   22      H      -0.8575988427     0.0010694807     6.8405007218
   23      C      -2.8135821677     0.0042430276     6.0158798003
   24      H      -3.2921456506     0.0045331993     6.9875389538
   25      B       1.3470151082    -0.0051111362    -0.7558302411
   26      C       1.3404426764     0.0243318279    -2.2940224402
   27      C       2.5443397908     0.0238865116    -2.9912568037
   28      H       3.4792193957     0.0009360489    -2.4429720946
   29      C       2.5538706495     0.0483543896    -4.3727472717
   30      C       3.6033356356     0.0523917511    -5.3366948288
   31      C       4.9910967652     0.0358737897    -5.2889337155
   32      H       5.5262385901     0.0170128260    -4.3487542689
   33      C       5.6961860302     0.0407863199    -6.5005025642
   34      H       6.7778811981     0.0273283928    -6.4692926865
   35      C       5.0686571884     0.0602670599    -7.7361946517
   36      H       5.6644110771     0.0618190152    -8.6404549372
   37      C       3.6562240840     0.0760883363    -7.8214293349
   38      C       2.9728032009     0.0723719205    -6.6062996877
   39      C       2.8538367336     0.0918679275    -8.9892164265
   40      H       3.3221990507     0.0952648805    -9.9656137617
   41      C       1.4694096884     0.1023463608    -8.8941178646
   42      H       0.8868060665     0.1147371407    -9.8062941271
   43      C       0.7960349232     0.0970735021    -7.6678529534
   44      H      -0.2858566887     0.1050953225    -7.6407808637
   45      C       1.5551266173     0.0812527527    -6.4997874919
   46      C       1.2584255064     0.0649466087    -5.1162201158
   47      C       0.0558037392     0.0514637722    -4.4181105335
   48      H      -0.8829569286     0.0525338619    -4.9616406730
   49      C       0.0492450152     0.0287472622    -3.0344265363
   50      B      -1.2810832000    -0.0035567615    -2.2583572823
   51      C       2.7160778957    -0.0660646392     0.0150023070
   52      C       3.4847195476     1.0836620531     0.2186463893
   53      C       4.7010505816     1.0171832625     0.8974441281
   54      H       5.2651714069     1.9309506709     1.0401309895
   55      C       5.1680012856    -0.1992922488     1.3773734070
   56      O       6.3313501110    -0.3626524191     2.0426454330
   57      C       4.4095855565    -1.3489732514     1.1754713949
   58      H       4.7811925589    -2.2965234330     1.5500250067
   59      C       3.1980895539    -1.2914805014     0.5064867053
   60      C       7.1297674107     0.7687447096     2.2796640728
   61      H       8.0064940771     0.4227722091     2.8230586847
   62      H       6.6160537024     1.5183492689     2.8897480628
   63      H       7.4613279544     1.2439912504     1.3510732746
   64      C       2.9892797786     2.4331910777    -0.2359955722
   65      H       2.4298787530     2.3377672296    -1.1702306746
   66      H       3.8410764941     3.0797154072    -0.4626953186
   67      C       2.4425226990    -2.5759347082     0.2705205772
   68      H       1.3653341563    -2.3922999106     0.2793777648
   69      H       2.6346333756    -3.2669807792     1.0950204237
   70      C       2.1045745012     3.1115871691     0.8078998013
   71      H       1.2116583987     2.5211961790     1.0141154890
   72      H       2.6390458935     3.2441137781     1.7492496746
   73      H       1.7786033810     4.0940562644     0.4642623293
   74      C       2.8261832134    -3.2494625326    -1.0460759186
   75      H       2.5969163090    -2.6124194059    -1.9005250804
   76      H       3.8931688534    -3.4729361862    -1.0769436944
   77      H       2.2830309139    -4.1862900248    -1.1776057521
   78      C      -2.6515362915    -0.0604844922    -3.0386395540
   79      C      -3.1404201580    -1.2769139453    -3.5253415549
   80      C      -4.3462272835    -1.3394682398    -4.2229057334
   81      H      -4.6870885742    -2.3047233303    -4.5783451293
   82      C      -5.0880248767    -0.1887966399    -4.4454705526
   83      O      -6.2648429599    -0.1517840705    -5.1063455838
   84      C      -4.6118754697     1.0272750794    -3.9650988612
   85      H      -5.1927303089     1.9259500271    -4.1422448249
   86      C      -3.4138269810     1.0975738034    -3.2727251109
   87      C      -6.7951970280    -1.3570011731    -5.5984434948
   88      H      -7.7358243565    -1.1074994632    -6.0848902432
   89      H      -6.1380582618    -1.8297892793    -6.3350906992
   90      H      -6.9970703025    -2.0777011714    -4.7997788208
   91      C      -2.9215758083     2.4539053342    -2.8390073872
   92      H      -2.2999247690     2.3678550255    -1.9443585674
   93      H      -3.7730042856     3.0773838154    -2.5546372993
   94      C      -2.4217130661    -2.5755358426    -3.2575345540
   95      H      -1.3519268220    -2.4000890315    -3.1224051553
   96      H      -2.5100823478    -3.2299355968    -4.1290861759
   97      C      -2.9737849857    -3.2931903716    -2.0277414956
   98      H      -2.8626317873    -2.6796014502    -1.1333403076
   99      H      -2.4500228941    -4.2339815017    -1.8540453108
  100      H      -4.0348575797    -3.5166539258    -2.1460023747
  101      C      -2.1310718139     3.1553146018    -3.9416785671
  102      H      -1.2438410719     2.5838012689    -4.2151185206
  103      H      -1.8026874843     4.1445370531    -3.6206844728
  104      H      -2.7366954064     3.2768515797    -4.8405249418
 ----------------------------------------------------------------

   15   -2280.7181968792      5.80e-09  Convergence criterion met
 Total energy in the final basis set =    -2280.7181968792

         TDDFT/TDA Excitation Energies
 ---------------------------------------------------

 Excited state   1: excitation energy (eV) =    1.9011
 Total energy for state  1:                 -2280.64833387 au
    Multiplicity: Triplet
    Trans. Mom.:  0.0000 X   0.0000 Y   0.0000 Z
    Strength   :     0.0000000000
    D(197) --> V(  1) amplitude = -0.2660
    D(198) --> V(  1) amplitude =  0.8737

 Excited state   2: excitation energy (eV) =    2.2502
 Total energy for state  2:                 -2280.63550395 au
    Multiplicity: Triplet
    Trans. Mom.:  0.0000 X   0.0000 Y   0.0000 Z
    Strength   :     0.0000000000
    D(194) --> V(  1) amplitude =  0.5227
    D(194) --> V(  2) amplitude =  0.3510
    D(195) --> V(  1) amplitude =  0.6377
    D(195) --> V(  2) amplitude =  0.2694

 Excited state   3: excitation energy (eV) =    2.4860
 Total energy for state  3:                 -2280.62683966 au
    Multiplicity: Triplet
    Trans. Mom.:  0.0000 X   0.0000 Y   0.0000 Z
    Strength   :     0.0000000000
    D(194) --> V(  1) amplitude =  0.4623
    D(194) --> V(  2) amplitude = -0.3043
    D(195) --> V(  1) amplitude = -0.4452
    D(195) --> V(  2) amplitude =  0.4489
    D(196) --> V(  1) amplitude = -0.2263

 Excited state   4: excitation energy (eV) =    2.5445
 Total energy for state  4:                 -2280.62468919 au
    Multiplicity: Triplet
    Trans. Mom.:  0.0000 X   0.0000 Y   0.0000 Z
    Strength   :     0.0000000000
    D(191) --> V(  1) amplitude =  0.6097
    D(191) --> V(  2) amplitude = -0.2157
    D(197) --> V(  1) amplitude = -0.2939
    D(197) --> V(  2) amplitude =  0.2242
    D(198) --> V(  2) amplitude = -0.4653

 Excited state   5: excitation energy (eV) =    2.6256
 Total energy for state  5:                 -2280.62170814 au
    Multiplicity: Singlet
    Trans. Mom.: -0.2902 X  -0.0010 Y  -0.5323 Z
    Strength   :     0.0236406880
    D(197) --> V(  1) amplitude = -0.2518
    D(198) --> V(  1) amplitude =  0.9313

 Excited state   6: excitation energy (eV) =    2.7899
 Total energy for state  6:                 -2280.61566938 au
    Multiplicity: Triplet
    Trans. Mom.:  0.0000 X   0.0000 Y   0.0000 Z
    Strength   :     0.0000000000
    D(197) --> V(  1) amplitude =  0.8466
    D(198) --> V(  1) amplitude =  0.3122

 Excited state   7: excitation energy (eV) =    2.8420
 Total energy for state  7:                 -2280.61375501 au
    Multiplicity: Singlet
    Trans. Mom.: -0.4725 X  -0.0207 Y  -0.4959 Z
    Strength   :     0.0326975396
    D(197) --> V(  1) amplitude =  0.9308
    D(198) --> V(  1) amplitude =  0.2492

 Excited state   8: excitation energy (eV) =    2.9018
 Total energy for state  8:                 -2280.61155678 au
    Multiplicity: Triplet
    Trans. Mom.:  0.0000 X   0.0000 Y   0.0000 Z
    Strength   :     0.0000000000
    D(196) --> V(  1) amplitude =  0.9203

 Excited state   9: excitation energy (eV) =    2.9313
 Total energy for state  9:                 -2280.61047249 au
    Multiplicity: Singlet
    Trans. Mom.:  0.0489 X   0.0248 Y  -0.0223 Z
    Strength   :     0.0002516589
    D(196) --> V(  1) amplitude =  0.9591

 Excited state  10: excitation energy (eV) =    3.0837
 Total energy for state 10:                 -2280.60487121 au
    Multiplicity: Singlet
    Trans. Mom.: -2.0879 X  -0.0264 Y   3.5328 Z
    Strength   :     1.2723445375
    D(195) --> V(  1) amplitude =  0.9286

 Excited state  11: excitation energy (eV) =    3.3820
 Total energy for state 11:                 -2280.59390946 au
    Multiplicity: Singlet
    Trans. Mom.:  0.7487 X  -0.0053 Y   0.4434 Z
    Strength   :     0.0627333069
    D(191) --> V(  1) amplitude =  0.5983
    D(198) --> V(  2) amplitude = -0.6432

 Excited state  12: excitation energy (eV) =    3.4205
 Total energy for state 12:                 -2280.59249570 au
    Multiplicity: Singlet
    Trans. Mom.:  0.0328 X  -0.0249 Y  -0.3861 Z
    Strength   :     0.0126344303
    D(194) --> V(  1) amplitude =  0.8914
    D(195) --> V(  2) amplitude =  0.2408

 ---------------------------------------------------

                    Orbital Energies (a.u.)
 --------------------------------------------------------------

 Alpha MOs
 -- Occupied --
-19.525 -19.525 -10.502 -10.501 -10.485 -10.485 -10.469 -10.468
-10.467 -10.466 -10.466 -10.466 -10.465 -10.464 -10.463 -10.462
-10.462 -10.462 -10.462 -10.461 -10.461 -10.460 -10.460 -10.460
-10.460 -10.459 -10.457 -10.457 -10.453 -10.452 -10.452 -10.451
-10.450 -10.450 -10.449 -10.449 -10.449 -10.446 -10.436 -10.436
-10.434 -10.433 -10.433 -10.433 -10.432 -10.432 -10.432 -10.431
-10.429 -10.429 -10.419 -10.419 -10.418 -10.418 -10.417 -10.416
 -6.945  -6.942  -1.181  -1.181  -1.014  -1.013  -0.960  -0.955
 -0.955  -0.952  -0.934  -0.932  -0.905  -0.897  -0.887  -0.887
 -0.866  -0.863  -0.858  -0.853  -0.850  -0.845  -0.821  -0.820
 -0.815  -0.813  -0.811  -0.800  -0.800  -0.796  -0.773  -0.772
 -0.736  -0.732  -0.726  -0.717  -0.710  -0.709  -0.702  -0.701
 -0.688  -0.682  -0.677  -0.666  -0.655  -0.646  -0.644  -0.638
 -0.629  -0.629  -0.598  -0.591  -0.590  -0.588  -0.583  -0.582
 -0.582  -0.575  -0.574  -0.562  -0.561  -0.542  -0.541  -0.535
 -0.533  -0.532  -0.527  -0.522  -0.515  -0.508  -0.503  -0.502
 -0.501  -0.500  -0.498  -0.497  -0.491  -0.490  -0.486  -0.484
 -0.483  -0.483  -0.481  -0.480  -0.479  -0.479  -0.476  -0.464
 -0.459  -0.458  -0.457  -0.456  -0.453  -0.451  -0.443  -0.438
 -0.435  -0.433  -0.430  -0.428  -0.428  -0.427  -0.423  -0.414
 -0.412  -0.411  -0.408  -0.404  -0.399  -0.399  -0.398  -0.397
 -0.395  -0.394  -0.392  -0.390  -0.389  -0.386  -0.381  -0.379
 -0.373  -0.370  -0.362  -0.362  -0.358  -0.357  -0.354  -0.347
 -0.339  -0.336  -0.323  -0.314  -0.299  -0.294  -0.276  -0.275
 -0.274  -0.262  -0.255  -0.251  -0.249  -0.247

          Ground-State Mulliken Net Atomic Charges

     Atom                 Charge (a.u.)
  ----------------------------------------
      1 C                    -0.151330
      2 C                    -0.397041
      3 H                     0.246049
      4 C                     0.094794
      5 C                     0.087848
      6 C                    -0.394176
      7 H                     0.242960
      8 C                    -0.153994
      9 C                     0.183244
     10 C                    -0.386002
     11 H                     0.239540
     12 C                    -0.065903
     13 C                     0.233887
     14 C                     0.190186
     15 C                    -0.392183
     16 H                     0.239557
     17 C                    -0.222317
     18 H                     0.244061
     19 C                    -0.342366
     20 H                     0.239433
     21 C                    -0.220572
     22 H                     0.243886
     23 C                    -0.344593
     24 H                     0.239665
     25 B                     0.642122
     26 C                    -0.156388
     27 C                    -0.376616
     28 H                     0.246522
     29 C                     0.060538
     30 C                     0.198825
     31 C                    -0.370397
     32 H                     0.243031
     33 C                    -0.220998
     34 H                     0.245680
     35 C                    -0.340718
     36 H                     0.242220
     37 C                     0.234060
     38 C                    -0.090071
     39 C                    -0.338935
     40 H                     0.241987
     41 C                    -0.221240
     42 H                     0.246053
     43 C                    -0.363406
     44 H                     0.242940
     45 C                     0.189385
     46 C                     0.055154
     47 C                    -0.380493
     48 H                     0.244737
     49 C                    -0.149213
     50 B                     0.647699
     51 C                    -0.226978
     52 C                     0.079004
     53 C                    -0.439614
     54 H                     0.240536
     55 C                     0.394410
     56 O                    -0.462496
     57 C                    -0.392560
     58 H                     0.230980
     59 C                     0.073518
     60 C                    -0.419002
     61 H                     0.246990
     62 H                     0.212627
     63 H                     0.212096
     64 C                    -0.550245
     65 H                     0.254442
     66 H                     0.233184
     67 C                    -0.553200
     68 H                     0.255180
     69 H                     0.237352
     70 C                    -0.652845
     71 H                     0.242265
     72 H                     0.217976
     73 H                     0.223513
     74 C                    -0.653522
     75 H                     0.241282
     76 H                     0.220047
     77 H                     0.222577
     78 C                    -0.227901
     79 C                     0.067616
     80 C                    -0.434813
     81 H                     0.240812
     82 C                     0.394294
     83 O                    -0.463022
     84 C                    -0.386277
     85 H                     0.230738
     86 C                     0.072236
     87 C                    -0.418882
     88 H                     0.247043
     89 H                     0.212401
     90 H                     0.212803
     91 C                    -0.550176
     92 H                     0.252472
     93 H                     0.237083
     94 C                    -0.552753
     95 H                     0.257423
     96 H                     0.234700
     97 C                    -0.648811
     98 H                     0.238429
     99 H                     0.223021
    100 H                     0.217262
    101 C                    -0.651775
    102 H                     0.238142
    103 H                     0.223195
    104 H                     0.220115
  ----------------------------------------
  Sum of atomic charges =     0.000000

                    Cartesian Multipole Moments
 -----------------------------------------------------------------
    Charge (ESU x 10^10)
                 0.0000
    Dipole Moment (Debye)
         X       0.6621      Y      -0.0633      Z      -1.0912
       Tot       1.2780
    Quadrupole Moments (Debye-Ang)
        XX    -282.1854     XY      19.8974     YY    -335.6994
        XZ      -5.2839     YZ      11.1711     ZZ    -274.9174

 Total job time:  14294.02s(wall), 47889.26s(cpu)
        *  Thank you very much for using Q-Chem.  Have a nice day.  *
