 Q-Chem 5.1, Q-Chem, Inc., Pleasanton, CA (2018)
 Q-Chem 5.1.1 for Intel X86 EM64T Linux

User input:
--------------------------------------------------------------
$solvent
dielectric      1.0001
dielectric_infi 1.00009
$end

$rem
threads 8
jobtype	sp
method PBEh-3c
basis def2-mSVP
mem_static	1024
mem_total	14000
sym_ignore	true
cis_n_roots             2
cis_singlets            false
cis_triplets		true
rpa                     false
calc_soc 		true
cis_moments             true
cis_relaxed_density	true
solvent_method		pcm
$end

$pcm
StateSpecific   1
ChargeSeparation Excited
$end

$molecule
read utleopt_vac.mol
$end

--------------------------------------------------------------

   15   -2280.7030815590      6.44e-09  Convergence criterion met
 Total energy in the final basis set =    -2280.7030815590

         TDDFT/TDA Excitation Energies
 ---------------------------------------------------

 Excited state   1: excitation energy (eV) =    1.8771
 Total energy for state  1:                 -2280.63409917 au
    Multiplicity: Triplet
    Trans. Mom.:  0.0000 X   0.0000 Y   0.0000 Z
    Strength   :     0.0000000000
    D(197) --> V(  1) amplitude =  0.2444
    D(198) --> V(  1) amplitude =  0.8806

 Excited state   2: excitation energy (eV) =    2.2449
 Total energy for state  2:                 -2280.62058394 au
    Multiplicity: Triplet
    Trans. Mom.:  0.0000 X   0.0000 Y   0.0000 Z
    Strength   :     0.0000000000
    D(194) --> V(  1) amplitude = -0.5502
    D(194) --> V(  2) amplitude =  0.3539
    D(195) --> V(  1) amplitude = -0.6155
    D(195) --> V(  2) amplitude =  0.2627

 ---------------------------------------------------

                    Orbital Energies (a.u.)
 --------------------------------------------------------------

 Alpha MOs
 -- Occupied --
-19.522 -19.522 -10.498 -10.498 -10.488 -10.488 -10.468 -10.467
-10.466 -10.465 -10.465 -10.463 -10.462 -10.461 -10.461 -10.461
-10.460 -10.460 -10.460 -10.459 -10.459 -10.459 -10.458 -10.458
-10.457 -10.457 -10.456 -10.456 -10.449 -10.449 -10.448 -10.448
-10.447 -10.446 -10.446 -10.445 -10.445 -10.443 -10.432 -10.432
-10.431 -10.430 -10.430 -10.430 -10.429 -10.429 -10.429 -10.428
-10.425 -10.425 -10.417 -10.416 -10.416 -10.414 -10.414 -10.412
 -6.942  -6.938  -1.180  -1.180  -1.011  -1.011  -0.957  -0.952
 -0.951  -0.949  -0.933  -0.930  -0.902  -0.894  -0.885  -0.884
 -0.864  -0.860  -0.856  -0.850  -0.849  -0.844  -0.819  -0.818
 -0.813  -0.811  -0.809  -0.797  -0.797  -0.793  -0.772  -0.771
 -0.735  -0.730  -0.725  -0.715  -0.708  -0.707  -0.699  -0.699
 -0.686  -0.679  -0.675  -0.664  -0.653  -0.644  -0.641  -0.636
 -0.627  -0.626  -0.598  -0.591  -0.588  -0.587  -0.582  -0.581
 -0.581  -0.574  -0.572  -0.560  -0.559  -0.540  -0.539  -0.534
 -0.533  -0.533  -0.526  -0.521  -0.513  -0.506  -0.501  -0.500
 -0.499  -0.498  -0.496  -0.495  -0.489  -0.488  -0.484  -0.482
 -0.480  -0.479  -0.479  -0.478  -0.478  -0.477  -0.475  -0.463
 -0.458  -0.457  -0.455  -0.455  -0.451  -0.448  -0.442  -0.435
 -0.433  -0.431  -0.427  -0.426  -0.425  -0.424  -0.419  -0.412
 -0.410  -0.409  -0.406  -0.403  -0.398  -0.397  -0.397  -0.395
 -0.392  -0.392  -0.390  -0.388  -0.387  -0.383  -0.379  -0.377
 -0.370  -0.367  -0.360  -0.359  -0.355  -0.354  -0.351  -0.343
 -0.336  -0.332  -0.319  -0.310  -0.297  -0.291  -0.272  -0.271
 -0.271  -0.259  -0.252  -0.247  -0.245  -0.243

          Ground-State Mulliken Net Atomic Charges

     Atom                 Charge (a.u.)
  ----------------------------------------
      1 C                    -0.150806
      2 C                    -0.395650
      3 H                     0.238334
      4 C                     0.105061
      5 C                     0.098161
      6 C                    -0.392739
      7 H                     0.235151
      8 C                    -0.152521
      9 C                     0.193346
     10 C                    -0.379215
     11 H                     0.220888
     12 C                    -0.064146
     13 C                     0.251936
     14 C                     0.200558
     15 C                    -0.385600
     16 H                     0.220882
     17 C                    -0.205383
     18 H                     0.225715
     19 C                    -0.333855
     20 H                     0.219099
     21 C                    -0.203460
     22 H                     0.225549
     23 C                    -0.336294
     24 H                     0.219336
     25 B                     0.645571
     26 C                    -0.155156
     27 C                    -0.375096
     28 H                     0.238885
     29 C                     0.070231
     30 C                     0.209497
     31 C                    -0.364295
     32 H                     0.224083
     33 C                    -0.203915
     34 H                     0.227133
     35 C                    -0.333198
     36 H                     0.221581
     37 C                     0.252303
     38 C                    -0.088689
     39 C                    -0.331192
     40 H                     0.221353
     41 C                    -0.204383
     42 H                     0.227460
     43 C                    -0.357282
     44 H                     0.223844
     45 C                     0.200352
     46 C                     0.065070
     47 C                    -0.378616
     48 H                     0.236383
     49 C                    -0.147828
     50 B                     0.650926
     51 C                    -0.227665
     52 C                     0.086251
     53 C                    -0.428718
     54 H                     0.221067
     55 C                     0.401875
     56 O                    -0.453496
     57 C                    -0.378713
     58 H                     0.219245
     59 C                     0.081584
     60 C                    -0.405717
     61 H                     0.238648
     62 H                     0.203334
     63 H                     0.202423
     64 C                    -0.549543
     65 H                     0.255413
     66 H                     0.224056
     67 C                    -0.552235
     68 H                     0.255442
     69 H                     0.229693
     70 C                    -0.644576
     71 H                     0.245523
     72 H                     0.213563
     73 H                     0.217709
     74 C                    -0.645813
     75 H                     0.244195
     76 H                     0.216664
     77 H                     0.216499
     78 C                    -0.228524
     79 C                     0.076134
     80 C                    -0.423960
     81 H                     0.221422
     82 C                     0.401908
     83 O                    -0.454027
     84 C                    -0.372786
     85 H                     0.219001
     86 C                     0.079400
     87 C                    -0.405670
     88 H                     0.238736
     89 H                     0.202823
     90 H                     0.203464
     91 C                    -0.549567
     92 H                     0.252561
     93 H                     0.229747
     94 C                    -0.552210
     95 H                     0.257992
     96 H                     0.226141
     97 C                    -0.639906
     98 H                     0.241335
     99 H                     0.217242
    100 H                     0.212070
    101 C                    -0.643752
    102 H                     0.240386
    103 H                     0.216511
    104 H                     0.217448
  ----------------------------------------
  Sum of atomic charges =     0.000000

                    Cartesian Multipole Moments
 -----------------------------------------------------------------
    Charge (ESU x 10^10)
                 0.0000
    Dipole Moment (Debye)
         X       0.5393      Y      -0.0642      Z      -0.9143
       Tot       1.0634
    Quadrupole Moments (Debye-Ang)
        XX    -290.1545     XY      17.1597     YY    -337.8397
        XZ      -3.4163     YZ       9.7947     ZZ    -285.2797

 Total job time:  7076.11s(wall), 26722.96s(cpu)
        *  Thank you very much for using Q-Chem.  Have a nice day.  *
 Q-Chem 5.1, Q-Chem, Inc., Pleasanton, CA (2018)
 Q-Chem 5.1.1 for Intel X86 EM64T Linux

User input:
--------------------------------------------------------------
$rem
threads 8
jobtype sp
method PBEh-3c
basis def2-mSVP
mem_static      1024
mem_total       14000
sym_ignore      true
cis_n_roots             6
cis_singlets            true
cis_triplets            true
rpa                     false
calc_soc                true
cis_moments             true
cis_relaxed_density     true
solvent_method          pcm
$end

$molecule
read
$end

$pcm
statespecific           Marcus
$end

$solvent
dielectric      1.0001
dielectric_infi 1.00009
$end

--------------------------------------------------------------

             Standard Nuclear Orientation (Angstroms)
    I     Atom           X                Y                Z
 ----------------------------------------------------------------
    1      C       0.0000000000     0.0000000000     0.0000000000
    2      C       0.0000000000     0.0000000000     1.4071210000
    3      H       0.9457319834     0.0000000000     1.9376614497
    4      C      -1.1870962962     0.0020599834     2.1015797717
    5      C      -2.4195175069     0.0029547402     1.3924254869
    6      C      -2.4388343681     0.0004751633     0.0166103217
    7      H      -3.3823423959    -0.0037784478    -0.5187504075
    8      C      -1.2358401419     0.0021745769    -0.7083176539
    9      C      -3.5049278890     0.0041464894     2.3685101485
   10      C      -4.8728936408     0.0058543550     2.2915491062
   11      H      -5.3923384035     0.0074430582     1.3411431089
   12      C      -2.8952772423     0.0039354373     3.6373929575
   13      C      -3.5992757169     0.0041027473     4.8363303621
   14      C      -1.4907420266     0.0028257649     3.5345747337
   15      C      -0.7549674018     0.0016445579     4.6895248789
   16      H       0.3276671563    -0.0002448709     4.6776800888
   17      C      -5.6146444317     0.0059802073     3.4952419830
   18      H      -6.6954085732     0.0071274246     3.4372968128
   19      C      -5.0117277485     0.0050153564     4.7314321740
   20      H      -5.6217381719     0.0051911863     5.6263815444
   21      C      -1.4415939665     0.0021995637     5.9271423481
   22      H      -0.8591224042     0.0011193566     6.8391079569
   23      C      -2.8141746068     0.0035807952     6.0139716856
   24      H      -3.2926266580     0.0039043944     6.9856110213
   25      B       1.3469894500    -0.0055076486    -0.7555318666
   26      C       1.3408374466     0.0197875598    -2.2940706426
   27      C       2.5442160558     0.0127232778    -2.9903506281
   28      H       3.4775417881    -0.0123541454    -2.4393504322
   29      C       2.5544945039     0.0338213207    -4.3724513900
   30      C       3.6033441432     0.0313093233    -5.3356120350
   31      C       4.9912422272     0.0091717508    -5.2878238273
   32      H       5.5259368584    -0.0097173333    -4.3475320620
   33      C       5.6963536250     0.0083854951    -6.4982728408
   34      H       6.7779066720    -0.0094224762    -6.4668829238
   35      C       5.0694279065     0.0273787016    -7.7340947085
   36      H       5.6659165136     0.0242796491    -8.6377682788
   37      C       3.6576850243     0.0487771903    -7.8204921931
   38      C       2.9737015493     0.0509396370    -6.6056134032
   39      C       2.8559691097     0.0648601625    -8.9880459993
   40      H       3.3244898004     0.0638382198    -9.9643039543
   41      C       1.4719059228     0.0814558544    -8.8936017468
   42      H       0.8898380821     0.0939707066    -9.8060400061
   43      C       0.7984946626     0.0821715001    -7.6681421339
   44      H      -0.2832474269     0.0949506511    -7.6416050386
   45      C       1.5565091775     0.0661369506    -6.4995090009
   46      C       1.2591434998     0.0545015269    -5.1162662629
   47      C       0.0565899059     0.0476983337    -4.4180318420
   48      H      -0.8836729922     0.0516205171    -4.9591544606
   49      C       0.0501069584     0.0268152298    -3.0346146397
   50      B      -1.2806035854    -0.0003551847    -2.2581525761
   51      C       2.7158989560    -0.0620837323     0.0145378403
   52      C       3.4839000654     1.0890690100     0.2097673353
   53      C       4.7007160306     1.0270242272     0.8872517464
   54      H       5.2638451093     1.9423033738     1.0236248344
   55      C       5.1686679977    -0.1858273019     1.3739045576
   56      O       6.3328848943    -0.3455030049     2.0384628978
   57      C       4.4107301007    -1.3366404396     1.1804970358
   58      H       4.7847143153    -2.2804543113     1.5612133450
   59      C       3.1986356823    -1.2840968823     0.5137101610
   60      C       7.1289979998     0.7845595424     2.2689062581
   61      H       8.0063771226     0.4419447103     2.8137257347
   62      H       6.6166157384     1.5385179413     2.8757285211
   63      H       7.4612772242     1.2568495255     1.3384079647
   64      C       2.9861256550     2.4354099922    -0.2515124665
   65      H       2.4294535188     2.3350196114    -1.1868786443
   66      H       3.8368556637     3.0829220323    -0.4798939920
   67      C       2.4424455815    -2.5698525054     0.2875298289
   68      H       1.3651577244    -2.3871227804     0.3028727648
   69      H       2.6397332800    -3.2568078318     1.1142676576
   70      C       2.0977948759     3.1160637422     0.7876465893
   71      H       1.2043001216     2.5262162229     0.9923558682
   72      H       2.6289498608     3.2502640742     1.7304962505
   73      H       1.7727131602     4.0978867850     0.4414313462
   74      C       2.8187037046    -3.2490194831    -1.0280910252
   75      H       2.5804218909    -2.6179351271    -1.8843545925
   76      H       3.8862926015    -3.4677933719    -1.0660439177
   77      H       2.2789202969    -4.1889245270    -1.1508958256
   78      C      -2.6507586996    -0.0477178799    -3.0381455557
   79      C      -3.1448820292    -1.2585573903    -3.5322554335
   80      C      -4.3516234167    -1.3107723169    -4.2283374522
   81      H      -4.6968431709    -2.2722641489    -4.5896695830
   82      C      -5.0885766155    -0.1559531921    -4.4421259572
   83      O      -6.2661270568    -0.1088500340    -5.1009735690
   84      C      -4.6070299015     1.0544046363    -3.9544761299
   85      H      -5.1854093713     1.9554445173    -4.1257371276
   86      C      -3.4085105753     1.1150719930    -3.2635182110
   87      C      -6.8016006804    -1.3052125790    -5.5990971122
   88      H      -7.7418612061    -1.0483075196    -6.0827897768
   89      H      -6.1487877613    -1.7779259425    -6.3404306302
   90      H      -7.0067855483    -2.0318256694    -4.8058974868
   91      C      -2.9092417173     2.4661831798    -2.8218819392
   92      H      -2.2928565535     2.3726368955    -1.9243332521
   93      H      -3.7580279313     3.0937256231    -2.5383998462
   94      C      -2.4320557026    -2.5618976423    -3.2725461880
   95      H      -1.3606068199    -2.3929073674    -3.1426062158
   96      H      -2.5276443640    -3.2124448983    -4.1463213273
   97      C      -2.9817676351    -3.2809587574    -2.0426864683
   98      H      -2.8578568936    -2.6736306056    -1.1458661319
   99      H      -2.4666198521    -4.2280103844    -1.8776477983
  100      H      -4.0458869320    -3.4927972457    -2.1538014200
  101      C      -2.1094882139     3.1669542460    -3.9180859576
  102      H      -1.2231788577     2.5925844542    -4.1881087737
  103      H      -2.7092918140     3.2928716462    -4.8200662892
  104      H      -1.7784267098     4.1540643753    -3.5934716811
 ----------------------------------------------------------------
