 Q-Chem 5.0, Q-Chem, Inc., Pleasanton, CA (2017)
 Q-Chem 5.0.1 for Intel X86 EM64T Linux

User input:
--------------------------------------------------------------
$solvent
dielectric      2.03
dielectric_infi 2.02
$end

$rem
threads 8
jobtype	sp
method PBEh-3c
basis def2-mSVP
mem_static	1024
mem_total	14000
sym_ignore	true
cis_n_roots             2
cis_singlets            true
cis_triplets		false
rpa                     false
calc_soc 		true
cis_moments             true
cis_relaxed_density	true
solvent_method		pcm
$end

$pcm
StateSpecific   1
ChargeSeparation Excited
$end

$molecule
read moms1opt_chx.mol
$end

--------------------------------------------------------------

   15   -1855.5352568005      5.13E-09 Convergence criterion met
 Total energy in the final basis set = -1855.53525680
 Total job time:  4646.16s(wall), 14415.49s(cpu)
        *  Thank you very much for using Q-Chem.  Have a nice day.  *
 Q-Chem 5.0, Q-Chem, Inc., Pleasanton, CA (2017)
 Q-Chem 5.0.1 for Intel X86 EM64T Linux

User input:
--------------------------------------------------------------
$rem
threads 8
jobtype sp
method PBEh-3c
basis def2-mSVP
mem_static      1024
mem_total       14000
sym_ignore      true
cis_n_roots             6
cis_singlets            true
cis_triplets            true
rpa                     false
calc_soc                true
cis_moments             true
cis_relaxed_density     true
solvent_method          pcm
$end

$molecule
read
$end

$pcm
statespecific           Marcus
$end

$solvent
dielectric      2.03
dielectric_infi 2.02
$end

--------------------------------------------------------------

             Standard Nuclear Orientation (Angstroms)
    I     Atom           X                Y                Z
 ----------------------------------------------------------------
    1      N       0.0000000000     0.0000000000     0.0000000000
    2      C       0.0000000000     0.0000000000     1.3780970000
    3      C       1.1590606638     0.0000000000    -0.7466127989
    4      C       1.2011957893    -0.1890645718     2.0847458957
    5      C       1.1281550271    -0.2346294740     3.4696708382
    6      H       2.0250651493    -0.4059041329     4.0485288511
    7      C      -0.0701073256    -0.0701451829     4.1448434438
    8      H      -0.0861679753    -0.1113195187     5.2254260172
    9      C      -1.2453982313     0.1608513204     3.4348699787
   10      H      -2.1799597512     0.3168274378     3.9550375249
   11      C      -1.2166160699     0.1975567068     2.0631898274
   12      H      -2.1267007948     0.3932622534     1.5166014032
   13      C       2.4058840196    -0.1306843992    -0.1013859012
   14      C       3.5429852803    -0.1013091713    -0.8939493516
   15      H       4.5161822567    -0.2149071674    -0.4374866304
   16      C       3.4726020945     0.0565788805    -2.2691108761
   17      H       4.3826894333     0.0828916031    -2.8527370823
   18      C       2.2345534700     0.1655662092    -2.8961027476
   19      H       2.1659049129     0.2822428066    -3.9682108078
   20      C       1.0841306916     0.1238365514    -2.1493171571
   21      H       0.1316004014     0.2035721937    -2.6507994054
   22      C      -1.2684294679    -0.0060350709    -0.6697607350
   23      C      -1.7091994415     1.1384629810    -1.2906386755
   24      H      -1.0851596972     2.0215731377    -1.2484929212
   25      C      -2.0259403472    -1.1662339754    -0.6791967243
   26      H      -1.6782430679    -2.0723978493    -0.2002768536
   27      C      -3.2534149301    -1.1088070922    -1.3006981222
   28      H      -3.8837567950    -1.9892612711    -1.2863875979
   29      C      -2.9151958432     1.1788139212    -1.9940106475
   30      C      -3.7289635365     0.0403803076    -1.9472060158
   31      C      -5.1320901198    -0.0161250289    -2.4754616847
   32      H      -5.6330487782    -0.8657082495    -2.0062327141
   33      H      -5.1389189150    -0.2130651562    -3.5510775874
   34      C       2.5176011466    -0.4010638094     1.3806886324
   35      C      -5.9070859790     1.2725830306    -2.1944704599
   36      H      -6.9733997873     1.0476114221    -2.1385606352
   37      H      -5.6274385264     1.6394899012    -1.1987611283
   38      C      -5.6733065010     2.2643554795    -3.2908913728
   39      C      -6.7461880866     2.6742599217    -4.0356274822
   40      H      -7.7406160676     2.3831189351    -3.7144346707
   41      C      -6.6333923573     3.4148901747    -5.2279489046
   42      C      -7.7807828041     3.8042246390    -5.9258268874
   43      N      -8.7475602563     4.1133457949    -6.4933970009
   44      C      -5.2959702886     3.6905169996    -5.6942098289
   45      C      -4.2109350529     3.2946023525    -4.9087836934
   46      H      -3.2294367296     3.5671397979    -5.2729798510
   47      C      -4.3353607034     2.6054244562    -3.7167454764
   48      C      -5.0534867016     4.3427104089    -6.9152692847
   49      N      -4.8415105524     4.8804120951    -7.9212375958
   50      C      -3.1146461747     2.4764318585    -2.8094606220
   51      C      -1.8199518501     2.6522689010    -3.6010619960
   52      C      -1.3194592969     1.8133208127    -4.5783993272
   53      H      -1.8778027073     0.9391957034    -4.8922096601
   54      C      -0.1055042757     2.1324069110    -5.1744644816
   55      H       0.2890907435     1.5017909003    -5.9611050434
   56      C       0.5942173226     3.2705501521    -4.7837347442
   57      H       1.5347686577     3.5107169001    -5.2622177817
   58      C       0.0908965119     4.1088219778    -3.7991383701
   59      H       0.6377044358     4.9963409031    -3.5062153305
   60      C      -1.1253874262     3.7933618870    -3.2090782714
   61      C      -1.8885033551     4.4564514632    -2.1560985527
   62      C      -1.6410011392     5.6303510757    -1.4621115459
   63      H      -0.7606683880     6.2250233592    -1.6725835075
   64      C      -2.5505244883     6.0413757921    -0.4974309233
   65      H      -2.3784779660     6.9600332942     0.0478238379
   66      C      -3.6892308568     5.2869124008    -0.2358722644
   67      H      -4.3961138149     5.6251210717     0.5107170360
   68      C      -3.9367922776     4.1100201044    -0.9312842706
   69      H      -4.8362547496     3.5426493967    -0.7319446160
   70      C      -3.0308701739     3.6976042650    -1.8905942963
   71      C       3.5872392499     0.5111993873     2.0035844975
   72      H       4.5609508186     0.3510451035     1.5447076302
   73      H       3.7116394839     0.3080650069     3.0656280542
   74      H       3.3227814050     1.5613014526     1.8866586019
   75      C       2.9184203863    -1.8832104785     1.5611210759
   76      H       3.8756726079    -2.0820379060     1.0796198083
   77      H       2.1748175938    -2.5515675216     1.1267474111
   78      H       3.0144684319    -2.1270539430     2.6193286214
 ----------------------------------------------------------------

   15   -1855.5351287475      5.14E-09 Convergence criterion met
 Total energy in the final basis set = -1855.53512875

         TDDFT/TDA Excitation Energies
 ---------------------------------------------------

 Excited state   1: excitation energy (eV) =    2.9793
 Total energy for state  1:                 -1855.42564052 au
    Multiplicity: Triplet
    Trans. Mom.:  0.0000 X   0.0000 Y   0.0000 Z
    Strength   :     0.0000000000
    D(148) --> V(  1) amplitude =  0.2132
    D(149) --> V(  1) amplitude =  0.2328
    D(150) --> V(  1) amplitude = -0.5183
    D(151) --> V(  1) amplitude = -0.6251
    D(153) --> V(  1) amplitude =  0.2975

 Excited state   2: excitation energy (eV) =    3.1544
 Total energy for state  2:                 -1855.41920710 au
    Multiplicity: Triplet
    Trans. Mom.:  0.0000 X   0.0000 Y   0.0000 Z
    Strength   :     0.0000000000
    D(158) --> V(  1) amplitude =  0.9920

 Excited state   3: excitation energy (eV) =    3.1552
 Total energy for state  3:                 -1855.41917752 au
    Multiplicity: Singlet
    Trans. Mom.: -0.1374 X   0.0892 Y  -0.1127 Z
    Strength   :     0.0030549870
    D(158) --> V(  1) amplitude =  0.9976

 Excited state   4: excitation energy (eV) =    3.3701
 Total energy for state  4:                 -1855.41127874 au
    Multiplicity: Triplet
    Trans. Mom.:  0.0000 X   0.0000 Y   0.0000 Z
    Strength   :     0.0000000000
    D(157) --> V(  2) amplitude = -0.6020
    D(157) --> V(  3) amplitude =  0.5612

 Excited state   5: excitation energy (eV) =    3.4345
 Total energy for state  5:                 -1855.40891314 au
    Multiplicity: Triplet
    Trans. Mom.:  0.0000 X   0.0000 Y   0.0000 Z
    Strength   :     0.0000000000
    D(158) --> V(  6) amplitude =  0.2660
    D(158) --> V(  7) amplitude = -0.5895
    D(158) --> V(  8) amplitude =  0.5880

 Excited state   6: excitation energy (eV) =    3.7422
 Total energy for state  6:                 -1855.39760590 au
    Multiplicity: Triplet
    Trans. Mom.:  0.0000 X   0.0000 Y   0.0000 Z
    Strength   :     0.0000000000
    D(158) --> V(  4) amplitude = -0.2431
    D(158) --> V(  5) amplitude = -0.2369
    D(158) --> V(  6) amplitude =  0.4099
    D(158) --> V(  7) amplitude = -0.3676
    D(158) --> V(  8) amplitude = -0.4785

 Excited state   7: excitation energy (eV) =    3.7996
 Total energy for state  7:                 -1855.39549716 au
    Multiplicity: Triplet
    Trans. Mom.:  0.0000 X   0.0000 Y   0.0000 Z
    Strength   :     0.0000000000
    D(148) --> V(  1) amplitude =  0.3514
    D(149) --> V(  1) amplitude = -0.4773
    D(157) --> V(  1) amplitude =  0.6642

 Excited state   8: excitation energy (eV) =    3.9142
 Total energy for state  8:                 -1855.39128604 au
    Multiplicity: Singlet
    Trans. Mom.: -0.4750 X  -0.1025 Y  -0.2414 Z
    Strength   :     0.0282342439
    D(157) --> V(  1) amplitude =  0.9887

 Excited state   9: excitation energy (eV) =    4.0858
 Total energy for state  9:                 -1855.38497971 au
    Multiplicity: Singlet
    Trans. Mom.:  0.0229 X  -0.0466 Y   0.0301 Z
    Strength   :     0.0003599791
    D(158) --> V(  2) amplitude =  0.9406
    D(158) --> V(  3) amplitude = -0.3040

 Excited state  10: excitation energy (eV) =    4.1886
 Total energy for state 10:                 -1855.38120217 au
    Multiplicity: Singlet
    Trans. Mom.:  0.0142 X   0.1627 Y  -0.1769 Z
    Strength   :     0.0059465314
    D(158) --> V(  3) amplitude = -0.3441
    D(158) --> V(  4) amplitude =  0.7182
    D(158) --> V(  5) amplitude =  0.5103
    D(158) --> V(  6) amplitude =  0.2678

 Excited state  11: excitation energy (eV) =    4.2240
 Total energy for state 11:                 -1855.37989923 au
    Multiplicity: Singlet
    Trans. Mom.:  0.2496 X  -0.0671 Y   0.3957 Z
    Strength   :     0.0231212719
    D(158) --> V(  3) amplitude =  0.4550
    D(158) --> V(  4) amplitude =  0.3601
    D(158) --> V(  6) amplitude = -0.7302

 Excited state  12: excitation energy (eV) =    4.5236
 Total energy for state 12:                 -1855.36888975 au
    Multiplicity: Singlet
    Trans. Mom.:  0.6356 X  -0.0579 Y  -0.6467 Z
    Strength   :     0.0914966499
    D(158) --> V(  3) amplitude =  0.5990
    D(158) --> V(  4) amplitude =  0.2496
    D(158) --> V(  6) amplitude =  0.4191
    D(158) --> V(  7) amplitude = -0.5345

 ---------------------------------------------------

                    Orbital Energies (a.u.)
 --------------------------------------------------------------

 Alpha MOs
 -- Occupied --
-14.680 -14.667 -14.664 -10.528 -10.527 -10.511 -10.510 -10.509
-10.509 -10.501 -10.496 -10.495 -10.495 -10.492 -10.491 -10.484
-10.476 -10.475 -10.472 -10.470 -10.470 -10.469 -10.467 -10.463
-10.463 -10.462 -10.462 -10.461 -10.461 -10.460 -10.460 -10.460
-10.460 -10.459 -10.459 -10.452 -10.452 -10.444 -10.444 -10.444
-10.443 -10.442 -10.439 -10.437 -10.436 -10.425 -10.425  -1.096
 -1.040  -1.028  -1.024  -1.000  -0.984  -0.964  -0.960  -0.959
 -0.935  -0.929  -0.910  -0.898  -0.887  -0.881  -0.856  -0.852
 -0.850  -0.842  -0.838  -0.821  -0.818  -0.806  -0.792  -0.774
 -0.769  -0.743  -0.728  -0.725  -0.713  -0.712  -0.703  -0.686
 -0.678  -0.674  -0.670  -0.668  -0.664  -0.644  -0.617  -0.617
 -0.613  -0.608  -0.595  -0.584  -0.576  -0.567  -0.561  -0.557
 -0.538  -0.536  -0.532  -0.529  -0.527  -0.525  -0.524  -0.521
 -0.513  -0.507  -0.505  -0.503  -0.497  -0.496  -0.494  -0.489
 -0.487  -0.484  -0.482  -0.480  -0.471  -0.462  -0.459  -0.452
 -0.450  -0.450  -0.447  -0.443  -0.438  -0.437  -0.433  -0.431
 -0.428  -0.427  -0.426  -0.422  -0.418  -0.415  -0.413  -0.409
 -0.406  -0.403  -0.401  -0.398  -0.398  -0.396  -0.391  -0.375
 -0.374  -0.366  -0.346  -0.333  -0.323  -0.310  -0.303  -0.299
 -0.298  -0.290  -0.289  -0.286  -0.267  -0.220

          Ground-State Mulliken Net Atomic Charges

     Atom                 Charge (a.u.)
  ----------------------------------------
      1 N                    -0.706642
      2 C                     0.298971
      3 C                     0.306398
      4 C                     0.137719
      5 C                    -0.310219
      6 H                     0.227391
      7 C                    -0.249708
      8 H                     0.225973
      9 C                    -0.246647
     10 H                     0.232089
     11 C                    -0.309827
     12 H                     0.260467
     13 C                     0.127446
     14 C                    -0.308024
     15 H                     0.226638
     16 C                    -0.251164
     17 H                     0.224467
     18 C                    -0.243351
     19 H                     0.229021
     20 C                    -0.318193
     21 H                     0.271810
     22 C                     0.164123
     23 C                    -0.264950
     24 H                     0.284494
     25 C                    -0.223632
     26 H                     0.256755
     27 C                    -0.316610
     28 H                     0.237228
     29 C                     0.226807
     30 C                     0.056960
     31 C                    -0.520621
     32 H                     0.259913
     33 H                     0.259431
     34 C                    -0.204264
     35 C                    -0.555553
     36 H                     0.266445
     37 H                     0.265765
     38 C                     0.140902
     39 C                    -0.316770
     40 H                     0.266914
     41 C                     0.070302
     42 C                     0.009689
     43 N                    -0.190563
     44 C                     0.078291
     45 C                    -0.291911
     46 H                     0.289575
     47 C                     0.158109
     48 C                     0.008313
     49 N                    -0.190962
     50 C                    -0.404673
     51 C                     0.015388
     52 C                    -0.264056
     53 H                     0.246026
     54 C                    -0.247507
     55 H                     0.244520
     56 C                    -0.223889
     57 H                     0.245840
     58 C                    -0.341493
     59 H                     0.234064
     60 C                     0.158735
     61 C                     0.120889
     62 C                    -0.332499
     63 H                     0.233882
     64 C                    -0.233159
     65 H                     0.245513
     66 C                    -0.235926
     67 H                     0.243465
     68 C                    -0.298861
     69 H                     0.234300
     70 C                     0.169568
     71 C                    -0.627336
     72 H                     0.227035
     73 H                     0.227208
     74 H                     0.237897
     75 C                    -0.603551
     76 H                     0.224601
     77 H                     0.231537
     78 H                     0.223688
  ----------------------------------------
  Sum of atomic charges =     0.000000

                    Cartesian Multipole Moments
 -----------------------------------------------------------------
    Charge (ESU x 10^10)
                 0.0000
    Dipole Moment (Debye)
         X       2.6978      Y      -3.8043      Z       6.5520
       Tot       8.0424
    Quadrupole Moments (Debye-Ang)
        XX    -287.1982     XY      41.7598     YY    -286.2043
        XZ     -62.8734     YZ      49.3091     ZZ    -334.8849

 Total job time:  6896.94s(wall), 27338.01s(cpu)
        *  Thank you very much for using Q-Chem.  Have a nice day.  *
