 Q-Chem 5.0, Q-Chem, Inc., Pleasanton, CA (2017)
 Q-Chem 5.0.1 for Intel X86 EM64T Linux

User input:
--------------------------------------------------------------
$solvent
dielectric      4.33
dielectric_infi 1.83
$end

$rem
threads 8
jobtype	sp
method PBEh-3c
basis def2-mSVP
mem_static	1024
mem_total	14000
sym_ignore	true
cis_n_roots             2
cis_singlets            true
cis_triplets		false
rpa                     false
calc_soc 		true
cis_moments             true
cis_relaxed_density	true
solvent_method		pcm
$end

$pcm
StateSpecific   1
ChargeSeparation Excited
$end

$molecule
read moms1opt_eth.mol
$end

--------------------------------------------------------------

   15   -1855.5452655195      4.87E-09 Convergence criterion met
 Total energy in the final basis set = -1855.54526552
 Total job time:  3902.45s(wall), 10267.16s(cpu)
        *  Thank you very much for using Q-Chem.  Have a nice day.  *
 Q-Chem 5.0, Q-Chem, Inc., Pleasanton, CA (2017)
 Q-Chem 5.0.1 for Intel X86 EM64T Linux

User input:
--------------------------------------------------------------
$rem
threads 8
jobtype sp
method PBEh-3c
basis def2-mSVP
mem_static      1024
mem_total       14000
sym_ignore      true
cis_n_roots             6
cis_singlets            true
cis_triplets            true
rpa                     false
calc_soc                true
cis_moments             true
cis_relaxed_density     true
solvent_method          pcm
$end

$molecule
read
$end

$pcm
statespecific           Marcus
$end

$solvent
dielectric      4.33
dielectric_infi 1.83
$end

--------------------------------------------------------------

             Standard Nuclear Orientation (Angstroms)
    I     Atom           X                Y                Z
 ----------------------------------------------------------------
    1      N       0.0000000000     0.0000000000     0.0000000000
    2      C       0.0000000000     0.0000000000     1.3770890000
    3      C       1.1567923110     0.0000000000    -0.7491350963
    4      C       1.2058863045    -0.1672386962     2.0820817411
    5      C       1.1364061149    -0.2142290646     3.4672825082
    6      H       2.0375636971    -0.3683582224     4.0443938589
    7      C      -0.0640349784    -0.0733931934     4.1440449322
    8      H      -0.0778148792    -0.1154564885     5.2246467773
    9      C      -1.2457263278     0.1327841173     3.4355590476
   10      H      -2.1828181864     0.2666128678     3.9574801303
   11      C      -1.2200910578     0.1704820751     2.0640214929
   12      H      -2.1367656221     0.3430601634     1.5205995496
   13      C       2.4067432957    -0.1057821940    -0.1061650646
   14      C       3.5418739477    -0.0710217647    -0.9021468357
   15      H       4.5177859722    -0.1625124941    -0.4462566148
   16      C       3.4653329585     0.0635113818    -2.2793099288
   17      H       4.3732393512     0.0932906548    -2.8661501093
   18      C       2.2233814124     0.1435554990    -2.9047763756
   19      H       2.1522133352     0.2379762644    -3.9791467393
   20      C       1.0759879560     0.0997725297    -2.1535236540
   21      H       0.1200763926     0.1550020226    -2.6517017018
   22      C      -1.2675842769    -0.0053096093    -0.6723900291
   23      C      -1.7221173130     1.1503444699    -1.2612525037
   24      H      -1.1060889614     2.0373328282    -1.1932104961
   25      C      -2.0063297753    -1.1756228685    -0.7210783591
   26      H      -1.6465183300    -2.0896606569    -0.2668340722
   27      C      -3.2317014632    -1.1191474201    -1.3469871281
   28      H      -3.8475591508    -2.0097390530    -1.3627009804
   29      C      -2.9282077663     1.1943298209    -1.9653789995
   30      C      -3.7224003295     0.0418707568    -1.9596849135
   31      C      -5.1200096085    -0.0281617583    -2.5022800810
   32      H      -5.6080143625    -0.8980505196    -2.0582590520
   33      H      -5.1133153553    -0.2023784929    -3.5820016739
   34      C       2.5258835341    -0.3526407117     1.3785216651
   35      C      -5.9275390821     1.2331859645    -2.1964012004
   36      H      -6.9891143347     0.9830519879    -2.1638768099
   37      H      -5.6718073752     1.5801311549    -1.1885760292
   38      C      -5.7018004977     2.2628410964    -3.2597336239
   39      C      -6.7740798528     2.6661961088    -4.0072944735
   40      H      -7.7634418097     2.3306628610    -3.7152851776
   41      C      -6.6643622755     3.4597748982    -5.1688028240
   42      C      -7.8052276078     3.8421197204    -5.8755420691
   43      N      -8.7630127207     4.1521323338    -6.4610833900
   44      C      -5.3280700642     3.7990560327    -5.5969745018
   45      C      -4.2426678671     3.4027115077    -4.8038307540
   46      H      -3.2633011951     3.7181681550    -5.1376015067
   47      C      -4.3680384486     2.6654799684    -3.6447816396
   48      C      -5.0916221121     4.5108911762    -6.7813751260
   49      N      -4.8971078832     5.1018848034    -7.7626261428
   50      C      -3.1508100165     2.5186600242    -2.7300393789
   51      C      -1.8554042541     2.7611048376    -3.5034676215
   52      C      -1.3158339654     1.9676417238    -4.4979147226
   53      H      -1.8351502331     1.0798067619    -4.8392770521
   54      C      -0.1042749538     2.3418975955    -5.0660875443
   55      H       0.3269880751     1.7410453688    -5.8565643038
   56      C      -1.2025580242     3.9111367415    -3.0691787614
   57      C       0.0096124396     4.2845984181    -3.6338013889
   58      H       0.5255742841     5.1777758224    -3.3041757053
   59      C       0.5527265996     3.4910174923    -4.6344515155
   60      H       1.4944648518     3.7707093675    -5.0883641893
   61      C      -1.9927224344     4.5115277918    -1.9983689960
   62      C      -1.7833314147     5.6653604044    -1.2588513839
   63      H      -0.9207758379     6.2937621732    -1.4432371037
   64      C      -2.7055843569     6.0084068845    -0.2792620064
   65      H      -2.5618021330     6.9089584643     0.3032789888
   66      C      -3.8171865628     5.2058163024    -0.0455246665
   67      H      -4.5309857034     5.4872007160     0.7178997032
   68      C      -4.0259555943     4.0489680649    -0.7874317715
   69      H      -4.9006303701     3.4396804363    -0.6015577476
   70      C      -3.1099046218     3.7066279716    -1.7641359409
   71      C       3.5708374170     0.5968430797     1.9887010678
   72      H       4.5465787267     0.4590635340     1.5266506410
   73      H       3.7026828983     0.4073420457     3.0525382525
   74      H       3.2751133236     1.6375135908     1.8614104941
   75      C       2.9668306281    -1.8210248310     1.5771869589
   76      H       3.9304021096    -1.9976118275     1.0997823378
   77      H       3.0677573105    -2.0475254687     2.6385992284
   78      H       2.2412508312    -2.5128009853     1.1489930238
 ----------------------------------------------------------------

   15   -1855.5274051099      5.48E-09 Convergence criterion met
 Total energy in the final basis set = -1855.52740511

         TDDFT/TDA Excitation Energies
 ---------------------------------------------------

 Excited state   1: excitation energy (eV) =    2.2114
 Total energy for state  1:                 -1855.44613640 au
    Multiplicity: Triplet
    Trans. Mom.:  0.0000 X   0.0000 Y   0.0000 Z
    Strength   :     0.0000000000
    D(158) --> V(  1) amplitude =  0.9986

 Excited state   2: excitation energy (eV) =    2.2134
 Total energy for state  2:                 -1855.44606596 au
    Multiplicity: Singlet
    Trans. Mom.: -0.1664 X   0.0990 Y  -0.1294 Z
    Strength   :     0.0029409287
    D(158) --> V(  1) amplitude =  0.9988

 Excited state   3: excitation energy (eV) =    2.9475
 Total energy for state  3:                 -1855.41908555 au
    Multiplicity: Triplet
    Trans. Mom.:  0.0000 X   0.0000 Y   0.0000 Z
    Strength   :     0.0000000000
    D(149) --> V(  1) amplitude =  0.6249
    D(150) --> V(  1) amplitude =  0.5602
    D(151) --> V(  1) amplitude = -0.2968
    D(157) --> V(  1) amplitude =  0.2493

 Excited state   4: excitation energy (eV) =    3.3212
 Total energy for state  4:                 -1855.40535318 au
    Multiplicity: Triplet
    Trans. Mom.:  0.0000 X   0.0000 Y   0.0000 Z
    Strength   :     0.0000000000
    D(149) --> V(  1) amplitude = -0.2160
    D(157) --> V(  1) amplitude =  0.5766
    D(157) --> V(  2) amplitude = -0.2533
    D(157) --> V(  3) amplitude =  0.5123

 Excited state   5: excitation energy (eV) =    3.4300
 Total energy for state  5:                 -1855.40135461 au
    Multiplicity: Singlet
    Trans. Mom.: -0.3886 X  -0.1145 Y  -0.2491 Z
    Strength   :     0.0190066177
    D(157) --> V(  1) amplitude =  0.9532

 Excited state   6: excitation energy (eV) =    3.4301
 Total energy for state  6:                 -1855.40135034 au
    Multiplicity: Triplet
    Trans. Mom.:  0.0000 X   0.0000 Y   0.0000 Z
    Strength   :     0.0000000000
    D(158) --> V(  6) amplitude =  0.2266
    D(158) --> V( 10) amplitude = -0.7849
    D(158) --> V( 11) amplitude = -0.2245

 Excited state   7: excitation energy (eV) =    3.4410
 Total energy for state  7:                 -1855.40095043 au
    Multiplicity: Triplet
    Trans. Mom.:  0.0000 X   0.0000 Y   0.0000 Z
    Strength   :     0.0000000000
    D(157) --> V(  1) amplitude = -0.2157
    D(158) --> V(  2) amplitude =  0.9331

 Excited state   8: excitation energy (eV) =    3.4451
 Total energy for state  8:                 -1855.40080134 au
    Multiplicity: Singlet
    Trans. Mom.:  0.0805 X  -0.0665 Y   0.0766 Z
    Strength   :     0.0014153495
    D(158) --> V(  2) amplitude =  0.9755

 Excited state   9: excitation energy (eV) =    3.4599
 Total energy for state  9:                 -1855.40025688 au
    Multiplicity: Triplet
    Trans. Mom.:  0.0000 X   0.0000 Y   0.0000 Z
    Strength   :     0.0000000000
    D(157) --> V(  1) amplitude =  0.6506
    D(157) --> V(  2) amplitude =  0.2323
    D(157) --> V(  3) amplitude = -0.4547
    D(158) --> V(  2) amplitude =  0.2683

 Excited state  10: excitation energy (eV) =    3.7945
 Total energy for state 10:                 -1855.38795843 au
    Multiplicity: Singlet
    Trans. Mom.:  0.1273 X  -0.0718 Y   0.1470 Z
    Strength   :     0.0039929938
    D(158) --> V(  3) amplitude =  0.9379
    D(158) --> V(  6) amplitude =  0.2718

 Excited state  11: excitation energy (eV) =    3.9636
 Total energy for state 11:                 -1855.38174572 au
    Multiplicity: Singlet
    Trans. Mom.:  0.1822 X   0.0747 Y   0.0767 Z
    Strength   :     0.0043353762
    D(158) --> V(  4) amplitude = -0.3247
    D(158) --> V(  5) amplitude =  0.9120

 Excited state  12: excitation energy (eV) =    3.9859
 Total energy for state 12:                 -1855.38092443 au
    Multiplicity: Singlet
    Trans. Mom.:  0.0911 X   0.0179 Y  -0.0286 Z
    Strength   :     0.0009216102
    D(153) --> V(  1) amplitude =  0.5795
    D(154) --> V(  1) amplitude = -0.4790
    D(155) --> V(  1) amplitude =  0.2150
    D(156) --> V(  1) amplitude =  0.5827

 ---------------------------------------------------

                    Orbital Energies (a.u.)
 --------------------------------------------------------------

 Alpha MOs
 -- Occupied --
-14.693 -14.689 -14.665 -10.547 -10.546 -10.538 -10.535 -10.523
-10.515 -10.514 -10.509 -10.507 -10.487 -10.481 -10.480 -10.479
-10.478 -10.473 -10.473 -10.472 -10.472 -10.471 -10.466 -10.464
-10.463 -10.462 -10.462 -10.462 -10.462 -10.460 -10.459 -10.453
-10.453 -10.451 -10.451 -10.436 -10.435 -10.428 -10.427 -10.427
-10.427 -10.426 -10.426 -10.420 -10.419 -10.406 -10.406  -1.082
 -1.063  -1.050  -1.035  -1.014  -0.980  -0.966  -0.951  -0.943
 -0.938  -0.936  -0.908  -0.893  -0.890  -0.883  -0.854  -0.851
 -0.844  -0.835  -0.822  -0.821  -0.809  -0.801  -0.791  -0.774
 -0.751  -0.749  -0.730  -0.727  -0.704  -0.701  -0.694  -0.691
 -0.680  -0.676  -0.669  -0.661  -0.654  -0.643  -0.617  -0.610
 -0.601  -0.600  -0.599  -0.586  -0.576  -0.569  -0.558  -0.555
 -0.545  -0.535  -0.530  -0.528  -0.520  -0.518  -0.515  -0.510
 -0.508  -0.508  -0.506  -0.503  -0.497  -0.491  -0.487  -0.486
 -0.482  -0.481  -0.477  -0.472  -0.470  -0.467  -0.463  -0.461
 -0.458  -0.456  -0.449  -0.444  -0.436  -0.435  -0.433  -0.432
 -0.428  -0.422  -0.422  -0.420  -0.419  -0.413  -0.410  -0.410
 -0.407  -0.402  -0.400  -0.397  -0.394  -0.386  -0.380  -0.359
 -0.358  -0.352  -0.348  -0.344  -0.333  -0.316  -0.309  -0.293
 -0.292  -0.278  -0.274  -0.270  -0.268  -0.205

          Ground-State Mulliken Net Atomic Charges

     Atom                 Charge (a.u.)
  ----------------------------------------
      1 N                    -0.706795
      2 C                     0.306638
      3 C                     0.313956
      4 C                     0.135298
      5 C                    -0.314069
      6 H                     0.239229
      7 C                    -0.255505
      8 H                     0.233344
      9 C                    -0.252556
     10 H                     0.237170
     11 C                    -0.315387
     12 H                     0.258597
     13 C                     0.126201
     14 C                    -0.311873
     15 H                     0.238999
     16 C                    -0.256632
     17 H                     0.232369
     18 C                    -0.252022
     19 H                     0.232627
     20 C                    -0.321683
     21 H                     0.264612
     22 C                     0.158110
     23 C                    -0.256662
     24 H                     0.286341
     25 C                    -0.220329
     26 H                     0.271026
     27 C                    -0.322491
     28 H                     0.245848
     29 C                     0.226141
     30 C                     0.053148
     31 C                    -0.524749
     32 H                     0.271233
     33 H                     0.253764
     34 C                    -0.198729
     35 C                    -0.559872
     36 H                     0.270259
     37 H                     0.278189
     38 C                     0.135671
     39 C                    -0.323572
     40 H                     0.277765
     41 C                     0.056608
     42 C                     0.010212
     43 N                    -0.212112
     44 C                     0.067816
     45 C                    -0.298269
     46 H                     0.296323
     47 C                     0.165972
     48 C                     0.009642
     49 N                    -0.210624
     50 C                    -0.405195
     51 C                     0.013257
     52 C                    -0.267380
     53 H                     0.250009
     54 C                    -0.248778
     55 H                     0.254623
     56 C                     0.154442
     57 C                    -0.347165
     58 H                     0.245662
     59 C                    -0.232575
     60 H                     0.256728
     61 C                     0.116694
     62 C                    -0.338349
     63 H                     0.246794
     64 C                    -0.242492
     65 H                     0.255910
     66 C                    -0.244512
     67 H                     0.253384
     68 C                    -0.309208
     69 H                     0.240963
     70 C                     0.162662
     71 C                    -0.633067
     72 H                     0.231569
     73 H                     0.232221
     74 H                     0.235945
     75 C                    -0.610882
     76 H                     0.227977
     77 H                     0.227957
     78 H                     0.233629
  ----------------------------------------
  Sum of atomic charges =     0.000000

                    Cartesian Multipole Moments
 -----------------------------------------------------------------
    Charge (ESU x 10^10)
                 0.0000
    Dipole Moment (Debye)
         X       4.6909      Y      -5.4081      Z       8.4523
       Tot      11.0767
    Quadrupole Moments (Debye-Ang)
        XX    -297.3364     XY      53.1487     YY    -293.2604
        XZ     -75.2293     YZ      59.8318     ZZ    -343.8870

 Total job time:  6880.39s(wall), 26476.69s(cpu)
        *  Thank you very much for using Q-Chem.  Have a nice day.  *
