 Q-Chem 5.0, Q-Chem, Inc., Pleasanton, CA (2017)
 Q-Chem 5.0.1 for Intel X86 EM64T Linux

User input:
--------------------------------------------------------------
$solvent
dielectric      2.38
dielectric_infi 2.25
$end

$rem
threads 8
jobtype	sp
method PBEh-3c
basis def2-mSVP
mem_static	1024
mem_total	14000
sym_ignore	true
cis_n_roots             2
cis_singlets            true
cis_triplets		false
rpa                     false
calc_soc 		true
cis_moments             true
cis_relaxed_density	true
solvent_method		pcm
$end

$pcm
StateSpecific   1
ChargeSeparation Excited
$end

$molecule
read moms1opt_tol.mol
$end

--------------------------------------------------------------

   15   -1855.5379283581      5.02E-09 Convergence criterion met
 Total energy in the final basis set = -1855.53792836
 Total job time:  4587.05s(wall), 13721.91s(cpu)
        *  Thank you very much for using Q-Chem.  Have a nice day.  *
 Q-Chem 5.0, Q-Chem, Inc., Pleasanton, CA (2017)
 Q-Chem 5.0.1 for Intel X86 EM64T Linux

User input:
--------------------------------------------------------------
$rem
threads 8
jobtype sp
method PBEh-3c
basis def2-mSVP
mem_static      1024
mem_total       14000
sym_ignore      true
cis_n_roots             6
cis_singlets            true
cis_triplets            true
rpa                     false
calc_soc                true
cis_moments             true
cis_relaxed_density     true
solvent_method          pcm
$end

$molecule
read
$end

$pcm
statespecific           Marcus
$end

$solvent
dielectric      2.38
dielectric_infi 2.25
$end

--------------------------------------------------------------

             Standard Nuclear Orientation (Angstroms)
    I     Atom           X                Y                Z
 ----------------------------------------------------------------
    1      N       0.0000000000     0.0000000000     0.0000000000
    2      C       0.0000000000     0.0000000000     1.3777940000
    3      C       1.1582939163     0.0000000000    -0.7474551064
    4      C       1.2028907607    -0.1808698506     2.0839154358
    5      C       1.1311082926    -0.2263101379     3.4689172746
    6      H       2.0297665848    -0.3904260099     4.0471580676
    7      C      -0.0680179056    -0.0704370924     4.1446174175
    8      H      -0.0832545019    -0.1114165094     5.2252203347
    9      C      -1.2456466760     0.1511436374     3.4350913649
   10      H      -2.1812002989     0.2993537234     3.9557833668
   11      C      -1.2179473285     0.1878832393     2.0634578745
   12      H      -2.1302974962     0.3753933491     1.5177581630
   13      C       2.4063009813    -0.1218839390    -0.1029935401
   14      C       3.5425605545    -0.0911840833    -0.8968894792
   15      H       4.5167718082    -0.1968960956    -0.4406154582
   16      C       3.4698903827     0.0581619532    -2.2728517643
   17      H       4.3791682144     0.0853933400    -2.8576852199
   18      C       2.2304576972     0.1573521630    -2.8992593456
   19      H       2.1608009436     0.2664628106    -3.9721612748
   20      C       1.0811767388     0.1152473144    -2.1508230605
   21      H       0.1273000258     0.1870696149    -2.6508838727
   22      C      -1.2681914881    -0.0053643238    -0.6706748286
   23      C      -1.7136427770     1.1436216604    -1.2795566547
   24      H      -1.0923556311     2.0281151964    -1.2280930308
   25      C      -2.0193229773    -1.1691658861    -0.6945567089
   26      H      -1.6676601259    -2.0786184538    -0.2248870714
   27      C      -3.2458366306    -1.1114777875    -1.3179326275
   28      H      -3.8710398240    -1.9956903399    -1.3152828368
   29      C      -2.9196700397     1.1861691525    -1.9831037034
   30      C      -3.7265898720     0.0424870981    -1.9518732057
   31      C      -5.1274419578    -0.0188038698    -2.4860670870
   32      H      -5.6238973458    -0.8763047482    -2.0267856215
   33      H      -5.1286010726    -0.2065686262    -3.5633862255
   34      C       2.5209546297    -0.3825038082     1.3803469267
   35      C      -5.9144132476     1.2601170384    -2.1959847851
   36      H      -6.9791576699     1.0258668013    -2.1494001424
   37      H      -5.6442779226     1.6190347461    -1.1951485228
   38      C      -5.6824726533     2.2660758601    -3.2799847032
   39      C      -6.7544698169     2.6734072062    -4.0269232611
   40      H      -7.7476558070     2.3664553885    -3.7167884753
   41      C      -6.6416469136     3.4321409906    -5.2086701123
   42      C      -7.7869960057     3.8177580567    -5.9104819682
   43      N      -8.7514248325     4.1250324118    -6.4839239889
   44      C      -5.3039364493     3.7303569674    -5.6607423891
   45      C      -4.2196414124     3.3351459193    -4.8716088146
   46      H      -3.2385569060     3.6235124079    -5.2244650356
   47      C      -4.3453363197     2.6288335343    -3.6908521181
   48      C      -5.0614095426     4.4028809926    -6.8696250211
   49      N      -4.8524325437     4.9584034657    -7.8670154732
   50      C      -3.1273365006     2.4945328213    -2.7791581715
   51      C      -1.8310459094     2.6965044323    -3.5621005633
   52      C      -1.3145213234     1.8758687132    -4.5466192693
   53      H      -1.8586639648     0.9974429780    -4.8731959985
   54      C      -0.1009211714     2.2169134639    -5.1310406823
   55      H       0.3076024482     1.5992912850    -5.9208162890
   56      C       0.5821441311     3.3590945761    -4.7228604415
   57      H       1.5232128023     3.6156309100    -5.1916732903
   58      C       0.0626564190     4.1791910094    -3.7313605942
   59      H       0.5971354779     5.0692026540    -3.4235464582
   60      C      -1.1527199417     3.8408700617    -3.1520879615
   61      C      -1.9277228265     4.4793616083    -2.0925481525
   62      C      -1.6959798595     5.6455738462    -1.3802097907
   63      H      -0.8221629153     6.2535794989    -1.5794012474
   64      C      -2.6123090401     6.0306201190    -0.4111601114
   65      H      -2.4522976032     6.9426573212     0.1487283737
   66      C      -3.7416135090     5.2578536745    -0.1627594096
   67      H      -4.4532640669     5.5748717416     0.5885899714
   68      C      -3.9731917499     4.0886371584    -0.8768287423
   69      H      -4.8646502896     3.5060794574    -0.6855111382
   70      C      -3.0611772686     3.7026695748    -1.8412071552
   71      C       3.5801589634     0.5458609434     1.9977621344
   72      H       4.5552925066     0.3942725873     1.5388836804
   73      H       3.7068626968     0.3502277663     3.0610536285
   74      H       3.3032899829     1.5921185625     1.8748282763
   75      C       2.9386151376    -1.8588311289     1.5692435426
   76      H       3.8987998631    -2.0488715501     1.0901066359
   77      H       2.2029403078    -2.5374556571     1.1373270426
   78      H       3.0362140356    -2.0954933501     2.6288603689
 ----------------------------------------------------------------

   15   -1855.5365985458      5.06E-09 Convergence criterion met
 Total energy in the final basis set = -1855.53659855

         TDDFT/TDA Excitation Energies
 ---------------------------------------------------

 Excited state   1: excitation energy (eV) =    2.9754
 Total energy for state  1:                 -1855.42725290 au
    Multiplicity: Triplet
    Trans. Mom.:  0.0000 X   0.0000 Y   0.0000 Z
    Strength   :     0.0000000000
    D(148) --> V(  1) amplitude =  0.2124
    D(149) --> V(  1) amplitude =  0.2667
    D(150) --> V(  1) amplitude = -0.5514
    D(151) --> V(  1) amplitude = -0.5978
    D(153) --> V(  1) amplitude =  0.2513

 Excited state   2: excitation energy (eV) =    3.0980
 Total energy for state  2:                 -1855.42274889 au
    Multiplicity: Triplet
    Trans. Mom.:  0.0000 X   0.0000 Y   0.0000 Z
    Strength   :     0.0000000000
    D(158) --> V(  1) amplitude =  0.9885

 Excited state   3: excitation energy (eV) =    3.0980
 Total energy for state  3:                 -1855.42274864 au
    Multiplicity: Singlet
    Trans. Mom.: -0.1386 X   0.0890 Y  -0.1111 Z
    Strength   :     0.0029967492
    D(158) --> V(  1) amplitude =  0.9978

 Excited state   4: excitation energy (eV) =    3.3701
 Total energy for state  4:                 -1855.41275127 au
    Multiplicity: Triplet
    Trans. Mom.:  0.0000 X   0.0000 Y   0.0000 Z
    Strength   :     0.0000000000
    D(157) --> V(  2) amplitude = -0.5799
    D(157) --> V(  3) amplitude =  0.5802

 Excited state   5: excitation energy (eV) =    3.4323
 Total energy for state  5:                 -1855.41046364 au
    Multiplicity: Triplet
    Trans. Mom.:  0.0000 X   0.0000 Y   0.0000 Z
    Strength   :     0.0000000000
    D(158) --> V(  6) amplitude =  0.2587
    D(158) --> V(  7) amplitude = -0.5640
    D(158) --> V(  8) amplitude =  0.6143

 Excited state   6: excitation energy (eV) =    3.7480
 Total energy for state  6:                 -1855.39886116 au
    Multiplicity: Triplet
    Trans. Mom.:  0.0000 X   0.0000 Y   0.0000 Z
    Strength   :     0.0000000000
    D(157) --> V(  1) amplitude = -0.2615
    D(158) --> V(  5) amplitude = -0.2326
    D(158) --> V(  6) amplitude =  0.3863
    D(158) --> V(  7) amplitude = -0.3820
    D(158) --> V(  8) amplitude = -0.4522

 Excited state   7: excitation energy (eV) =    3.7754
 Total energy for state  7:                 -1855.39785421 au
    Multiplicity: Triplet
    Trans. Mom.:  0.0000 X   0.0000 Y   0.0000 Z
    Strength   :     0.0000000000
    D(148) --> V(  1) amplitude =  0.3219
    D(149) --> V(  1) amplitude = -0.4220
    D(157) --> V(  1) amplitude =  0.6781

 Excited state   8: excitation energy (eV) =    3.8711
 Total energy for state  8:                 -1855.39433935 au
    Multiplicity: Singlet
    Trans. Mom.: -0.4752 X  -0.1113 Y  -0.2508 Z
    Strength   :     0.0285541189
    D(157) --> V(  1) amplitude =  0.9891

 Excited state   9: excitation energy (eV) =    4.0674
 Total energy for state  9:                 -1855.38712373 au
    Multiplicity: Singlet
    Trans. Mom.:  0.0387 X  -0.0446 Y   0.0293 Z
    Strength   :     0.0004333347
    D(158) --> V(  2) amplitude =  0.9404
    D(158) --> V(  3) amplitude = -0.3160

 Excited state  10: excitation energy (eV) =    4.1824
 Total energy for state 10:                 -1855.38289708 au
    Multiplicity: Singlet
    Trans. Mom.:  0.0078 X  -0.1662 Y   0.2300 Z
    Strength   :     0.0082549048
    D(158) --> V(  3) amplitude =  0.4088
    D(158) --> V(  4) amplitude = -0.6298
    D(158) --> V(  5) amplitude = -0.5273
    D(158) --> V(  6) amplitude = -0.3544

 Excited state  11: excitation energy (eV) =    4.2245
 Total energy for state 11:                 -1855.38134973 au
    Multiplicity: Singlet
    Trans. Mom.:  0.2353 X  -0.0440 Y   0.3484 Z
    Strength   :     0.0184873786
    D(158) --> V(  3) amplitude =  0.4217
    D(158) --> V(  4) amplitude =  0.4298
    D(158) --> V(  5) amplitude =  0.2737
    D(158) --> V(  6) amplitude = -0.6756

 Excited state  12: excitation energy (eV) =    4.5102
 Total energy for state 12:                 -1855.37085344 au
    Multiplicity: Singlet
    Trans. Mom.:  0.5861 X  -0.0492 Y  -0.6076 Z
    Strength   :     0.0790182237
    D(158) --> V(  3) amplitude =  0.6146
    D(158) --> V(  4) amplitude =  0.2584
    D(158) --> V(  6) amplitude =  0.4499
    D(158) --> V(  7) amplitude = -0.4973

 ---------------------------------------------------

                    Orbital Energies (a.u.)
 --------------------------------------------------------------

 Alpha MOs
 -- Occupied --
-14.679 -14.670 -14.666 -10.530 -10.528 -10.514 -10.511 -10.510
-10.509 -10.502 -10.495 -10.494 -10.494 -10.493 -10.492 -10.484
-10.475 -10.475 -10.471 -10.470 -10.469 -10.467 -10.466 -10.463
-10.462 -10.462 -10.461 -10.460 -10.460 -10.460 -10.459 -10.459
-10.459 -10.458 -10.458 -10.451 -10.451 -10.443 -10.443 -10.443
-10.442 -10.441 -10.439 -10.436 -10.435 -10.424 -10.424  -1.095
 -1.042  -1.028  -1.026  -1.001  -0.983  -0.964  -0.959  -0.958
 -0.935  -0.929  -0.909  -0.898  -0.887  -0.881  -0.855  -0.851
 -0.849  -0.842  -0.837  -0.821  -0.817  -0.806  -0.792  -0.774
 -0.768  -0.743  -0.727  -0.725  -0.712  -0.711  -0.703  -0.686
 -0.678  -0.674  -0.669  -0.667  -0.663  -0.643  -0.616  -0.616
 -0.613  -0.607  -0.595  -0.584  -0.575  -0.567  -0.560  -0.556
 -0.537  -0.536  -0.532  -0.529  -0.527  -0.524  -0.523  -0.520
 -0.512  -0.507  -0.504  -0.502  -0.497  -0.496  -0.493  -0.489
 -0.486  -0.483  -0.481  -0.479  -0.470  -0.462  -0.459  -0.452
 -0.452  -0.449  -0.448  -0.443  -0.437  -0.437  -0.434  -0.431
 -0.427  -0.427  -0.426  -0.421  -0.418  -0.414  -0.413  -0.408
 -0.406  -0.403  -0.401  -0.399  -0.397  -0.395  -0.391  -0.374
 -0.374  -0.365  -0.346  -0.334  -0.324  -0.310  -0.304  -0.298
 -0.297  -0.289  -0.289  -0.285  -0.267  -0.219

          Ground-State Mulliken Net Atomic Charges

     Atom                 Charge (a.u.)
  ----------------------------------------
      1 N                    -0.706029
      2 C                     0.299518
      3 C                     0.306582
      4 C                     0.136060
      5 C                    -0.311806
      6 H                     0.230518
      7 C                    -0.252535
      8 H                     0.228271
      9 C                    -0.248823
     10 H                     0.234474
     11 C                    -0.311958
     12 H                     0.261549
     13 C                     0.126178
     14 C                    -0.309707
     15 H                     0.229826
     16 C                    -0.253836
     17 H                     0.226984
     18 C                    -0.246139
     19 H                     0.231303
     20 C                    -0.319188
     21 H                     0.271303
     22 C                     0.161399
     23 C                    -0.262427
     24 H                     0.284108
     25 C                    -0.224653
     26 H                     0.258965
     27 C                    -0.318464
     28 H                     0.239945
     29 C                     0.226509
     30 C                     0.056128
     31 C                    -0.521344
     32 H                     0.262038
     33 H                     0.259736
     34 C                    -0.202762
     35 C                    -0.556962
     36 H                     0.268447
     37 H                     0.267801
     38 C                     0.140107
     39 C                    -0.317390
     40 H                     0.269978
     41 C                     0.068775
     42 C                     0.011382
     43 N                    -0.195975
     44 C                     0.077175
     45 C                    -0.292891
     46 H                     0.290881
     47 C                     0.161027
     48 C                     0.009983
     49 N                    -0.196290
     50 C                    -0.404381
     51 C                     0.013958
     52 C                    -0.264820
     53 H                     0.247761
     54 C                    -0.248080
     55 H                     0.246492
     56 C                    -0.226710
     57 H                     0.248224
     58 C                    -0.343535
     59 H                     0.237001
     60 C                     0.158030
     61 C                     0.119370
     62 C                    -0.334063
     63 H                     0.236931
     64 C                    -0.235793
     65 H                     0.247942
     66 C                    -0.238163
     67 H                     0.245949
     68 C                    -0.301572
     69 H                     0.237006
     70 C                     0.168563
     71 C                    -0.628754
     72 H                     0.228326
     73 H                     0.228556
     74 H                     0.237402
     75 C                    -0.605731
     76 H                     0.225600
     77 H                     0.231818
     78 H                     0.224903
  ----------------------------------------
  Sum of atomic charges =     0.000000

                    Cartesian Multipole Moments
 -----------------------------------------------------------------
    Charge (ESU x 10^10)
                 0.0000
    Dipole Moment (Debye)
         X       2.8372      Y      -4.0610      Z       6.7724
       Tot       8.3908
    Quadrupole Moments (Debye-Ang)
        XX    -287.7571     XY      43.6206     YY    -287.6634
        XZ     -64.2683     YZ      51.3023     ZZ    -335.8477

 Total job time:  7341.58s(wall), 29033.36s(cpu)
        *  Thank you very much for using Q-Chem.  Have a nice day.  *
