 Q-Chem 5.0, Q-Chem, Inc., Pleasanton, CA (2017)
 Q-Chem 5.0.1 for Intel X86 EM64T Linux

User input:
--------------------------------------------------------------
$solvent
dielectric      8.93
dielectric_infi 2.03
$end

$rem
threads 8
jobtype	sp
method PBEh-3c
basis def2-mSVP
mem_static	1024
mem_total	14000
sym_ignore	true
cis_n_roots             2
cis_singlets            true
cis_triplets		false
rpa                     false
calc_soc 		true
cis_moments             true
cis_relaxed_density	true
solvent_method		pcm
$end

$pcm
StateSpecific   1
ChargeSeparation Excited
$end

$molecule
read moms1opt_dcm.mol
$end

--------------------------------------------------------------

   15   -1855.5502099386      4.66E-09 Convergence criterion met
 Total energy in the final basis set = -1855.55020994

                    Orbital Energies (a.u.)
 --------------------------------------------------------------

 Alpha MOs
 -- Occupied --
-14.681 -14.672 -14.669 -10.527 -10.526 -10.518 -10.516 -10.507
-10.506 -10.497 -10.497 -10.497 -10.493 -10.489 -10.488 -10.481
-10.472 -10.472 -10.469 -10.468 -10.467 -10.466 -10.459 -10.458
-10.458 -10.458 -10.458 -10.457 -10.456 -10.456 -10.456 -10.456
-10.456 -10.455 -10.454 -10.454 -10.452 -10.446 -10.445 -10.445
-10.445 -10.443 -10.442 -10.438 -10.438 -10.425 -10.424  -1.097
 -1.042  -1.029  -1.026  -0.998  -0.982  -0.961  -0.961  -0.960
 -0.933  -0.925  -0.911  -0.895  -0.884  -0.878  -0.855  -0.850
 -0.848  -0.839  -0.839  -0.819  -0.817  -0.805  -0.790  -0.773
 -0.769  -0.739  -0.727  -0.722  -0.714  -0.710  -0.701  -0.683
 -0.674  -0.671  -0.670  -0.663  -0.662  -0.641  -0.618  -0.618
 -0.612  -0.604  -0.592  -0.581  -0.571  -0.563  -0.557  -0.553
 -0.538  -0.534  -0.529  -0.528  -0.526  -0.523  -0.521  -0.517
 -0.508  -0.504  -0.502  -0.501  -0.494  -0.493  -0.492  -0.489
 -0.486  -0.481  -0.481  -0.479  -0.468  -0.462  -0.457  -0.456
 -0.454  -0.451  -0.449  -0.440  -0.438  -0.438  -0.433  -0.428
 -0.427  -0.424  -0.423  -0.422  -0.418  -0.413  -0.411  -0.406
 -0.405  -0.403  -0.401  -0.398  -0.396  -0.392  -0.388  -0.376
 -0.376  -0.366  -0.343  -0.331  -0.321  -0.309  -0.302  -0.298
 -0.296  -0.293  -0.289  -0.287  -0.265  -0.222

          Ground-State Mulliken Net Atomic Charges

     Atom                 Charge (a.u.)
  ----------------------------------------
      1 N                    -0.701475
      2 C                     0.298432
      3 C                     0.302898
      4 C                     0.126223
      5 C                    -0.320291
      6 H                     0.244609
      7 C                    -0.267196
      8 H                     0.239132
      9 C                    -0.259535
     10 H                     0.247103
     11 C                    -0.323076
     12 H                     0.269658
     13 C                     0.118756
     14 C                    -0.318884
     15 H                     0.244016
     16 C                    -0.267839
     17 H                     0.238706
     18 C                    -0.259594
     19 H                     0.245418
     20 C                    -0.326095
     21 H                     0.274749
     22 C                     0.151924
     23 C                    -0.257450
     24 H                     0.280890
     25 C                    -0.233293
     26 H                     0.265470
     27 C                    -0.326560
     28 H                     0.253262
     29 C                     0.224281
     30 C                     0.054578
     31 C                    -0.524623
     32 H                     0.270680
     33 H                     0.264854
     34 C                    -0.197714
     35 C                    -0.562522
     36 H                     0.280040
     37 H                     0.274962
     38 C                     0.137650
     39 C                    -0.316830
     40 H                     0.284688
     41 C                     0.065405
     42 C                     0.022234
     43 N                    -0.221081
     44 C                     0.075301
     45 C                     0.019833
     46 N                    -0.221914
     47 C                    -0.295180
     48 H                     0.295111
     49 C                     0.174715
     50 C                    -0.401167
     51 C                     0.008737
     52 C                    -0.267495
     53 H                     0.256878
     54 C                    -0.255217
     55 H                     0.256045
     56 C                     0.154705
     57 C                    -0.352103
     58 H                     0.249815
     59 C                    -0.241052
     60 H                     0.257666
     61 C                     0.113381
     62 C                    -0.342313
     63 H                     0.249752
     64 C                    -0.247135
     65 H                     0.257923
     66 C                    -0.248383
     67 H                     0.256897
     68 C                    -0.312491
     69 H                     0.252870
     70 C                     0.160700
     71 C                    -0.634933
     72 H                     0.234912
     73 H                     0.234824
     74 H                     0.234640
     75 C                    -0.615040
     76 H                     0.230862
     77 H                     0.230667
     78 H                     0.231629
  ----------------------------------------
  Sum of atomic charges =     0.000000

                    Cartesian Multipole Moments
 -----------------------------------------------------------------
    Charge (ESU x 10^10)
                 0.0000
    Dipole Moment (Debye)
         X       2.7115      Y      -5.1593      Z       7.2028
       Tot       9.2656
    Quadrupole Moments (Debye-Ang)
        XX    -286.0143     XY      51.3063     YY    -295.7808
        XZ     -66.8663     YZ      59.9368     ZZ    -336.9924

 Total job time:  3770.50s(wall), 10377.76s(cpu)
        *  Thank you very much for using Q-Chem.  Have a nice day.  *
 Q-Chem 5.0, Q-Chem, Inc., Pleasanton, CA (2017)
 Q-Chem 5.0.1 for Intel X86 EM64T Linux

User input:
--------------------------------------------------------------
$rem
threads 8
jobtype sp
method PBEh-3c
basis def2-mSVP
mem_static      1024
mem_total       14000
sym_ignore      true
cis_n_roots             6
cis_singlets            true
cis_triplets            true
rpa                     false
calc_soc                true
cis_moments             true
cis_relaxed_density     true
solvent_method          pcm
$end

$molecule
read
$end

$pcm
statespecific           Marcus
$end

$solvent
dielectric      8.93
dielectric_infi 2.03
$end

--------------------------------------------------------------

             Standard Nuclear Orientation (Angstroms)
    I     Atom           X                Y                Z
 ----------------------------------------------------------------
    1      N       0.0000000000     0.0000000000     0.0000000000
    2      C       0.0000000000     0.0000000000     1.3763950000
    3      C       1.1549931432     0.0000000000    -0.7510460521
    4      C       1.2096032524    -0.1453103451     2.0802652093
    5      C       1.1432089881    -0.1910817987     3.4657492795
    6      H       2.0482783030    -0.3264415034     4.0415351557
    7      C      -0.0590532312    -0.0726339166     4.1436321981
    8      H      -0.0709156660    -0.1137045621     5.2243099874
    9      C      -1.2459448353     0.1081339851     3.4360314635
   10      H      -2.1851922416     0.2212545751     3.9590648352
   11      C      -1.2228743454     0.1454555977     2.0644590882
   12      H      -2.1445940273     0.2953896635     1.5227788214
   13      C       2.4073332541    -0.0823831450    -0.1100428505
   14      C       3.5408179448    -0.0439484700    -0.9087107522
   15      H       4.5187753129    -0.1147240451    -0.4530806600
   16      C       3.4595317889     0.0680062501    -2.2875389891
   17      H       4.3656714118     0.1001998661    -2.8769711620
   18      C       2.2148276387     0.1214807141    -2.9114992791
   19      H       2.1413463536     0.1941693089    -3.9875516379
   20      C       1.0696722580     0.0770364487    -2.1567853148
   21      H       0.1116304155     0.1088359744    -2.6529787864
   22      C      -1.2659561587     0.0014318738    -0.6756842858
   23      C      -1.7244299391     1.1700051501    -1.2350665754
   24      H      -1.1129993888     2.0575110844    -1.1378660046
   25      C      -1.9944331914    -1.1724435611    -0.7626990159
   26      H      -1.6302715601    -2.0955557691    -0.3308976140
   27      C      -3.2151918522    -1.1083042081    -1.3974134718
   28      H      -3.8235531972    -2.0029970652    -1.4429317934
   29      C      -2.9267468065     1.2247999200    -1.9450723060
   30      C      -3.7097163865     0.0655495634    -1.9816296998
   31      C      -5.0997066927    -0.0039785239    -2.5441028021
   32      H      -5.5826117574    -0.8929307767    -2.1342780776
   33      H      -5.0770576945    -0.1454444242    -3.6285349959
   34      C       2.5330249334    -0.3038516731     1.3774792302
   35      C      -5.9288784190     1.2349874766    -2.2083971898
   36      H      -6.9871628915     0.9697706237    -2.1997155761
   37      H      -5.6923497150     1.5532477468    -1.1872571035
   38      C      -5.7037045147     2.3034250640    -3.2333355620
   39      C      -6.7732220981     2.7194136174    -3.9775633256
   40      H      -7.7604174463     2.3576394741    -3.7108404861
   41      C      -6.6613229042     3.5619603179    -5.1055815063
   42      C      -7.7953476803     3.9591776705    -5.8124436398
   43      N      -8.7441370745     4.2873280086    -6.4044163589
   44      C      -5.3252161097     3.9383227208    -5.5027682276
   45      C      -5.0898253238     4.7025884935    -6.6521871524
   46      N      -4.9040273834     5.3394742879    -7.6070980384
   47      C      -4.2423033432     3.5249424884    -4.7109183414
   48      H      -3.2634631850     3.8662940885    -5.0195629707
   49      C      -4.3715488603     2.7424320136    -3.5839583361
   50      C      -3.1598616386     2.5729597731    -2.6628511411
   51      C      -1.8621591311     2.8670463041    -3.4147245611
   52      C      -1.2932490352     2.1154109875    -4.4252630511
   53      H      -1.7843892761     1.2231616160    -4.7956761889
   54      C      -0.0826437859     2.5320407944    -4.9655700284
   55      H       0.3757284851     1.9598396486    -5.7619057422
   56      C      -1.2395580312     4.0171287389    -2.9381247412
   57      C      -0.0297540410     4.4347763757    -3.4764651163
   58      H       0.4637844599     5.3268963104    -3.1113939049
   59      C       0.5429461236     3.6828164753    -4.4929682482
   60      H       1.4857044924     3.9938558962    -4.9237696406
   61      C      -2.0509098188     4.5638510414    -1.8543626627
   62      C      -1.8706663694     5.6952939606    -1.0732433107
   63      H      -1.0205844139     6.3477693947    -1.2298770902
   64      C      -2.8037579836     5.9813173042    -0.0852000603
   65      H      -2.6814991605     6.8623567716     0.5311839891
   66      C      -3.8957575917     5.1438194187     0.1173631145
   67      H      -4.6152899200     5.3777200742     0.8913879885
   68      C      -4.0751945841     4.0096033124    -0.6668416733
   69      H      -4.9316039453     3.3695756939    -0.4999692018
   70      C      -3.1502975838     3.7260080926    -1.6540023520
   71      C       3.5502969219     0.6842166004     1.9741361710
   72      H       4.5272042982     0.5716879230     1.5076559088
   73      H       3.6903798066     0.5060392841     3.0389567592
   74      H       3.2216036458     1.7141334634     1.8393145613
   75      C       3.0174195850    -1.7552175854     1.5969294590
   76      H       3.9869668194    -1.9080453732     1.1234976695
   77      H       3.1237078083    -1.9628861630     2.6615173691
   78      H       2.3128003100    -2.4731962859     1.1768495992
 ----------------------------------------------------------------

   15   -1855.5275809922      5.39E-09 Convergence criterion met
 Total energy in the final basis set = -1855.52758099

         TDDFT/TDA Excitation Energies
 ---------------------------------------------------

 Excited state   1: excitation energy (eV) =    1.9614
 Total energy for state  1:                 -1855.45549956 au
    Multiplicity: Triplet
    Trans. Mom.:  0.0000 X   0.0000 Y   0.0000 Z
    Strength   :     0.0000000000
    D(158) --> V(  1) amplitude =  0.9989

 Excited state   2: excitation energy (eV) =    1.9633
 Total energy for state  2:                 -1855.45543097 au
    Multiplicity: Singlet
    Trans. Mom.: -0.1795 X   0.1067 Y  -0.1365 Z
    Strength   :     0.0029943233
    D(158) --> V(  1) amplitude =  0.9990

 Excited state   3: excitation energy (eV) =    2.9240
 Total energy for state  3:                 -1855.42012493 au
    Multiplicity: Triplet
    Trans. Mom.:  0.0000 X   0.0000 Y   0.0000 Z
    Strength   :     0.0000000000
    D(149) --> V(  1) amplitude =  0.6539
    D(150) --> V(  1) amplitude =  0.5101
    D(151) --> V(  1) amplitude =  0.2380
    D(156) --> V(  1) amplitude =  0.2580

 Excited state   4: excitation energy (eV) =    3.2374
 Total energy for state  4:                 -1855.40861025 au
    Multiplicity: Triplet
    Trans. Mom.:  0.0000 X   0.0000 Y   0.0000 Z
    Strength   :     0.0000000000
    D(149) --> V(  1) amplitude = -0.2987
    D(154) --> V(  1) amplitude =  0.2201
    D(156) --> V(  1) amplitude =  0.6401
    D(157) --> V(  1) amplitude = -0.3969

 Excited state   5: excitation energy (eV) =    3.2564
 Total energy for state  5:                 -1855.40791112 au
    Multiplicity: Triplet
    Trans. Mom.:  0.0000 X   0.0000 Y   0.0000 Z
    Strength   :     0.0000000000
    D(158) --> V(  2) amplitude =  0.9609

 Excited state   6: excitation energy (eV) =    3.2579
 Total energy for state  6:                 -1855.40785383 au
    Multiplicity: Singlet
    Trans. Mom.:  0.0901 X  -0.0631 Y   0.0799 Z
    Strength   :     0.0014749159
    D(158) --> V(  2) amplitude =  0.9856

 Excited state   7: excitation energy (eV) =    3.2774
 Total energy for state  7:                 -1855.40713725 au
    Multiplicity: Singlet
    Trans. Mom.: -0.3771 X  -0.1186 Y  -0.2606 Z
    Strength   :     0.0179975449
    D(154) --> V(  1) amplitude =  0.2837
    D(155) --> V(  1) amplitude =  0.2455
    D(156) --> V(  1) amplitude =  0.7779
    D(157) --> V(  1) amplitude = -0.4903

 Excited state   8: excitation energy (eV) =    3.4032
 Total energy for state  8:                 -1855.40251661 au
    Multiplicity: Triplet
    Trans. Mom.:  0.0000 X   0.0000 Y   0.0000 Z
    Strength   :     0.0000000000
    D(154) --> V(  3) amplitude =  0.3386
    D(156) --> V(  1) amplitude = -0.2943
    D(156) --> V(  2) amplitude = -0.2373
    D(156) --> V(  3) amplitude =  0.5039
    D(157) --> V(  3) amplitude = -0.3268

 Excited state   9: excitation energy (eV) =    3.4232
 Total energy for state  9:                 -1855.40178248 au
    Multiplicity: Triplet
    Trans. Mom.:  0.0000 X   0.0000 Y   0.0000 Z
    Strength   :     0.0000000000
    D(158) --> V(  6) amplitude =  0.2393
    D(158) --> V( 10) amplitude = -0.8058

 Excited state  10: excitation energy (eV) =    3.6854
 Total energy for state 10:                 -1855.39214330 au
    Multiplicity: Singlet
    Trans. Mom.:  0.0768 X  -0.0479 Y   0.1044 Z
    Strength   :     0.0017245992
    D(158) --> V(  3) amplitude =  0.9644

 Excited state  11: excitation energy (eV) =    3.7625
 Total energy for state 11:                 -1855.38931046 au
    Multiplicity: Singlet
    Trans. Mom.:  0.0538 X   0.0090 Y  -0.0148 Z
    Strength   :     0.0002946653
    D(153) --> V(  1) amplitude =  0.3061
    D(155) --> V(  1) amplitude =  0.2574
    D(156) --> V(  1) amplitude =  0.4350
    D(157) --> V(  1) amplitude =  0.7760

 Excited state  12: excitation energy (eV) =    3.8359
 Total energy for state 12:                 -1855.38661289 au
    Multiplicity: Singlet
    Trans. Mom.:  0.1576 X   0.0329 Y   0.0201 Z
    Strength   :     0.0024723512
    D(152) --> V(  1) amplitude =  0.3131
    D(153) --> V(  1) amplitude =  0.4883
    D(154) --> V(  1) amplitude = -0.6371
    D(155) --> V(  1) amplitude =  0.2745
    D(157) --> V(  1) amplitude = -0.3909

 ---------------------------------------------------
