 Q-Chem 5.0, Q-Chem, Inc., Pleasanton, CA (2017)
 Q-Chem 5.0.1 for Intel X86 EM64T Linux

User input:
--------------------------------------------------------------
$solvent
dielectric      2.38
dielectric_infi 2.25
$end

$rem
threads 8
jobtype	sp
method PBEh-3c
basis def2-mSVP
mem_static	1024
mem_total	14000
sym_ignore	true
cis_n_roots             2
cis_singlets            false
cis_triplets		true
rpa                     false
calc_soc 		true
cis_moments             true
cis_relaxed_density	true
solvent_method		pcm
$end

$pcm
StateSpecific   1
ChargeSeparation Excited
$end

$molecule
read ut1opt_tol.mol
$end

--------------------------------------------------------------

   15   -1855.5379214005      5.02E-09 Convergence criterion met
 Total energy in the final basis set = -1855.53792140
 Total job time:  4055.44s(wall), 12157.15s(cpu)
        *  Thank you very much for using Q-Chem.  Have a nice day.  *
 Q-Chem 5.0, Q-Chem, Inc., Pleasanton, CA (2017)
 Q-Chem 5.0.1 for Intel X86 EM64T Linux

User input:
--------------------------------------------------------------
$rem
threads 8
jobtype sp
method PBEh-3c
basis def2-mSVP
mem_static      1024
mem_total       14000
sym_ignore      true
cis_n_roots             6
cis_singlets            true
cis_triplets            true
rpa                     false
calc_soc                true
cis_moments             true
cis_relaxed_density     true
solvent_method          pcm
$end

$molecule
read
$end

$pcm
statespecific           Marcus
$end

$solvent
dielectric      2.38
dielectric_infi 2.25
$end

--------------------------------------------------------------

             Standard Nuclear Orientation (Angstroms)
    I     Atom           X                Y                Z
 ----------------------------------------------------------------
    1      N       0.0000000000     0.0000000000     0.0000000000
    2      C       0.0000000000     0.0000000000     1.3778280000
    3      C       1.1583555731     0.0000000000    -0.7474241079
    4      C       1.2028895854    -0.1808422151     2.0839166862
    5      C       1.1311813382    -0.2263148130     3.4689253169
    6      H       2.0299452345    -0.3902136002     4.0470710215
    7      C      -0.0679099397    -0.0706092050     4.1446973304
    8      H      -0.0830943188    -0.1116254373     5.2253005867
    9      C      -1.2455754831     0.1508914494     3.4352112364
   10      H      -2.1811226003     0.2990127514     3.9559381142
   11      C      -1.2179272093     0.1877446639     2.0635677567
   12      H      -2.1303131138     0.3752931174     1.5179488899
   13      C       2.4063309853    -0.1219135452    -0.1029834137
   14      C       3.5425809725    -0.0915612268    -0.8969500934
   15      H       4.5167792540    -0.1973841889    -0.4406646177
   16      C       3.4699123965     0.0576718493    -2.2729045737
   17      H       4.3791742346     0.0846859392    -2.8577748210
   18      C       2.2304754392     0.1570858467    -2.8992637793
   19      H       2.1607972524     0.2661821122    -3.9721657793
   20      C       1.0812125667     0.1151875416    -2.1507734661
   21      H       0.1273133337     0.1871319281    -2.6507694494
   22      C      -1.2680394623    -0.0047545468    -0.6707144783
   23      C      -1.7128842918     1.1446368028    -1.2793716360
   24      H      -1.0910769127     2.0287473117    -1.2277150045
   25      C      -2.0199167545    -1.1680573367    -0.6948471107
   26      H      -1.6687875728    -2.0778444198    -0.2254238174
   27      C      -3.2464430820    -1.1094431977    -1.3180873935
   28      H      -3.8721858105    -1.9932731058    -1.3155461712
   29      C      -2.9189351339     1.1881057843    -1.9827901535
   30      C      -3.7266031362     0.0449327130    -1.9517719415
   31      C      -5.1275846945    -0.0156756369    -2.4857771661
   32      H      -5.6245147073    -0.8725651879    -2.0258803168
   33      H      -5.1290796717    -0.2040714966    -3.5629654025
   34      C       2.5210780432    -0.3819763053     1.3804706673
   35      C      -5.9137310574     1.2638643196    -2.1962201166
   36      H      -6.9786482289     1.0303370787    -2.1499788955
   37      H      -5.6436607026     1.6226690599    -1.1953466411
   38      C      -5.6807623229     2.2694407801    -3.2803294626
   39      C      -6.7522208420     2.6767814537    -4.0280024542
   40      H      -7.7456615085     2.3703846253    -3.7181661850
   41      C      -6.6385367727     3.4348211073    -5.2101467411
   42      C      -7.7833495910     3.8203890288    -5.9127864206
   43      N      -8.7474053922     4.1276301124    -6.4868893597
   44      C      -5.3004345374     3.7321468543    -5.6617830134
   45      C      -4.2167224015     3.3368832129    -4.8719905012
   46      H      -3.2353554859     3.6246185852    -5.2245427485
   47      C      -4.3432223133     2.6314801039    -3.6907271711
   48      C      -5.0571097747     4.4040218856    -6.8708638491
   49      N      -4.8476008913     4.9590052285    -7.8684393456
   50      C      -3.1256941143     2.4969276215    -2.7785845763
   51      C      -1.8292083612     2.6984299301    -3.5613169103
   52      C      -1.3127215556     1.8775403012    -4.5456647991
   53      H      -1.8569967755     0.9991660791    -4.8721724207
   54      C      -0.0989766535     2.2182263961    -5.1299757649
   55      H       0.3095140971     1.6003974667    -5.9196052780
   56      C      -1.1506416334     3.8426510735    -3.1513542337
   57      C       0.0648731610     4.1806362463    -3.7305348005
   58      H       0.5995235698     5.0705546399    -3.4227451112
   59      C       0.5842974726     3.3603133399    -4.7218763048
   60      H       1.5254712893     3.6165815118    -5.1906201194
   61      C      -1.9255461792     4.4813831889    -2.0918847429
   62      C      -1.6934641676     5.6475924505    -1.3796616276
   63      H      -0.8195028774     6.2553478290    -1.5789781076
   64      C      -2.6096457574     6.0329774310    -0.4106084736
   65      H      -2.4493806480     6.9450156573     0.1492019176
   66      C      -3.7391178407     5.2605086706    -0.1621167477
   67      H      -4.4506654819     5.5777278408     0.5892466669
   68      C      -3.9710347202     4.0913101031    -0.8761133452
   69      H      -4.8626367405     3.5090473312    -0.6846344607
   70      C      -3.0592011150     3.7049777224    -1.8405124261
   71      C       3.5793710882     0.5476656118     1.9976538419
   72      H       4.5546795967     0.3969258822     1.5388487058
   73      H       3.7061374966     0.3524751841     3.0610397050
   74      H       3.3014814246     1.5936139033     1.8743735327
   75      C       2.9399267187    -1.8577796613     1.5700928843
   76      H       3.9004035633    -2.0472720822     1.0913336762
   77      H       2.2049257494    -2.5371581261     1.1382169009
   78      H       3.0374370205    -2.0940010667     2.6298121104
 ----------------------------------------------------------------

   15   -1855.5379175252      5.06E-09 Convergence criterion met
 Total energy in the final basis set = -1855.53791753

         TDDFT/TDA Excitation Energies
 ---------------------------------------------------

 Excited state   1: excitation energy (eV) =    2.9765
 Total energy for state  1:                 -1855.42853470 au
    Multiplicity: Triplet
    Trans. Mom.:  0.0000 X   0.0000 Y   0.0000 Z
    Strength   :     0.0000000000
    D(148) --> V(  1) amplitude =  0.2159
    D(149) --> V(  1) amplitude =  0.2351
    D(150) --> V(  1) amplitude = -0.5334
    D(151) --> V(  1) amplitude = -0.6016
    D(153) --> V(  1) amplitude =  0.3075

 Excited state   2: excitation energy (eV) =    3.1682
 Total energy for state  2:                 -1855.42149010 au
    Multiplicity: Triplet
    Trans. Mom.:  0.0000 X   0.0000 Y   0.0000 Z
    Strength   :     0.0000000000
    D(158) --> V(  1) amplitude =  0.9929

 Excited state   3: excitation energy (eV) =    3.1690
 Total energy for state  3:                 -1855.42145847 au
    Multiplicity: Singlet
    Trans. Mom.: -0.1374 X   0.0891 Y  -0.1105 Z
    Strength   :     0.0030297804
    D(158) --> V(  1) amplitude =  0.9977

 Excited state   4: excitation energy (eV) =    3.3713
 Total energy for state  4:                 -1855.41402512 au
    Multiplicity: Triplet
    Trans. Mom.:  0.0000 X   0.0000 Y   0.0000 Z
    Strength   :     0.0000000000
    D(157) --> V(  2) amplitude = -0.6031
    D(157) --> V(  3) amplitude =  0.5605

 Excited state   5: excitation energy (eV) =    3.4321
 Total energy for state  5:                 -1855.41179161 au
    Multiplicity: Triplet
    Trans. Mom.:  0.0000 X   0.0000 Y   0.0000 Z
    Strength   :     0.0000000000
    D(158) --> V(  6) amplitude =  0.2676
    D(158) --> V(  7) amplitude = -0.6077
    D(158) --> V(  8) amplitude =  0.5683

 Excited state   6: excitation energy (eV) =    3.7514
 Total energy for state  6:                 -1855.40005513 au
    Multiplicity: Triplet
    Trans. Mom.:  0.0000 X   0.0000 Y   0.0000 Z
    Strength   :     0.0000000000
    D(158) --> V(  5) amplitude = -0.2251
    D(158) --> V(  6) amplitude =  0.4049
    D(158) --> V(  7) amplitude = -0.3669
    D(158) --> V(  8) amplitude = -0.5084

 Excited state   7: excitation energy (eV) =    3.7886
 Total energy for state  7:                 -1855.39869027 au
    Multiplicity: Triplet
    Trans. Mom.:  0.0000 X   0.0000 Y   0.0000 Z
    Strength   :     0.0000000000
    D(148) --> V(  1) amplitude =  0.3538
    D(149) --> V(  1) amplitude = -0.4848
    D(157) --> V(  1) amplitude =  0.6543

 Excited state   8: excitation energy (eV) =    3.9008
 Total energy for state  8:                 -1855.39456731 au
    Multiplicity: Singlet
    Trans. Mom.: -0.4821 X  -0.1103 Y  -0.2511 Z
    Strength   :     0.0294044739
    D(157) --> V(  1) amplitude =  0.9889

 Excited state   9: excitation energy (eV) =    4.1152
 Total energy for state  9:                 -1855.38668822 au
    Multiplicity: Singlet
    Trans. Mom.:  0.0328 X  -0.0418 Y   0.0167 Z
    Strength   :     0.0003126543
    D(158) --> V(  2) amplitude =  0.9401
    D(158) --> V(  3) amplitude = -0.3120

 Excited state  10: excitation energy (eV) =    4.2050
 Total energy for state 10:                 -1855.38338584 au
    Multiplicity: Singlet
    Trans. Mom.:  0.0078 X   0.1665 Y  -0.2383 Z
    Strength   :     0.0087094912
    D(158) --> V(  3) amplitude = -0.3839
    D(158) --> V(  4) amplitude =  0.6932
    D(158) --> V(  5) amplitude =  0.4771
    D(158) --> V(  6) amplitude =  0.3324

 Excited state  11: excitation energy (eV) =    4.2515
 Total energy for state 11:                 -1855.38167774 au
    Multiplicity: Singlet
    Trans. Mom.:  0.2126 X  -0.0463 Y   0.3683 Z
    Strength   :     0.0190568836
    D(158) --> V(  3) amplitude =  0.4035
    D(158) --> V(  4) amplitude =  0.4137
    D(158) --> V(  5) amplitude =  0.2180
    D(158) --> V(  6) amplitude = -0.7127

 Excited state  12: excitation energy (eV) =    4.5387
 Total energy for state 12:                 -1855.37112274 au
    Multiplicity: Singlet
    Trans. Mom.:  0.7676 X  -0.0564 Y  -0.8222 Z
    Strength   :     0.1410442476
    D(158) --> V(  3) amplitude =  0.5497
    D(158) --> V(  4) amplitude =  0.2401
    D(158) --> V(  6) amplitude =  0.3566
    D(158) --> V(  7) amplitude = -0.6207

 ---------------------------------------------------

                    Orbital Energies (a.u.)
 --------------------------------------------------------------

 Alpha MOs
 -- Occupied --
-14.680 -14.668 -14.665 -10.528 -10.526 -10.512 -10.510 -10.509
-10.508 -10.500 -10.496 -10.495 -10.495 -10.491 -10.490 -10.484
-10.475 -10.474 -10.471 -10.470 -10.469 -10.469 -10.466 -10.462
-10.462 -10.461 -10.461 -10.460 -10.460 -10.459 -10.459 -10.459
-10.459 -10.459 -10.459 -10.452 -10.452 -10.445 -10.445 -10.444
-10.443 -10.442 -10.440 -10.437 -10.436 -10.425 -10.425  -1.096
 -1.040  -1.028  -1.025  -1.000  -0.984  -0.964  -0.960  -0.959
 -0.935  -0.929  -0.910  -0.897  -0.887  -0.881  -0.856  -0.851
 -0.850  -0.842  -0.838  -0.820  -0.818  -0.806  -0.792  -0.774
 -0.769  -0.742  -0.728  -0.724  -0.713  -0.712  -0.703  -0.686
 -0.677  -0.673  -0.670  -0.667  -0.663  -0.643  -0.617  -0.617
 -0.613  -0.607  -0.595  -0.583  -0.575  -0.566  -0.560  -0.556
 -0.538  -0.536  -0.532  -0.529  -0.526  -0.525  -0.523  -0.520
 -0.512  -0.506  -0.504  -0.502  -0.496  -0.496  -0.494  -0.489
 -0.487  -0.483  -0.482  -0.480  -0.471  -0.462  -0.459  -0.452
 -0.451  -0.450  -0.448  -0.443  -0.438  -0.437  -0.433  -0.431
 -0.427  -0.426  -0.426  -0.422  -0.418  -0.414  -0.413  -0.408
 -0.405  -0.403  -0.401  -0.398  -0.398  -0.395  -0.390  -0.375
 -0.375  -0.366  -0.345  -0.333  -0.323  -0.310  -0.303  -0.299
 -0.298  -0.290  -0.289  -0.287  -0.267  -0.221

          Ground-State Mulliken Net Atomic Charges

     Atom                 Charge (a.u.)
  ----------------------------------------
      1 N                    -0.705797
      2 C                     0.298866
      3 C                     0.305848
      4 C                     0.135684
      5 C                    -0.311998
      6 H                     0.230495
      7 C                    -0.252988
      8 H                     0.228376
      9 C                    -0.249044
     10 H                     0.234839
     11 C                    -0.312181
     12 H                     0.262151
     13 C                     0.125832
     14 C                    -0.309963
     15 H                     0.229765
     16 C                    -0.254252
     17 H                     0.227105
     18 C                    -0.246327
     19 H                     0.231851
     20 C                    -0.319355
     21 H                     0.272046
     22 C                     0.161308
     23 C                    -0.262690
     24 H                     0.283858
     25 C                    -0.225428
     26 H                     0.258347
     27 C                    -0.318493
     28 H                     0.240108
     29 C                     0.226325
     30 C                     0.056241
     31 C                    -0.521158
     32 H                     0.261735
     33 H                     0.260463
     34 C                    -0.202780
     35 C                    -0.557108
     36 H                     0.268787
     37 H                     0.267352
     38 C                     0.140403
     39 C                    -0.316955
     40 H                     0.269998
     41 C                     0.069588
     42 C                     0.011890
     43 N                    -0.195922
     44 C                     0.077905
     45 C                    -0.292592
     46 H                     0.290682
     47 C                     0.161308
     48 C                     0.010407
     49 N                    -0.196376
     50 C                    -0.404083
     51 C                     0.013572
     52 C                    -0.264778
     53 H                     0.248086
     54 C                    -0.248294
     55 H                     0.246316
     56 C                     0.158174
     57 C                    -0.343671
     58 H                     0.236944
     59 C                    -0.226927
     60 H                     0.248023
     61 C                     0.119215
     62 C                    -0.334049
     63 H                     0.236776
     64 C                    -0.235807
     65 H                     0.247808
     66 C                    -0.238111
     67 H                     0.245889
     68 C                    -0.301616
     69 H                     0.237436
     70 C                     0.168850
     71 C                    -0.628700
     72 H                     0.228366
     73 H                     0.228547
     74 H                     0.237395
     75 C                    -0.605791
     76 H                     0.225646
     77 H                     0.231699
     78 H                     0.224929
  ----------------------------------------
  Sum of atomic charges =     0.000000

                    Cartesian Multipole Moments
 -----------------------------------------------------------------
    Charge (ESU x 10^10)
                 0.0000
    Dipole Moment (Debye)
         X       2.6911      Y      -3.9955      Z       6.6732
       Tot       8.2303
    Quadrupole Moments (Debye-Ang)
        XX    -286.9385     XY      43.1578     YY    -287.4916
        XZ     -63.6112     YZ      51.0119     ZZ    -335.4484

 Total job time:  7607.31s(wall), 28931.26s(cpu)
        *  Thank you very much for using Q-Chem.  Have a nice day.  *
