 Q-Chem 5.0, Q-Chem, Inc., Pleasanton, CA (2017)
 Q-Chem 5.0.1 for Intel X86 EM64T Linux

User input:
--------------------------------------------------------------
$solvent
dielectric      2.38
dielectric_infi 2.25
$end

$rem
threads 8
jobtype	sp
method PBEh-3c
basis def2-mSVP
mem_static	1024
mem_total	14000
sym_ignore	true
cis_n_roots             2
cis_singlets            false
cis_triplets		true
rpa                     false
calc_soc 		true
cis_moments             true
cis_relaxed_density	true
solvent_method		pcm
$end

$pcm
StateSpecific   2
ChargeSeparation Excited
$end

$molecule
read ut1opt_tol.mol
$end

--------------------------------------------------------------

   15   -1855.5379214005      5.02E-09 Convergence criterion met
 Total energy in the final basis set = -1855.53792140
 Total job time:  4089.03s(wall), 12149.24s(cpu)
        *  Thank you very much for using Q-Chem.  Have a nice day.  *
 Q-Chem 5.0, Q-Chem, Inc., Pleasanton, CA (2017)
 Q-Chem 5.0.1 for Intel X86 EM64T Linux

User input:
--------------------------------------------------------------
$rem
threads 8
jobtype sp
method PBEh-3c
basis def2-mSVP
mem_static      1024
mem_total       14000
sym_ignore      true
cis_n_roots             6
cis_singlets            true
cis_triplets            true
rpa                     false
calc_soc                true
cis_moments             true
cis_relaxed_density     true
solvent_method          pcm
$end

$molecule
read
$end

$pcm
statespecific           Marcus
$end

$solvent
dielectric      2.38
dielectric_infi 2.25
$end

--------------------------------------------------------------

             Standard Nuclear Orientation (Angstroms)
    I     Atom           X                Y                Z
 ----------------------------------------------------------------
    1      N       0.0000000000     0.0000000000     0.0000000000
    2      C       0.0000000000     0.0000000000     1.3778280000
    3      C       1.1583555731     0.0000000000    -0.7474241079
    4      C       1.2028895854    -0.1808422151     2.0839166862
    5      C       1.1311813382    -0.2263148130     3.4689253169
    6      H       2.0299452345    -0.3902136002     4.0470710215
    7      C      -0.0679099397    -0.0706092050     4.1446973304
    8      H      -0.0830943188    -0.1116254373     5.2253005867
    9      C      -1.2455754831     0.1508914494     3.4352112364
   10      H      -2.1811226003     0.2990127514     3.9559381142
   11      C      -1.2179272093     0.1877446639     2.0635677567
   12      H      -2.1303131138     0.3752931174     1.5179488899
   13      C       2.4063309853    -0.1219135452    -0.1029834137
   14      C       3.5425809725    -0.0915612268    -0.8969500934
   15      H       4.5167792540    -0.1973841889    -0.4406646177
   16      C       3.4699123965     0.0576718493    -2.2729045737
   17      H       4.3791742346     0.0846859392    -2.8577748210
   18      C       2.2304754392     0.1570858467    -2.8992637793
   19      H       2.1607972524     0.2661821122    -3.9721657793
   20      C       1.0812125667     0.1151875416    -2.1507734661
   21      H       0.1273133337     0.1871319281    -2.6507694494
   22      C      -1.2680394623    -0.0047545468    -0.6707144783
   23      C      -1.7128842918     1.1446368028    -1.2793716360
   24      H      -1.0910769127     2.0287473117    -1.2277150045
   25      C      -2.0199167545    -1.1680573367    -0.6948471107
   26      H      -1.6687875728    -2.0778444198    -0.2254238174
   27      C      -3.2464430820    -1.1094431977    -1.3180873935
   28      H      -3.8721858105    -1.9932731058    -1.3155461712
   29      C      -2.9189351339     1.1881057843    -1.9827901535
   30      C      -3.7266031362     0.0449327130    -1.9517719415
   31      C      -5.1275846945    -0.0156756369    -2.4857771661
   32      H      -5.6245147073    -0.8725651879    -2.0258803168
   33      H      -5.1290796717    -0.2040714966    -3.5629654025
   34      C       2.5210780432    -0.3819763053     1.3804706673
   35      C      -5.9137310574     1.2638643196    -2.1962201166
   36      H      -6.9786482289     1.0303370787    -2.1499788955
   37      H      -5.6436607026     1.6226690599    -1.1953466411
   38      C      -5.6807623229     2.2694407801    -3.2803294626
   39      C      -6.7522208420     2.6767814537    -4.0280024542
   40      H      -7.7456615085     2.3703846253    -3.7181661850
   41      C      -6.6385367727     3.4348211073    -5.2101467411
   42      C      -7.7833495910     3.8203890288    -5.9127864206
   43      N      -8.7474053922     4.1276301124    -6.4868893597
   44      C      -5.3004345374     3.7321468543    -5.6617830134
   45      C      -4.2167224015     3.3368832129    -4.8719905012
   46      H      -3.2353554859     3.6246185852    -5.2245427485
   47      C      -4.3432223133     2.6314801039    -3.6907271711
   48      C      -5.0571097747     4.4040218856    -6.8708638491
   49      N      -4.8476008913     4.9590052285    -7.8684393456
   50      C      -3.1256941143     2.4969276215    -2.7785845763
   51      C      -1.8292083612     2.6984299301    -3.5613169103
   52      C      -1.3127215556     1.8775403012    -4.5456647991
   53      H      -1.8569967755     0.9991660791    -4.8721724207
   54      C      -0.0989766535     2.2182263961    -5.1299757649
   55      H       0.3095140971     1.6003974667    -5.9196052780
   56      C      -1.1506416334     3.8426510735    -3.1513542337
   57      C       0.0648731610     4.1806362463    -3.7305348005
   58      H       0.5995235698     5.0705546399    -3.4227451112
   59      C       0.5842974726     3.3603133399    -4.7218763048
   60      H       1.5254712893     3.6165815118    -5.1906201194
   61      C      -1.9255461792     4.4813831889    -2.0918847429
   62      C      -1.6934641676     5.6475924505    -1.3796616276
   63      H      -0.8195028774     6.2553478290    -1.5789781076
   64      C      -2.6096457574     6.0329774310    -0.4106084736
   65      H      -2.4493806480     6.9450156573     0.1492019176
   66      C      -3.7391178407     5.2605086706    -0.1621167477
   67      H      -4.4506654819     5.5777278408     0.5892466669
   68      C      -3.9710347202     4.0913101031    -0.8761133452
   69      H      -4.8626367405     3.5090473312    -0.6846344607
   70      C      -3.0592011150     3.7049777224    -1.8405124261
   71      C       3.5793710882     0.5476656118     1.9976538419
   72      H       4.5546795967     0.3969258822     1.5388487058
   73      H       3.7061374966     0.3524751841     3.0610397050
   74      H       3.3014814246     1.5936139033     1.8743735327
   75      C       2.9399267187    -1.8577796613     1.5700928843
   76      H       3.9004035633    -2.0472720822     1.0913336762
   77      H       2.2049257494    -2.5371581261     1.1382169009
   78      H       3.0374370205    -2.0940010667     2.6298121104
 ----------------------------------------------------------------

   15   -1855.5366153582      5.06E-09 Convergence criterion met
 Total energy in the final basis set = -1855.53661536

         TDDFT/TDA Excitation Energies
 ---------------------------------------------------

 Excited state   1: excitation energy (eV) =    2.9750
 Total energy for state  1:                 -1855.42728463 au
    Multiplicity: Triplet
    Trans. Mom.:  0.0000 X   0.0000 Y   0.0000 Z
    Strength   :     0.0000000000
    D(148) --> V(  1) amplitude =  0.2121
    D(149) --> V(  1) amplitude =  0.2662
    D(150) --> V(  1) amplitude = -0.5512
    D(151) --> V(  1) amplitude = -0.5982
    D(153) --> V(  1) amplitude =  0.2515

 Excited state   2: excitation energy (eV) =    3.0986
 Total energy for state  2:                 -1855.42274415 au
    Multiplicity: Triplet
    Trans. Mom.:  0.0000 X   0.0000 Y   0.0000 Z
    Strength   :     0.0000000000
    D(158) --> V(  1) amplitude =  0.9885

 Excited state   3: excitation energy (eV) =    3.0986
 Total energy for state  3:                 -1855.42274377 au
    Multiplicity: Singlet
    Trans. Mom.: -0.1390 X   0.0894 Y  -0.1114 Z
    Strength   :     0.0030159927
    D(158) --> V(  1) amplitude =  0.9978

 Excited state   4: excitation energy (eV) =    3.3701
 Total energy for state  4:                 -1855.41276656 au
    Multiplicity: Triplet
    Trans. Mom.:  0.0000 X   0.0000 Y   0.0000 Z
    Strength   :     0.0000000000
    D(157) --> V(  2) amplitude = -0.5803
    D(157) --> V(  3) amplitude =  0.5800

 Excited state   5: excitation energy (eV) =    3.4326
 Total energy for state  5:                 -1855.41046961 au
    Multiplicity: Triplet
    Trans. Mom.:  0.0000 X   0.0000 Y   0.0000 Z
    Strength   :     0.0000000000
    D(158) --> V(  6) amplitude =  0.2587
    D(158) --> V(  7) amplitude = -0.5611
    D(158) --> V(  8) amplitude =  0.6169

 Excited state   6: excitation energy (eV) =    3.7480
 Total energy for state  6:                 -1855.39887898 au
    Multiplicity: Triplet
    Trans. Mom.:  0.0000 X   0.0000 Y   0.0000 Z
    Strength   :     0.0000000000
    D(157) --> V(  1) amplitude = -0.2605
    D(158) --> V(  5) amplitude = -0.2330
    D(158) --> V(  6) amplitude =  0.3872
    D(158) --> V(  7) amplitude = -0.3838
    D(158) --> V(  8) amplitude = -0.4507

 Excited state   7: excitation energy (eV) =    3.7756
 Total energy for state  7:                 -1855.39786509 au
    Multiplicity: Triplet
    Trans. Mom.:  0.0000 X   0.0000 Y   0.0000 Z
    Strength   :     0.0000000000
    D(148) --> V(  1) amplitude =  0.3225
    D(149) --> V(  1) amplitude = -0.4220
    D(157) --> V(  1) amplitude =  0.6783

 Excited state   8: excitation energy (eV) =    3.8712
 Total energy for state  8:                 -1855.39435210 au
    Multiplicity: Singlet
    Trans. Mom.: -0.4749 X  -0.1112 Y  -0.2508 Z
    Strength   :     0.0285252675
    D(157) --> V(  1) amplitude =  0.9890

 Excited state   9: excitation energy (eV) =    4.0681
 Total energy for state  9:                 -1855.38711383 au
    Multiplicity: Singlet
    Trans. Mom.:  0.0388 X  -0.0444 Y   0.0289 Z
    Strength   :     0.0004290270
    D(158) --> V(  2) amplitude =  0.9404
    D(158) --> V(  3) amplitude = -0.3163

 Excited state  10: excitation energy (eV) =    4.1829
 Total energy for state 10:                 -1855.38289763 au
    Multiplicity: Singlet
    Trans. Mom.:  0.0087 X  -0.1664 Y   0.2315 Z
    Strength   :     0.0083402541
    D(158) --> V(  3) amplitude =  0.4106
    D(158) --> V(  4) amplitude = -0.6273
    D(158) --> V(  5) amplitude = -0.5264
    D(158) --> V(  6) amplitude = -0.3579

 Excited state  11: excitation energy (eV) =    4.2247
 Total energy for state 11:                 -1855.38136120 au
    Multiplicity: Singlet
    Trans. Mom.:  0.2353 X  -0.0435 Y   0.3472 Z
    Strength   :     0.0184035377
    D(158) --> V(  3) amplitude =  0.4194
    D(158) --> V(  4) amplitude =  0.4319
    D(158) --> V(  5) amplitude =  0.2779
    D(158) --> V(  6) amplitude = -0.6740

 Excited state  12: excitation energy (eV) =    4.5107
 Total energy for state 12:                 -1855.37084931 au
    Multiplicity: Singlet
    Trans. Mom.:  0.5884 X  -0.0497 Y  -0.6073 Z
    Strength   :     0.0792852362
    D(158) --> V(  3) amplitude =  0.6140
    D(158) --> V(  4) amplitude =  0.2597
    D(158) --> V(  6) amplitude =  0.4486
    D(158) --> V(  7) amplitude = -0.4980

 ---------------------------------------------------

                    Orbital Energies (a.u.)
 --------------------------------------------------------------

 Alpha MOs
 -- Occupied --
-14.679 -14.670 -14.666 -10.530 -10.528 -10.514 -10.511 -10.510
-10.509 -10.502 -10.495 -10.494 -10.494 -10.493 -10.492 -10.484
-10.475 -10.475 -10.471 -10.470 -10.469 -10.467 -10.466 -10.463
-10.462 -10.462 -10.461 -10.460 -10.460 -10.460 -10.459 -10.459
-10.459 -10.458 -10.458 -10.451 -10.451 -10.443 -10.443 -10.443
-10.442 -10.441 -10.439 -10.436 -10.435 -10.424 -10.424  -1.095
 -1.042  -1.028  -1.026  -1.001  -0.983  -0.964  -0.959  -0.958
 -0.935  -0.929  -0.909  -0.898  -0.887  -0.881  -0.855  -0.851
 -0.849  -0.842  -0.837  -0.821  -0.817  -0.806  -0.792  -0.774
 -0.768  -0.743  -0.727  -0.725  -0.712  -0.711  -0.703  -0.686
 -0.678  -0.674  -0.669  -0.667  -0.663  -0.643  -0.616  -0.616
 -0.613  -0.607  -0.595  -0.584  -0.575  -0.567  -0.560  -0.556
 -0.537  -0.536  -0.532  -0.529  -0.527  -0.524  -0.523  -0.520
 -0.512  -0.507  -0.504  -0.502  -0.497  -0.496  -0.493  -0.489
 -0.486  -0.483  -0.481  -0.479  -0.470  -0.462  -0.459  -0.452
 -0.452  -0.449  -0.448  -0.443  -0.437  -0.437  -0.434  -0.431
 -0.427  -0.427  -0.426  -0.421  -0.418  -0.414  -0.413  -0.408
 -0.406  -0.403  -0.401  -0.399  -0.397  -0.395  -0.391  -0.374
 -0.374  -0.365  -0.346  -0.334  -0.324  -0.310  -0.304  -0.298
 -0.297  -0.289  -0.289  -0.285  -0.267  -0.219

          Ground-State Mulliken Net Atomic Charges

     Atom                 Charge (a.u.)
  ----------------------------------------
      1 N                    -0.706052
      2 C                     0.299472
      3 C                     0.306543
      4 C                     0.136060
      5 C                    -0.311764
      6 H                     0.230523
      7 C                    -0.252546
      8 H                     0.228273
      9 C                    -0.248824
     10 H                     0.234478
     11 C                    -0.311975
     12 H                     0.261551
     13 C                     0.126200
     14 C                    -0.309703
     15 H                     0.229830
     16 C                    -0.253820
     17 H                     0.226990
     18 C                    -0.246152
     19 H                     0.231302
     20 C                    -0.319179
     21 H                     0.271318
     22 C                     0.161405
     23 C                    -0.262359
     24 H                     0.284097
     25 C                    -0.224726
     26 H                     0.258956
     27 C                    -0.318440
     28 H                     0.239949
     29 C                     0.226379
     30 C                     0.056110
     31 C                    -0.521268
     32 H                     0.262025
     33 H                     0.259752
     34 C                    -0.202722
     35 C                    -0.557045
     36 H                     0.268446
     37 H                     0.267799
     38 C                     0.140114
     39 C                    -0.317338
     40 H                     0.269977
     41 C                     0.068754
     42 C                     0.011381
     43 N                    -0.195983
     44 C                     0.077234
     45 C                    -0.292868
     46 H                     0.290904
     47 C                     0.160964
     48 C                     0.009986
     49 N                    -0.196290
     50 C                    -0.404230
     51 C                     0.013750
     52 C                    -0.264774
     53 H                     0.247784
     54 C                    -0.248060
     55 H                     0.246489
     56 C                     0.158067
     57 C                    -0.343531
     58 H                     0.236997
     59 C                    -0.226714
     60 H                     0.248221
     61 C                     0.119281
     62 C                    -0.334018
     63 H                     0.236928
     64 C                    -0.235814
     65 H                     0.247942
     66 C                    -0.238130
     67 H                     0.245949
     68 C                    -0.301697
     69 H                     0.237018
     70 C                     0.168696
     71 C                    -0.628684
     72 H                     0.228310
     73 H                     0.228532
     74 H                     0.237390
     75 C                    -0.605755
     76 H                     0.225599
     77 H                     0.231822
     78 H                     0.224911
  ----------------------------------------
  Sum of atomic charges =     0.000000

                    Cartesian Multipole Moments
 -----------------------------------------------------------------
    Charge (ESU x 10^10)
                 0.0000
    Dipole Moment (Debye)
         X       2.8325      Y      -4.0569      Z       6.7758
       Tot       8.3900
    Quadrupole Moments (Debye-Ang)
        XX    -287.6648     XY      43.5855     YY    -287.6690
        XZ     -64.2447     YZ      51.3262     ZZ    -335.9045

 Total job time:  7819.20s(wall), 30029.46s(cpu)
        *  Thank you very much for using Q-Chem.  Have a nice day.  *
