 Q-Chem 5.0, Q-Chem, Inc., Pleasanton, CA (2017)
 Q-Chem 5.0.1 for Intel X86 EM64T Linux

User input:
--------------------------------------------------------------
$solvent
dielectric      2.03
dielectric_infi 2.02
$end

$rem
threads 8
jobtype	sp
method PBEh-3c
basis def2-mSVP
mem_static	1024
mem_total	14000
sym_ignore	true
cis_n_roots             2
cis_singlets            false
cis_triplets		true
rpa                     false
calc_soc 		true
cis_moments             true
cis_relaxed_density	true
solvent_method		pcm
$end

$pcm
StateSpecific   1
ChargeSeparation Excited
$end

$molecule
read ut1opt_chx.mol
$end

--------------------------------------------------------------

   15   -1855.5352285456      5.14E-09 Convergence criterion met
 Total energy in the final basis set = -1855.53522855
 Total job time:  3664.71s(wall), 11474.45s(cpu)
        *  Thank you very much for using Q-Chem.  Have a nice day.  *
 Q-Chem 5.0, Q-Chem, Inc., Pleasanton, CA (2017)
 Q-Chem 5.0.1 for Intel X86 EM64T Linux

User input:
--------------------------------------------------------------
$rem
threads 8
jobtype sp
method PBEh-3c
basis def2-mSVP
mem_static      1024
mem_total       14000
sym_ignore      true
cis_n_roots             6
cis_singlets            true
cis_triplets            true
rpa                     false
calc_soc                true
cis_moments             true
cis_relaxed_density     true
solvent_method          pcm
$end

$molecule
read
$end

$pcm
statespecific           Marcus
$end

$solvent
dielectric      2.03
dielectric_infi 2.02
$end

--------------------------------------------------------------

             Standard Nuclear Orientation (Angstroms)
    I     Atom           X                Y                Z
 ----------------------------------------------------------------
    1      N       0.0000000000     0.0000000000     0.0000000000
    2      C       0.0000000000     0.0000000000     1.3781450000
    3      C       1.1591612340     0.0000000000    -0.7465674629
    4      C       1.2011605282    -0.1891665485     2.0847827569
    5      C       1.1281530894    -0.2347904440     3.4697175336
    6      H       2.0251121480    -0.4060497073     4.0485080066
    7      C      -0.0700605442    -0.0703226435     4.1449621508
    8      H      -0.0860961179    -0.1115463413     5.2255422137
    9      C      -1.2453226220     0.1607779089     3.4350003208
   10      H      -2.1798775388     0.3167965979     3.9551711191
   11      C      -1.2165493398     0.1976062891     2.0633082713
   12      H      -2.1266408798     0.3934974378     1.5168036119
   13      C       2.4059336427    -0.1307308029    -0.1013148891
   14      C       3.5430835024    -0.1014481109    -0.8938365249
   15      H       4.5162419880    -0.2150589828    -0.4372854824
   16      C       3.4728034484     0.0564000631    -2.2689958076
   17      H       4.3829186151     0.0826726338    -2.8525804265
   18      C       2.2347867130     0.1653912473    -2.8960166726
   19      H       2.1661759743     0.2819959792    -3.9681339644
   20      C       1.0843303864     0.1237638217    -2.1492476588
   21      H       0.1318201973     0.2035235007    -2.6507578067
   22      C      -1.2682602275    -0.0050001505    -0.6697492489
   23      C      -1.7082432101     1.1402475962    -1.2899576059
   24      H      -1.0835330246     2.0228515668    -1.2472726038
   25      C      -2.0268794068    -1.1644618671    -0.6797160869
   26      H      -1.6799063339    -2.0712084251    -0.2013719246
   27      C      -3.2544361775    -1.1055711377    -1.3008870664
   28      H      -3.8855775960    -1.9854515798    -1.2868345543
   29      C      -2.9142767768     1.1820224160    -1.9931290853
   30      C      -3.7291151398     0.0443275828    -1.9468415606
   31      C      -5.1324582915    -0.0110409311    -2.4747615069
   32      H      -5.6342072491    -0.8595922436    -2.0045317260
   33      H      -5.1398587851    -0.2090437700    -3.5501429182
   34      C       2.5176369173    -0.4010195066     1.3807885802
   35      C      -5.9061485043     1.2786880633    -2.1947273651
   36      H      -6.9727306882     1.0548940202    -2.1392908035
   37      H      -5.6265742705     1.6456070928    -1.1990350161
   38      C      -5.6707361815     2.2697182516    -3.2914263498
   39      C      -6.7426880515     2.6796139121    -4.0374314777
   40      H      -7.7375840727     2.3894154782    -3.7168661095
   41      C      -6.6283263540     3.4190335497    -5.2304057134
   42      C      -7.7747640993     3.8084788421    -5.9297019670
   43      N      -8.7407970231     4.1177221492    -6.4984801621
   44      C      -5.2902127441     3.6931310339    -5.6958773978
   45      C      -4.2061715499     3.2972038488    -4.9092619332
   46      H      -3.2242233594     3.5687197686    -5.2729427238
   47      C      -4.3320637076     2.6095687703    -3.7163942114
   48      C      -5.0463538397     4.3441237954    -6.9173116622
   49      N      -4.8333183570     4.8807880339    -7.9235951451
   50      C      -3.1124483786     2.4804617575    -2.8078770022
   51      C      -1.8170464228     2.6565048420    -3.5983049154
   52      C      -1.3157324721     1.8178593000    -4.5755021235
   53      H      -1.8737224152     0.9437210851    -4.8899178824
   54      C      -0.1014409194     2.1372946585    -5.1706777476
   55      H       0.2937593518     1.5069615679    -5.9572412200
   56      C       0.5978730545     3.2754072897    -4.7791406067
   57      H       1.5387149340     3.5158411677    -5.2569132276
   58      C       0.0938170405     4.1132652327    -3.7945736902
   59      H       0.6403588635     5.0007141193    -3.5009426891
   60      C      -1.1228307394     3.7974736515    -3.2054393760
   61      C      -1.8866567214     4.4600554531    -2.1526562544
   62      C      -1.6395118730     5.6336340287    -1.4579972477
   63      H      -0.7590013126     6.2283264460    -1.6676618366
   64      C      -2.5495852053     6.0442866333    -0.4936869872
   65      H      -2.3778064651     6.9626763521     0.0521030416
   66      C      -3.6884643169     5.2897572728    -0.2331631658
   67      H      -4.3957815933     5.6276236861     0.5131682602
   68      C      -3.9356475765     4.1131872399    -0.9292766263
   69      H      -4.8352367142     3.5457992294    -0.7306132282
   70      C      -3.0292020853     3.7011081094    -1.8882181403
   71      C       3.5870102885     0.5115912486     2.0036619639
   72      H       4.5607897566     0.3516842902     1.5448310717
   73      H       3.7114063627     0.3085978884     3.0657411693
   74      H       3.3222773066     1.5616151991     1.8866292717
   75      C       2.9188218322    -1.8830140380     1.5613666176
   76      H       3.8761873682    -2.0816312151     1.0800038855
   77      H       2.1754376362    -2.5515517812     1.1269018971
   78      H       3.0147872109    -2.1268201700     2.6195892348
 ----------------------------------------------------------------

   15   -1855.5352281758      5.14E-09 Convergence criterion met
 Total energy in the final basis set = -1855.53522818

         TDDFT/TDA Excitation Energies
 ---------------------------------------------------

 Excited state   1: excitation energy (eV) =    2.9784
 Total energy for state  1:                 -1855.42577297 au
    Multiplicity: Triplet
    Trans. Mom.:  0.0000 X   0.0000 Y   0.0000 Z
    Strength   :     0.0000000000
    D(148) --> V(  1) amplitude =  0.2130
    D(149) --> V(  1) amplitude =  0.2294
    D(150) --> V(  1) amplitude = -0.5160
    D(151) --> V(  1) amplitude = -0.6257
    D(153) --> V(  1) amplitude =  0.3036

 Excited state   2: excitation energy (eV) =    3.1608
 Total energy for state  2:                 -1855.41907001 au
    Multiplicity: Triplet
    Trans. Mom.:  0.0000 X   0.0000 Y   0.0000 Z
    Strength   :     0.0000000000
    D(158) --> V(  1) amplitude =  0.9922

 Excited state   3: excitation energy (eV) =    3.1617
 Total energy for state  3:                 -1855.41903796 au
    Multiplicity: Singlet
    Trans. Mom.: -0.1380 X   0.0898 Y  -0.1132 Z
    Strength   :     0.0030921191
    D(158) --> V(  1) amplitude =  0.9975

 Excited state   4: excitation energy (eV) =    3.3702
 Total energy for state  4:                 -1855.41137444 au
    Multiplicity: Triplet
    Trans. Mom.:  0.0000 X   0.0000 Y   0.0000 Z
    Strength   :     0.0000000000
    D(157) --> V(  2) amplitude = -0.6043
    D(157) --> V(  3) amplitude =  0.5590

 Excited state   5: excitation energy (eV) =    3.4348
 Total energy for state  5:                 -1855.40899990 au
    Multiplicity: Triplet
    Trans. Mom.:  0.0000 X   0.0000 Y   0.0000 Z
    Strength   :     0.0000000000
    D(158) --> V(  6) amplitude =  0.2665
    D(158) --> V(  7) amplitude = -0.5912
    D(158) --> V(  8) amplitude =  0.5862

 Excited state   6: excitation energy (eV) =    3.7427
 Total energy for state  6:                 -1855.39768716 au
    Multiplicity: Triplet
    Trans. Mom.:  0.0000 X   0.0000 Y   0.0000 Z
    Strength   :     0.0000000000
    D(158) --> V(  4) amplitude = -0.2422
    D(158) --> V(  5) amplitude = -0.2362
    D(158) --> V(  6) amplitude =  0.4109
    D(158) --> V(  7) amplitude = -0.3659
    D(158) --> V(  8) amplitude = -0.4803

 Excited state   7: excitation energy (eV) =    3.8009
 Total energy for state  7:                 -1855.39554821 au
    Multiplicity: Triplet
    Trans. Mom.:  0.0000 X   0.0000 Y   0.0000 Z
    Strength   :     0.0000000000
    D(148) --> V(  1) amplitude =  0.3532
    D(149) --> V(  1) amplitude = -0.4804
    D(157) --> V(  1) amplitude =  0.6604

 Excited state   8: excitation energy (eV) =    3.9164
 Total energy for state  8:                 -1855.39130320 au
    Multiplicity: Singlet
    Trans. Mom.: -0.4742 X  -0.1024 Y  -0.2412 Z
    Strength   :     0.0281659134
    D(157) --> V(  1) amplitude =  0.9886

 Excited state   9: excitation energy (eV) =    4.0909
 Total energy for state  9:                 -1855.38489156 au
    Multiplicity: Singlet
    Trans. Mom.:  0.0223 X  -0.0452 Y   0.0274 Z
    Strength   :     0.0003297627
    D(158) --> V(  2) amplitude =  0.9405
    D(158) --> V(  3) amplitude = -0.3052

 Excited state  10: excitation energy (eV) =    4.1911
 Total energy for state 10:                 -1855.38120845 au
    Multiplicity: Singlet
    Trans. Mom.:  0.0128 X   0.1635 Y  -0.1814 Z
    Strength   :     0.0061400292
    D(158) --> V(  3) amplitude = -0.3464
    D(158) --> V(  4) amplitude =  0.7193
    D(158) --> V(  5) amplitude =  0.5042
    D(158) --> V(  6) amplitude =  0.2736

 Excited state  11: excitation energy (eV) =    4.2267
 Total energy for state 11:                 -1855.37990096 au
    Multiplicity: Singlet
    Trans. Mom.:  0.2480 X  -0.0663 Y   0.3953 Z
    Strength   :     0.0230021368
    D(158) --> V(  3) amplitude =  0.4496
    D(158) --> V(  4) amplitude =  0.3640
    D(158) --> V(  6) amplitude = -0.7300

 Excited state  12: excitation energy (eV) =    4.5270
 Total energy for state 12:                 -1855.36886512 au
    Multiplicity: Singlet
    Trans. Mom.:  0.6533 X  -0.0595 Y  -0.6615 Z
    Strength   :     0.0962486324
    D(158) --> V(  3) amplitude =  0.5924
    D(158) --> V(  4) amplitude =  0.2505
    D(158) --> V(  6) amplitude =  0.4102
    D(158) --> V(  7) amplitude = -0.5460

 ---------------------------------------------------

                    Orbital Energies (a.u.)
 --------------------------------------------------------------

 Alpha MOs
 -- Occupied --
-14.680 -14.667 -14.664 -10.528 -10.526 -10.511 -10.510 -10.509
-10.508 -10.501 -10.496 -10.495 -10.495 -10.492 -10.491 -10.484
-10.476 -10.475 -10.472 -10.470 -10.470 -10.469 -10.467 -10.463
-10.463 -10.462 -10.462 -10.461 -10.461 -10.460 -10.460 -10.460
-10.459 -10.459 -10.459 -10.452 -10.452 -10.445 -10.444 -10.444
-10.443 -10.442 -10.440 -10.437 -10.436 -10.425 -10.425  -1.096
 -1.040  -1.028  -1.024  -1.000  -0.984  -0.964  -0.960  -0.959
 -0.935  -0.929  -0.910  -0.898  -0.887  -0.881  -0.856  -0.852
 -0.850  -0.842  -0.838  -0.821  -0.818  -0.806  -0.792  -0.774
 -0.770  -0.743  -0.728  -0.725  -0.713  -0.712  -0.703  -0.686
 -0.678  -0.674  -0.670  -0.668  -0.664  -0.644  -0.617  -0.617
 -0.613  -0.608  -0.595  -0.584  -0.576  -0.567  -0.561  -0.557
 -0.538  -0.536  -0.532  -0.529  -0.527  -0.525  -0.524  -0.521
 -0.513  -0.507  -0.505  -0.503  -0.497  -0.496  -0.494  -0.489
 -0.487  -0.484  -0.482  -0.480  -0.471  -0.462  -0.459  -0.452
 -0.451  -0.449  -0.447  -0.443  -0.438  -0.437  -0.433  -0.431
 -0.428  -0.427  -0.426  -0.422  -0.418  -0.415  -0.413  -0.409
 -0.406  -0.403  -0.401  -0.398  -0.398  -0.396  -0.391  -0.375
 -0.375  -0.366  -0.346  -0.333  -0.323  -0.310  -0.303  -0.299
 -0.298  -0.290  -0.289  -0.286  -0.267  -0.220

          Ground-State Mulliken Net Atomic Charges

     Atom                 Charge (a.u.)
  ----------------------------------------
      1 N                    -0.706634
      2 C                     0.298916
      3 C                     0.306340
      4 C                     0.137694
      5 C                    -0.310226
      6 H                     0.227388
      7 C                    -0.249744
      8 H                     0.225987
      9 C                    -0.246671
     10 H                     0.232125
     11 C                    -0.309861
     12 H                     0.260525
     13 C                     0.127421
     14 C                    -0.308037
     15 H                     0.226634
     16 C                    -0.251194
     17 H                     0.224485
     18 C                    -0.243357
     19 H                     0.229053
     20 C                    -0.318182
     21 H                     0.271852
     22 C                     0.164054
     23 C                    -0.264770
     24 H                     0.284452
     25 C                    -0.223808
     26 H                     0.256684
     27 C                    -0.316566
     28 H                     0.237252
     29 C                     0.226664
     30 C                     0.056931
     31 C                    -0.520488
     32 H                     0.259870
     33 H                     0.259523
     34 C                    -0.204263
     35 C                    -0.555708
     36 H                     0.266483
     37 H                     0.265723
     38 C                     0.140956
     39 C                    -0.316666
     40 H                     0.266916
     41 C                     0.070312
     42 C                     0.009744
     43 N                    -0.190561
     44 C                     0.078441
     45 C                    -0.291884
     46 H                     0.289586
     47 C                     0.157990
     48 C                     0.008364
     49 N                    -0.190965
     50 C                    -0.404449
     51 C                     0.015035
     52 C                    -0.264013
     53 H                     0.246110
     54 C                    -0.247480
     55 H                     0.244492
     56 C                    -0.223891
     57 H                     0.245818
     58 C                    -0.341529
     59 H                     0.234054
     60 C                     0.158802
     61 C                     0.120739
     62 C                    -0.332448
     63 H                     0.233862
     64 C                    -0.233188
     65 H                     0.245498
     66 C                    -0.235881
     67 H                     0.243456
     68 C                    -0.299013
     69 H                     0.234321
     70 C                     0.169843
     71 C                    -0.627319
     72 H                     0.227034
     73 H                     0.227205
     74 H                     0.237892
     75 C                    -0.603559
     76 H                     0.224604
     77 H                     0.231532
     78 H                     0.223694
  ----------------------------------------
  Sum of atomic charges =     0.000000

                    Cartesian Multipole Moments
 -----------------------------------------------------------------
    Charge (ESU x 10^10)
                 0.0000
    Dipole Moment (Debye)
         X       2.6769      Y      -3.7932      Z       6.5500
       Tot       8.0284
    Quadrupole Moments (Debye-Ang)
        XX    -286.9704     XY      41.6608     YY    -286.1963
        XZ     -62.7772     YZ      49.3216     ZZ    -334.9506

 Total job time:  6796.17s(wall), 26675.76s(cpu)
        *  Thank you very much for using Q-Chem.  Have a nice day.  *
