 Q-Chem 5.0, Q-Chem, Inc., Pleasanton, CA (2017)
 Q-Chem 5.0.1 for Intel X86 EM64T Linux

User input:
--------------------------------------------------------------
$solvent
dielectric      4.33
dielectric_infi 1.83
$end

$rem
threads 8
jobtype	sp
method PBEh-3c
basis def2-mSVP
mem_static	1024
mem_total	14000
sym_ignore	true
cis_n_roots             2
cis_singlets            false
cis_triplets		true
rpa                     false
calc_soc 		true
cis_moments             true
cis_relaxed_density	true
solvent_method		pcm
$end

$pcm
StateSpecific   1
ChargeSeparation Excited
$end

$molecule
read ut1opt_eth.mol
$end

--------------------------------------------------------------

   15   -1855.5452535353      4.82E-09 Convergence criterion met
 Total energy in the final basis set = -1855.54525354
 Total job time:  3875.09s(wall), 11370.23s(cpu)
        *  Thank you very much for using Q-Chem.  Have a nice day.  *
 Q-Chem 5.0, Q-Chem, Inc., Pleasanton, CA (2017)
 Q-Chem 5.0.1 for Intel X86 EM64T Linux

User input:
--------------------------------------------------------------
$rem
threads 8
jobtype sp
method PBEh-3c
basis def2-mSVP
mem_static      1024
mem_total       14000
sym_ignore      true
cis_n_roots             6
cis_singlets            true
cis_triplets            true
rpa                     false
calc_soc                true
cis_moments             true
cis_relaxed_density     true
solvent_method          pcm
$end

$molecule
read
$end

$pcm
statespecific           Marcus
$end

$solvent
dielectric      4.33
dielectric_infi 1.83
$end

--------------------------------------------------------------

             Standard Nuclear Orientation (Angstroms)
    I     Atom           X                Y                Z
 ----------------------------------------------------------------
    1      N       0.0000000000     0.0000000000     0.0000000000
    2      C       0.0000000000     0.0000000000     1.3771020000
    3      C       1.1568311528     0.0000000000    -0.7491192698
    4      C       1.2058655327    -0.1673546348     2.0820947765
    5      C       1.1363694080    -0.2143889070     3.4672962596
    6      H       2.0375095422    -0.3686050509     4.0444097438
    7      C      -0.0640637978    -0.0734815439     4.1440557461
    8      H      -0.0778524329    -0.1155751142     5.2246563008
    9      C      -1.2457287695     0.1328283505     3.4355703612
   10      H      -2.1828119907     0.2667349856     3.9574869754
   11      C      -1.2200759199     0.1705826250     2.0640326832
   12      H      -2.1367272937     0.3433108557     1.5206213105
   13      C       2.4067545249    -0.1058842226    -0.1061298920
   14      C       3.5419042353    -0.0711614913    -0.9020930986
   15      H       4.5178030183    -0.1627332052    -0.4461907920
   16      C       3.4653950237     0.0634348513    -2.2792477573
   17      H       4.3733135858     0.0931906254    -2.8660703017
   18      C       2.2234615755     0.1435707828    -2.9047317021
   19      H       2.1523140974     0.2380301914    -3.9790990272
   20      C       1.0760549509     0.0998328893    -2.1534928139
   21      H       0.1201541644     0.1551529720    -2.6516771559
   22      C      -1.2675535817    -0.0049687369    -0.6723480680
   23      C      -1.7217858043     1.1508869202    -1.2611030289
   24      H      -1.1054969413     2.0376899759    -1.1930206808
   25      C      -2.0067078878    -1.1750226722    -0.7210360569
   26      H      -1.6471531009    -2.0892212627    -0.2669121537
   27      C      -3.2321388937    -1.1180667435    -1.3467741311
   28      H      -3.8483081276    -2.0084459567    -1.3624501299
   29      C      -2.9279261576     1.1953143158    -1.9650944560
   30      C      -3.7225600096     0.0431574190    -1.9593264980
   31      C      -5.1203230041    -0.0264944234    -2.5016271816
   32      H      -5.6086342103    -0.8958692373    -2.0569369859
   33      H      -5.1139328101    -0.2014174666    -3.5812323625
   34      C       2.5258553545    -0.3528487037     1.3785429239
   35      C      -5.9272480814     1.2353623987    -2.1963686314
   36      H      -6.9889450231     0.9857426233    -2.1638658481
   37      H      -5.6714547425     1.5825584313    -1.1886498410
   38      C      -5.7008907432     2.2644399620    -3.2601201056
   39      C      -6.7728264333     2.6676193028    -4.0082573826
   40      H      -7.7623683512     2.3325357058    -3.7163452775
   41      C      -6.6625346215     3.4604426975    -5.1702404776
   42      C      -7.8030639580     3.8426939168    -5.8775546584
   43      N      -8.7605846069     4.1526308554    -6.4635723550
   44      C      -5.3259897440     3.7990015152    -5.5982458221
   45      C      -4.2409555255     3.4028388475    -4.8045538647
   46      H      -3.2614112729     3.7177900093    -5.1382646616
   47      C      -4.3668769335     2.6664817356    -3.6449837241
   48      C      -5.0889807325     4.5100340023    -6.7830211132
   49      N      -4.8940073188     5.1003336130    -7.7645951435
   50      C      -3.1500445959     2.5197828927    -2.7297771027
   51      C      -1.8543874182     2.7620091110    -3.5028585532
   52      C      -1.3146490024     1.9684157581    -4.4971174219
   53      H      -1.8339639890     1.0805968326    -4.8385265800
   54      C      -0.1029474417     2.3425445069    -5.0650650431
   55      H       0.3284367272     1.7416031641    -5.8554093175
   56      C      -1.2015452694     3.9120105378    -3.0685149072
   57      C       0.0107754124     4.2853431487    -3.6329052409
   58      H       0.5267294336     5.1785094102    -3.3032371213
   59      C       0.5540435904     3.4916539294    -4.6333830822
   60      H       1.4958949844     3.7712470219    -5.0871218290
   61      C      -1.9918999421     4.5125380085    -1.9979220759
   62      C      -1.7825374905     5.6664138386    -1.2584656842
   63      H      -0.9198656291     6.2946934561    -1.4427236063
   64      C      -2.7049652972     6.0096665142    -0.2791160461
   65      H      -2.5612080519     6.9102526347     0.3033777142
   66      C      -3.8167101144     5.2072281892    -0.0455699982
   67      H      -4.5306546857     5.4887556762     0.7176656094
   68      C      -4.0254479580     4.0503387477    -0.7874272479
   69      H      -4.9002411047     3.4411979422    -0.6016581984
   70      C      -3.1092267339     3.7077716034    -1.7638935006
   71      C       3.5708990428     0.5964849320     1.9887996344
   72      H       4.5466361899     0.4586308619     1.5267650017
   73      H       3.7027066072     0.4069068019     3.0526277817
   74      H       3.2752900450     1.6371948755     1.8615641199
   75      C       2.9666411653    -1.8212910541     1.5771123504
   76      H       3.9301915326    -1.9979515917     1.0996923219
   77      H       3.0675436260    -2.0478760613     2.6385089153
   78      H       2.2409860623    -2.5129595061     1.1488720448
 ----------------------------------------------------------------

   15   -1855.5451974791      5.26E-09 Convergence criterion met
 Total energy in the final basis set = -1855.54519748

         TDDFT/TDA Excitation Energies
 ---------------------------------------------------

 Excited state   1: excitation energy (eV) =    2.9661
 Total energy for state  1:                 -1855.43619373 au
    Multiplicity: Triplet
    Trans. Mom.:  0.0000 X   0.0000 Y   0.0000 Z
    Strength   :     0.0000000000
    D(148) --> V(  1) amplitude =  0.2241
    D(149) --> V(  1) amplitude =  0.2616
    D(150) --> V(  1) amplitude = -0.5782
    D(151) --> V(  1) amplitude = -0.5154
    D(152) --> V(  1) amplitude = -0.2910
    D(153) --> V(  1) amplitude =  0.2146

 Excited state   2: excitation energy (eV) =    3.1714
 Total energy for state  2:                 -1855.42865108 au
    Multiplicity: Triplet
    Trans. Mom.:  0.0000 X   0.0000 Y   0.0000 Z
    Strength   :     0.0000000000
    D(158) --> V(  1) amplitude =  0.9941

 Excited state   3: excitation energy (eV) =    3.1723
 Total energy for state  3:                 -1855.42861937 au
    Multiplicity: Singlet
    Trans. Mom.: -0.1291 X   0.0836 Y  -0.1014 Z
    Strength   :     0.0026379092
    D(158) --> V(  1) amplitude =  0.9979

 Excited state   4: excitation energy (eV) =    3.3731
 Total energy for state  4:                 -1855.42123718 au
    Multiplicity: Triplet
    Trans. Mom.:  0.0000 X   0.0000 Y   0.0000 Z
    Strength   :     0.0000000000
    D(157) --> V(  2) amplitude = -0.5893
    D(157) --> V(  3) amplitude =  0.5742

 Excited state   5: excitation energy (eV) =    3.4259
 Total energy for state  5:                 -1855.41929665 au
    Multiplicity: Triplet
    Trans. Mom.:  0.0000 X   0.0000 Y   0.0000 Z
    Strength   :     0.0000000000
    D(158) --> V(  6) amplitude =  0.2808
    D(158) --> V(  7) amplitude = -0.7389
    D(158) --> V(  8) amplitude =  0.3644

 Excited state   6: excitation energy (eV) =    3.7413
 Total energy for state  6:                 -1855.40770829 au
    Multiplicity: Triplet
    Trans. Mom.:  0.0000 X   0.0000 Y   0.0000 Z
    Strength   :     0.0000000000
    D(148) --> V(  1) amplitude =  0.3399
    D(149) --> V(  1) amplitude = -0.4671
    D(157) --> V(  1) amplitude =  0.6873

 Excited state   7: excitation energy (eV) =    3.7699
 Total energy for state  7:                 -1855.40665529 au
    Multiplicity: Triplet
    Trans. Mom.:  0.0000 X   0.0000 Y   0.0000 Z
    Strength   :     0.0000000000
    D(158) --> V(  6) amplitude =  0.4059
    D(158) --> V(  7) amplitude = -0.2281
    D(158) --> V(  8) amplitude = -0.6656

 Excited state   8: excitation energy (eV) =    3.8468
 Total energy for state  8:                 -1855.40383176 au
    Multiplicity: Singlet
    Trans. Mom.: -0.4595 X  -0.1113 Y  -0.2582 Z
    Strength   :     0.0273477246
    D(157) --> V(  1) amplitude =  0.9899

 Excited state   9: excitation energy (eV) =    4.1742
 Total energy for state  9:                 -1855.39179732 au
    Multiplicity: Singlet
    Trans. Mom.:  0.0541 X  -0.0385 Y   0.0067 Z
    Strength   :     0.0004557971
    D(158) --> V(  2) amplitude =  0.9400
    D(158) --> V(  3) amplitude = -0.3183

 Excited state  10: excitation energy (eV) =    4.2478
 Total energy for state 10:                 -1855.38909342 au
    Multiplicity: Singlet
    Trans. Mom.: -0.0264 X  -0.1525 Y   0.2911 Z
    Strength   :     0.0113114373
    D(158) --> V(  3) amplitude =  0.4127
    D(158) --> V(  4) amplitude = -0.6723
    D(158) --> V(  5) amplitude = -0.4481
    D(158) --> V(  6) amplitude = -0.3701

 Excited state  11: excitation energy (eV) =    4.3192
 Total energy for state 11:                 -1855.38647145 au
    Multiplicity: Singlet
    Trans. Mom.: -0.1367 X   0.0267 Y  -0.3078 Z
    Strength   :     0.0120808912
    D(158) --> V(  3) amplitude = -0.3560
    D(158) --> V(  4) amplitude = -0.4438
    D(158) --> V(  5) amplitude = -0.2612
    D(158) --> V(  6) amplitude =  0.7048

 Excited state  12: excitation energy (eV) =    4.5303
 Total energy for state 12:                 -1855.37871092 au
    Multiplicity: Singlet
    Trans. Mom.:  0.1580 X  -0.0648 Y   0.0373 Z
    Strength   :     0.0033899180
    D(152) --> V(  1) amplitude =  0.3160
    D(155) --> V(  1) amplitude =  0.6931
    D(156) --> V(  1) amplitude = -0.6103

 ---------------------------------------------------

                    Orbital Energies (a.u.)
 --------------------------------------------------------------

 Alpha MOs
 -- Occupied --
-14.680 -14.671 -14.668 -10.528 -10.527 -10.516 -10.514 -10.508
-10.507 -10.499 -10.496 -10.496 -10.494 -10.490 -10.490 -10.482
-10.473 -10.473 -10.469 -10.468 -10.468 -10.467 -10.461 -10.460
-10.459 -10.459 -10.459 -10.457 -10.457 -10.457 -10.457 -10.457
-10.456 -10.456 -10.455 -10.453 -10.453 -10.445 -10.445 -10.444
-10.444 -10.442 -10.441 -10.437 -10.437 -10.425 -10.424  -1.097
 -1.042  -1.028  -1.026  -0.999  -0.982  -0.962  -0.960  -0.959
 -0.934  -0.926  -0.910  -0.896  -0.885  -0.879  -0.854  -0.850
 -0.849  -0.840  -0.838  -0.819  -0.818  -0.805  -0.790  -0.773
 -0.769  -0.740  -0.727  -0.723  -0.713  -0.711  -0.702  -0.684
 -0.675  -0.671  -0.670  -0.664  -0.662  -0.642  -0.617  -0.617
 -0.612  -0.605  -0.593  -0.582  -0.572  -0.564  -0.558  -0.554
 -0.537  -0.534  -0.530  -0.528  -0.525  -0.524  -0.522  -0.518
 -0.509  -0.505  -0.503  -0.501  -0.495  -0.494  -0.493  -0.488
 -0.486  -0.482  -0.480  -0.480  -0.469  -0.461  -0.458  -0.454
 -0.453  -0.451  -0.449  -0.441  -0.438  -0.437  -0.434  -0.429
 -0.427  -0.425  -0.424  -0.422  -0.418  -0.413  -0.412  -0.406
 -0.406  -0.403  -0.401  -0.398  -0.397  -0.393  -0.389  -0.375
 -0.375  -0.366  -0.344  -0.332  -0.322  -0.309  -0.302  -0.298
 -0.297  -0.291  -0.289  -0.287  -0.265  -0.221

          Ground-State Mulliken Net Atomic Charges

     Atom                 Charge (a.u.)
  ----------------------------------------
      1 N                    -0.703441
      2 C                     0.298336
      3 C                     0.304539
      4 C                     0.130233
      5 C                    -0.317259
      6 H                     0.238883
      7 C                    -0.261418
      8 H                     0.234818
      9 C                    -0.255443
     10 H                     0.242164
     11 C                    -0.318203
     12 H                     0.266728
     13 C                     0.121244
     14 C                    -0.315389
     15 H                     0.238204
     16 C                    -0.262361
     17 H                     0.234020
     18 C                    -0.254267
     19 H                     0.239871
     20 C                    -0.323942
     21 H                     0.274274
     22 C                     0.157173
     23 C                    -0.261158
     24 H                     0.282988
     25 C                    -0.230148
     26 H                     0.262791
     27 C                    -0.323164
     28 H                     0.247997
     29 C                     0.225254
     30 C                     0.054944
     31 C                    -0.523111
     32 H                     0.267245
     33 H                     0.263339
     34 C                    -0.199560
     35 C                    -0.560823
     36 H                     0.274861
     37 H                     0.272181
     38 C                     0.139647
     39 C                    -0.318359
     40 H                     0.277964
     41 C                     0.067797
     42 C                     0.017204
     43 N                    -0.211349
     44 C                     0.077086
     45 C                    -0.294593
     46 H                     0.293418
     47 C                     0.170547
     48 C                     0.015435
     49 N                    -0.211689
     50 C                    -0.403124
     51 C                     0.010659
     52 C                    -0.266995
     53 H                     0.253604
     54 C                    -0.251940
     55 H                     0.251988
     56 C                     0.156121
     57 C                    -0.348990
     58 H                     0.244836
     59 C                    -0.235222
     60 H                     0.253937
     61 C                     0.115794
     62 C                    -0.338796
     63 H                     0.244703
     64 C                    -0.242444
     65 H                     0.254032
     66 C                    -0.244249
     67 H                     0.252502
     68 C                    -0.307973
     69 H                     0.246178
     70 C                     0.164914
     71 C                    -0.633291
     72 H                     0.232365
     73 H                     0.232473
     74 H                     0.236009
     75 C                    -0.611329
     76 H                     0.228664
     77 H                     0.228247
     78 H                     0.231819
  ----------------------------------------
  Sum of atomic charges =     0.000000

                    Cartesian Multipole Moments
 -----------------------------------------------------------------
    Charge (ESU x 10^10)
                 0.0000
    Dipole Moment (Debye)
         X       2.7776      Y      -4.5755      Z       7.0809
       Tot       8.8764
    Quadrupole Moments (Debye-Ang)
        XX    -287.3355     XY      47.2382     YY    -290.8229
        XZ     -66.6795     YZ      55.5521     ZZ    -337.8175

 Total job time:  7501.88s(wall), 29100.24s(cpu)
        *  Thank you very much for using Q-Chem.  Have a nice day.  *
