 Q-Chem 5.0, Q-Chem, Inc., Pleasanton, CA (2017)
 Q-Chem 5.0.1 for Intel X86 EM64T Linux

User input:
--------------------------------------------------------------
$solvent
dielectric      8.93
dielectric_infi 2.03
$end

$rem
threads 8
jobtype	sp
method PBEh-3c
basis def2-mSVP
mem_static	1024
mem_total	14000
sym_ignore	true
cis_n_roots             2
cis_singlets            false
cis_triplets		true
rpa                     false
calc_soc 		true
cis_moments             true
cis_relaxed_density	true
solvent_method		pcm
$end

$pcm
StateSpecific   1
ChargeSeparation Excited
$end

$molecule
read ut1opt_dcm.mol
$end

--------------------------------------------------------------

   15   -1855.5501964152      4.66E-09 Convergence criterion met
 Total energy in the final basis set = -1855.55019642

                    Orbital Energies (a.u.)
 --------------------------------------------------------------

 Alpha MOs
 -- Occupied --
-14.681 -14.672 -14.669 -10.527 -10.526 -10.518 -10.516 -10.507
-10.506 -10.497 -10.497 -10.497 -10.493 -10.489 -10.488 -10.481
-10.472 -10.472 -10.469 -10.468 -10.467 -10.466 -10.459 -10.458
-10.458 -10.458 -10.458 -10.457 -10.456 -10.456 -10.456 -10.456
-10.456 -10.455 -10.454 -10.454 -10.452 -10.446 -10.445 -10.445
-10.445 -10.443 -10.442 -10.438 -10.438 -10.425 -10.424  -1.097
 -1.042  -1.029  -1.026  -0.998  -0.982  -0.961  -0.961  -0.960
 -0.933  -0.925  -0.911  -0.895  -0.884  -0.878  -0.855  -0.850
 -0.848  -0.839  -0.839  -0.819  -0.817  -0.805  -0.790  -0.773
 -0.769  -0.739  -0.727  -0.722  -0.714  -0.710  -0.701  -0.683
 -0.674  -0.671  -0.670  -0.663  -0.662  -0.641  -0.618  -0.618
 -0.612  -0.604  -0.592  -0.581  -0.571  -0.563  -0.557  -0.553
 -0.538  -0.534  -0.529  -0.528  -0.526  -0.523  -0.521  -0.517
 -0.508  -0.504  -0.502  -0.501  -0.494  -0.493  -0.492  -0.489
 -0.486  -0.481  -0.481  -0.479  -0.468  -0.462  -0.457  -0.456
 -0.454  -0.451  -0.449  -0.440  -0.438  -0.438  -0.433  -0.428
 -0.427  -0.424  -0.423  -0.422  -0.418  -0.413  -0.411  -0.406
 -0.405  -0.403  -0.401  -0.398  -0.396  -0.392  -0.388  -0.376
 -0.376  -0.366  -0.343  -0.331  -0.321  -0.309  -0.302  -0.298
 -0.296  -0.293  -0.289  -0.287  -0.265  -0.222

          Ground-State Mulliken Net Atomic Charges

     Atom                 Charge (a.u.)
  ----------------------------------------
      1 N                    -0.701478
      2 C                     0.298416
      3 C                     0.302903
      4 C                     0.126233
      5 C                    -0.320293
      6 H                     0.244609
      7 C                    -0.267193
      8 H                     0.239131
      9 C                    -0.259536
     10 H                     0.247104
     11 C                    -0.323070
     12 H                     0.269663
     13 C                     0.118754
     14 C                    -0.318884
     15 H                     0.244016
     16 C                    -0.267836
     17 H                     0.238705
     18 C                    -0.259591
     19 H                     0.245414
     20 C                    -0.326100
     21 H                     0.274762
     22 C                     0.151934
     23 C                    -0.257429
     24 H                     0.280901
     25 C                    -0.233314
     26 H                     0.265472
     27 C                    -0.326535
     28 H                     0.253263
     29 C                     0.224226
     30 C                     0.054553
     31 C                    -0.524557
     32 H                     0.270671
     33 H                     0.264859
     34 C                    -0.197716
     35 C                    -0.562577
     36 H                     0.280045
     37 H                     0.274959
     38 C                     0.137660
     39 C                    -0.316818
     40 H                     0.284686
     41 C                     0.065404
     42 C                     0.022233
     43 N                    -0.221081
     44 C                     0.075317
     45 C                     0.019836
     46 N                    -0.221913
     47 C                    -0.295171
     48 H                     0.295117
     49 C                     0.174656
     50 C                    -0.401100
     51 C                     0.008602
     52 C                    -0.267455
     53 H                     0.256894
     54 C                    -0.255196
     55 H                     0.256044
     56 C                     0.154725
     57 C                    -0.352112
     58 H                     0.249814
     59 C                    -0.241052
     60 H                     0.257665
     61 C                     0.113318
     62 C                    -0.342293
     63 H                     0.249751
     64 C                    -0.247147
     65 H                     0.257924
     66 C                    -0.248366
     67 H                     0.256897
     68 C                    -0.312552
     69 H                     0.252861
     70 C                     0.160810
     71 C                    -0.634943
     72 H                     0.234915
     73 H                     0.234827
     74 H                     0.234641
     75 C                    -0.615038
     76 H                     0.230862
     77 H                     0.230667
     78 H                     0.231630
  ----------------------------------------
  Sum of atomic charges =     0.000000

                    Cartesian Multipole Moments
 -----------------------------------------------------------------
    Charge (ESU x 10^10)
                 0.0000
    Dipole Moment (Debye)
         X       2.7079      Y      -5.1538      Z       7.2079
       Tot       9.2655
    Quadrupole Moments (Debye-Ang)
        XX    -285.9478     XY      51.2464     YY    -295.7356
        XZ     -66.8725     YZ      59.9287     ZZ    -337.0816

 Total job time:  3722.63s(wall), 10583.16s(cpu)
        *  Thank you very much for using Q-Chem.  Have a nice day.  *
 Q-Chem 5.0, Q-Chem, Inc., Pleasanton, CA (2017)
 Q-Chem 5.0.1 for Intel X86 EM64T Linux

User input:
--------------------------------------------------------------
$rem
threads 8
jobtype sp
method PBEh-3c
basis def2-mSVP
mem_static      1024
mem_total       14000
sym_ignore      true
cis_n_roots             6
cis_singlets            true
cis_triplets            true
rpa                     false
calc_soc                true
cis_moments             true
cis_relaxed_density     true
solvent_method          pcm
$end

$molecule
read
$end

$pcm
statespecific           Marcus
$end

$solvent
dielectric      8.93
dielectric_infi 2.03
$end

--------------------------------------------------------------

             Standard Nuclear Orientation (Angstroms)
    I     Atom           X                Y                Z
 ----------------------------------------------------------------
    1      N       0.0000000000     0.0000000000     0.0000000000
    2      C       0.0000000000     0.0000000000     1.3764090000
    3      C       1.1550308170     0.0000000000    -0.7510266368
    4      C       1.2095773025    -0.1454851102     2.0802817060
    5      C       1.1431591770    -0.1913092649     3.4657648939
    6      H       2.0482022215    -0.3268048158     4.0415582341
    7      C      -0.0590955594    -0.0727359218     4.1436391501
    8      H      -0.0709722985    -0.1138494572     5.2243151514
    9      C      -1.2459530349     0.1082414814     3.4360366919
   10      H      -2.1851882499     0.2214963172     3.9590629046
   11      C      -1.2228576291     0.1456281739     2.0644655078
   12      H      -2.1445450128     0.2957830986     1.5227934542
   13      C       2.4073407656    -0.0825273233    -0.1099962454
   14      C       3.5408475391    -0.0441270204    -0.9086396698
   15      H       4.5187884084    -0.1150296052    -0.4529962852
   16      C       3.4595980803     0.0679461229    -2.2874584391
   17      H       4.3657535914     0.1001213497    -2.8768671903
   18      C       2.2149149900     0.1215569909    -2.9114445683
   19      H       2.1414580432     0.1943348461    -3.9874915509
   20      C       1.0697427418     0.0771373105    -2.1567529327
   21      H       0.1117128859     0.1090551717    -2.6529575992
   22      C      -1.2659388775     0.0017035544    -0.6756247102
   23      C      -1.7241068922     1.1703877271    -1.2350798913
   24      H      -1.1123916699     2.0577128756    -1.1380311637
   25      C      -1.9948341445    -1.1719295442    -0.7624215721
   26      H      -1.6309174676    -2.0951354088    -0.3306138873
   27      C      -3.2156871638    -1.1074011915    -1.3969063891
   28      H      -3.8243705117    -2.0018875646    -1.4422251925
   29      C      -2.9265073040     1.2255149979    -1.9448986991
   30      C      -3.7099607396     0.0665768442    -1.9811017674
   31      C      -5.1001742057    -0.0026293160    -2.5431189106
   32      H      -5.5834065130    -0.8909730757    -2.1323588847
   33      H      -5.0779281529    -0.1450689491    -3.6274309678
   34      C       2.5329834714    -0.3041715731     1.3775035605
   35      C      -5.9286508151     1.2369825642    -2.2082235393
   36      H      -6.9870755357     0.9723268472    -2.1993907350
   37      H      -5.6919643924     1.5557252521    -1.1872726308
   38      C      -5.7028821893     2.3046096136    -3.2338725304
   39      C      -6.7720748967     2.7203041779    -3.9787145712
   40      H      -7.7594518799     2.3590745828    -3.7119300838
   41      C      -6.6596256553     3.5618485011    -5.1074436154
   42      C      -7.7933325933     3.9588801450    -5.8148979791
   43      N      -8.7418734509     4.2868737946    -6.4073634970
   44      C      -5.3232666521     3.9373334270    -5.5046596024
   45      C      -5.0873249658     4.7005183038    -6.6546909174
   46      N      -4.9010586875     5.3364759857    -7.6101265455
   47      C      -4.2406949557     3.5242666937    -4.7122189745
   48      H      -3.2616750976     3.8649866692    -5.0209775212
   49      C      -4.3704728784     2.7428878101    -3.5845132318
   50      C      -3.1591493793     2.5736682347    -2.6629727349
   51      C      -1.8612137833     2.8673032540    -3.4146243185
   52      C      -1.2922247118     2.1152873393    -4.4248419713
   53      H      -1.7834356540     1.2230088661    -4.7950912207
   54      C      -0.0814723901     2.5315958826    -4.9650618794
   55      H       0.3769527835     1.9591087972    -5.7611615944
   56      C      -1.2385268702     4.0174144018    -2.9382351474
   57      C      -0.0285680540     4.4347405330    -3.4764820423
   58      H       0.4650350774     5.3268920910    -3.1115725590
   59      C       0.5441970359     3.6824205704    -4.4926793956
   60      H       1.4870691509     3.9932098387    -4.9234123854
   61      C      -2.0499930864     4.5645507037    -1.8547704045
   62      C      -1.8696784562     5.6961885595    -1.0739517016
   63      H      -1.0194351376     6.3484462279    -1.2306166213
   64      C      -2.8029047159     5.9826981675    -0.0861779455
   65      H      -2.6805920065     6.8638941269     0.5299734206
   66      C      -3.8951109562     5.1454795030     0.1163979674
   67      H      -4.6147625388     5.3797466274     0.8902025117
   68      C      -4.0746151045     4.0110670653    -0.6675109580
   69      H      -4.9311968848     3.3712938538    -0.5005867999
   70      C      -3.1495797721     3.7269586353    -1.6543986122
   71      C       3.5504187040     0.6836570220     1.9742764271
   72      H       4.5273170937     0.5710117242     1.5078054924
   73      H       3.6904615274     0.5053604712     3.0390833489
   74      H       3.2219043120     1.7136428985     1.8395460696
   75      C       3.0171133846    -1.7556507263     1.5967960113
   76      H       3.9866435910    -1.9085943381     1.1233690550
   77      H       3.1233349269    -1.9634639801     2.6613633685
   78      H       2.3123754303    -2.4734531279     1.1766139630
 ----------------------------------------------------------------

   15   -1855.5501213659      5.12E-09 Convergence criterion met
 Total energy in the final basis set = -1855.55012137

         TDDFT/TDA Excitation Energies
 ---------------------------------------------------

 Excited state   1: excitation energy (eV) =    2.9575
 Total energy for state  1:                 -1855.44143446 au
    Multiplicity: Triplet
    Trans. Mom.:  0.0000 X   0.0000 Y   0.0000 Z
    Strength   :     0.0000000000
    D(148) --> V(  1) amplitude =  0.2304
    D(149) --> V(  1) amplitude =  0.2717
    D(150) --> V(  1) amplitude = -0.5944
    D(151) --> V(  1) amplitude = -0.4434
    D(152) --> V(  1) amplitude = -0.3912

 Excited state   2: excitation energy (eV) =    3.1768
 Total energy for state  2:                 -1855.43337590 au
    Multiplicity: Triplet
    Trans. Mom.:  0.0000 X   0.0000 Y   0.0000 Z
    Strength   :     0.0000000000
    D(158) --> V(  1) amplitude =  0.9949

 Excited state   3: excitation energy (eV) =    3.1776
 Total energy for state  3:                 -1855.43334631 au
    Multiplicity: Singlet
    Trans. Mom.: -0.1251 X   0.0823 Y  -0.0944 Z
    Strength   :     0.0024389704
    D(158) --> V(  1) amplitude =  0.9981

 Excited state   4: excitation energy (eV) =    3.3734
 Total energy for state  4:                 -1855.42615078 au
    Multiplicity: Triplet
    Trans. Mom.:  0.0000 X   0.0000 Y   0.0000 Z
    Strength   :     0.0000000000
    D(157) --> V(  2) amplitude = -0.5873
    D(157) --> V(  3) amplitude =  0.5742

 Excited state   5: excitation energy (eV) =    3.4204
 Total energy for state  5:                 -1855.42442332 au
    Multiplicity: Triplet
    Trans. Mom.:  0.0000 X   0.0000 Y   0.0000 Z
    Strength   :     0.0000000000
    D(158) --> V(  4) amplitude =  0.2306
    D(158) --> V(  6) amplitude =  0.2847
    D(158) --> V(  7) amplitude =  0.7856
    D(158) --> V(  8) amplitude =  0.2157

 Excited state   6: excitation energy (eV) =    3.7118
 Total energy for state  6:                 -1855.41371558 au
    Multiplicity: Triplet
    Trans. Mom.:  0.0000 X   0.0000 Y   0.0000 Z
    Strength   :     0.0000000000
    D(148) --> V(  1) amplitude =  0.3482
    D(149) --> V(  1) amplitude = -0.4861
    D(157) --> V(  1) amplitude =  0.7012

 Excited state   7: excitation energy (eV) =    3.7786
 Total energy for state  7:                 -1855.41125936 au
    Multiplicity: Triplet
    Trans. Mom.:  0.0000 X   0.0000 Y   0.0000 Z
    Strength   :     0.0000000000
    D(158) --> V(  6) amplitude =  0.4075
    D(158) --> V(  7) amplitude = -0.3004
    D(158) --> V(  8) amplitude =  0.7037

 Excited state   8: excitation energy (eV) =    3.8117
 Total energy for state  8:                 -1855.41004454 au
    Multiplicity: Singlet
    Trans. Mom.: -0.4655 X  -0.1168 Y  -0.2767 Z
    Strength   :     0.0286575818
    D(157) --> V(  1) amplitude =  0.9903

 Excited state   9: excitation energy (eV) =    4.2127
 Total energy for state  9:                 -1855.39530836 au
    Multiplicity: Singlet
    Trans. Mom.:  0.0814 X  -0.0295 Y  -0.0278 Z
    Strength   :     0.0008531327
    D(158) --> V(  2) amplitude =  0.9345
    D(158) --> V(  3) amplitude = -0.3412

 Excited state  10: excitation energy (eV) =    4.2705
 Total energy for state 10:                 -1855.39318438 au
    Multiplicity: Singlet
    Trans. Mom.: -0.0778 X  -0.1407 Y   0.3292 Z
    Strength   :     0.0140431754
    D(158) --> V(  3) amplitude =  0.3941
    D(158) --> V(  4) amplitude = -0.6881
    D(158) --> V(  5) amplitude = -0.4334
    D(158) --> V(  6) amplitude = -0.3541

 Excited state  11: excitation energy (eV) =    4.3717
 Total energy for state 11:                 -1855.38946284 au
    Multiplicity: Singlet
    Trans. Mom.: -0.0583 X   0.0215 Y  -0.2600 Z
    Strength   :     0.0076527100
    D(158) --> V(  3) amplitude = -0.3386
    D(158) --> V(  4) amplitude = -0.4200
    D(158) --> V(  5) amplitude = -0.2705
    D(158) --> V(  6) amplitude =  0.7189

 Excited state  12: excitation energy (eV) =    4.4971
 Total energy for state 12:                 -1855.38485422 au
    Multiplicity: Singlet
    Trans. Mom.: -0.1510 X   0.0457 Y  -0.0592 Z
    Strength   :     0.0031273950
    D(152) --> V(  1) amplitude = -0.2480
    D(155) --> V(  1) amplitude = -0.4464
    D(156) --> V(  1) amplitude =  0.8269

 ---------------------------------------------------
