 Q-Chem 5.0, Q-Chem, Inc., Pleasanton, CA (2017)
 Q-Chem 5.0.1 for Intel X86 EM64T Linux

User input:
--------------------------------------------------------------
$solvent
dielectric      1.0001
dielectric_infi 1.00009
$end

$rem
threads 8
jobtype	sp
method PBEh-3c
basis def2-mSVP
mem_static	1024
mem_total	14000
sym_ignore	true
cis_n_roots             2
cis_singlets            false
cis_triplets		true
rpa                     false
calc_soc 		true
cis_moments             true
cis_relaxed_density	true
solvent_method		pcm
$end

$pcm
StateSpecific   1
ChargeSeparation Excited
$end

$molecule
read ut1opt_vac.mol
$end

--------------------------------------------------------------

   16   -1855.4726195886      6.17E-09 Convergence criterion met
 Total energy in the final basis set = -1855.47261959
 Total job time:  3976.37s(wall), 11551.34s(cpu)
        *  Thank you very much for using Q-Chem.  Have a nice day.  *
 Q-Chem 5.0, Q-Chem, Inc., Pleasanton, CA (2017)
 Q-Chem 5.0.1 for Intel X86 EM64T Linux

User input:
--------------------------------------------------------------
$rem
threads 8
jobtype sp
method PBEh-3c
basis def2-mSVP
mem_static      1024
mem_total       14000
sym_ignore      true
cis_n_roots             6
cis_singlets            true
cis_triplets            true
rpa                     false
calc_soc                true
cis_moments             true
cis_relaxed_density     true
solvent_method          pcm
$end

$molecule
read
$end

$pcm
statespecific           Marcus
$end

$solvent
dielectric      1.0001
dielectric_infi 1.00009
$end

--------------------------------------------------------------

             Standard Nuclear Orientation (Angstroms)
    I     Atom           X                Y                Z
 ----------------------------------------------------------------
    1      N       0.0000000000     0.0000000000     0.0000000000
    2      C       0.0000000000     0.0000000000     1.3907290000
    3      C       1.2036772190     0.0000000000    -0.7074557984
    4      C       1.2066919418     0.0884832479    -2.1052437556
    5      H       0.2791807152     0.0880128315    -2.6593467060
    6      C       2.3915358205     0.1931827034    -2.8037064400
    7      H       2.3586110409     0.2731371752    -3.8821354889
    8      C       3.6010912368     0.2050116003    -2.1271741448
    9      H       4.5356685265     0.2997213695    -2.6631499320
   10      C       3.5983916708     0.0637398439    -0.7500570039
   11      H       4.5482617822     0.0433167109    -0.2315055461
   12      C       2.4268022812    -0.0740726389    -0.0156076388
   13      C      -1.2375751364     0.0378341925    -0.6844806240
   14      C      -1.5978651039     1.1624794784    -1.3967423644
   15      H      -0.9011473459     1.9898389029    -1.4127670929
   16      C      -2.1101980535    -1.0408497094    -0.6236789938
   17      H      -1.8440578221    -1.9321645956    -0.0720860599
   18      C      -3.3241953226    -0.9362776224    -1.2653038635
   19      H      -4.0273037969    -1.7570854175    -1.1893547244
   20      C      -2.7902293114     1.2491304853    -2.1172035341
   21      C      -3.6905868225     0.1856143904    -2.0153238714
   22      C      -1.2897290367    -0.0708905934     2.0936554141
   23      H      -2.0527439309     0.6726713307     1.8965056859
   24      C      -1.4911779565    -1.0446560059     3.0067474436
   25      H      -2.4332016289    -1.1051044307     3.5385156782
   26      C      -0.4466365025    -1.9627449341     3.3350956006
   27      H      -0.6347100726    -2.7639064375     4.0359567473
   28      C       0.8652725325    -1.7538829305     2.8419826854
   29      H       1.6612384170    -2.3771353751     3.2313393214
   30      C       1.1351584433    -0.7522696416     1.9629428309
   31      C       2.4890656731    -0.3133830613     1.4899208248
   32      C      -5.0764685001     0.1867496513    -2.5924670594
   33      H      -5.6588726295    -0.5801829530    -2.0790394758
   34      H      -5.0737750887    -0.0984397899    -3.6487482036
   35      C      -5.7696533615     1.5366053151    -2.4306946636
   36      H      -6.8514947347     1.3980290447    -2.4146223583
   37      H      -5.5061046109     1.9694643448    -1.4622114928
   38      C      -5.4129283247     2.4403151442    -3.5708529535
   39      C      -6.4509667516     2.8601475358    -4.3958277116
   40      H      -7.4671385607     2.5890900916    -4.1409923947
   41      C      -6.2309734996     3.5995131524    -5.5446590528
   42      C      -4.9164981647     3.9249702179    -5.8821222526
   43      C      -3.8798091888     3.5157083010    -5.0582045339
   44      H      -2.8762602781     3.7910453506    -5.3465146450
   45      C      -4.0924342218     2.7752523502    -3.8954602579
   46      C      -7.3343545172     3.9924901278    -6.3571620522
   47      N      -8.2438340431     4.2951788366    -6.9941626221
   48      C      -4.6242515999     4.6650472776    -7.0653009606
   49      N      -4.3734093429     5.2574582166    -8.0194239623
   50      C       3.5633020143    -1.3422263398     1.8407476704
   51      H       4.5570162590    -1.0046043571     1.5517580880
   52      H       3.3761267027    -2.2980775943     1.3511811310
   53      H       3.5951386793    -1.5073404763     2.9183485802
   54      C      -2.8652788078     2.5018468146    -3.0128745261
   55      C      -1.6009989492     2.4761479552    -3.8703770170
   56      C      -1.2387644064     1.5175999323    -4.7956292485
   57      H      -1.8751473189     0.6614892291    -4.9858809064
   58      C      -0.0391959992     1.6725855084    -5.4778254836
   59      H       0.2596194775     0.9364118508    -6.2124360055
   60      C       0.7795120513     2.7679331529    -5.2234627755
   61      H       1.7120737697     2.8738043216    -5.7613719405
   62      C       0.4159381391     3.7240964652    -4.2866369342
   63      H       1.0637752455     4.5691330274    -4.0922334008
   64      C      -0.7852146107     3.5738043445    -3.6103554829
   65      C      -1.4254003041     4.3899296828    -2.5831889741
   66      C      -1.0243322017     5.5736319203    -1.9851684234
   67      H      -0.0994128482     6.0559671273    -2.2741943257
   68      C      -1.8299549511     6.1325448252    -1.0043003635
   69      H      -1.5311473194     7.0566031960    -0.5279299046
   70      C      -3.0165314237     5.5164272067    -0.6244295407
   71      H      -3.6307900557     5.9638794377     0.1453964773
   72      C      -3.4197797470     4.3311819398    -1.2252275645
   73      H      -4.3448261193     3.8553557273    -0.9252042694
   74      C      -2.6196848437     3.7783674233    -2.2034093695
   75      C       2.8116971757     1.0209189151     2.1938941408
   76      H       2.0293903874     1.7589162840     2.0157875793
   77      H       2.8985577281     0.8698011158     3.2708501269
   78      H       3.7532042898     1.4323387428     1.8266693768
 ----------------------------------------------------------------

   16   -1855.4726195619      6.17E-09 Convergence criterion met
 Total energy in the final basis set = -1855.47261956

         TDDFT/TDA Excitation Energies
 ---------------------------------------------------

 Excited state   1: excitation energy (eV) =    1.8050
 Total energy for state  1:                 -1855.40628757 au
    Multiplicity: Triplet
    Trans. Mom.:  0.0000 X   0.0000 Y   0.0000 Z
    Strength   :     0.0000000000
    D(158) --> V(  3) amplitude =  0.8872
    D(158) --> V(  4) amplitude = -0.2372

 Excited state   2: excitation energy (eV) =    3.2512
 Total energy for state  2:                 -1855.35314047 au
    Multiplicity: Singlet
    Trans. Mom.: -0.0453 X  -0.6315 Y   1.3179 Z
    Strength   :     0.1702672251
    D(158) --> V(  1) amplitude = -0.5890
    D(158) --> V(  3) amplitude =  0.7606

 Excited state   3: excitation energy (eV) =    3.2640
 Total energy for state  3:                 -1855.35266872 au
    Multiplicity: Triplet
    Trans. Mom.:  0.0000 X   0.0000 Y   0.0000 Z
    Strength   :     0.0000000000
    D(158) --> V(  1) amplitude =  0.9879

 Excited state   4: excitation energy (eV) =    3.2788
 Total energy for state  4:                 -1855.35212559 au
    Multiplicity: Singlet
    Trans. Mom.: -0.1973 X  -0.3367 Y   0.8164 Z
    Strength   :     0.0657745403
    D(158) --> V(  1) amplitude =  0.8028
    D(158) --> V(  3) amplitude =  0.5623

 Excited state   5: excitation energy (eV) =    3.3700
 Total energy for state  5:                 -1855.34877266 au
    Multiplicity: Triplet
    Trans. Mom.:  0.0000 X   0.0000 Y   0.0000 Z
    Strength   :     0.0000000000
    D(157) --> V(  2) amplitude = -0.5844
    D(157) --> V(  4) amplitude =  0.4724

 Excited state   6: excitation energy (eV) =    3.4612
 Total energy for state  6:                 -1855.34542299 au
    Multiplicity: Triplet
    Trans. Mom.:  0.0000 X   0.0000 Y   0.0000 Z
    Strength   :     0.0000000000
    D(148) --> V(  1) amplitude =  0.2651
    D(149) --> V(  1) amplitude =  0.2761
    D(149) --> V(  2) amplitude =  0.2304
    D(150) --> V(  1) amplitude = -0.4316
    D(151) --> V(  1) amplitude = -0.3923
    D(152) --> V(  1) amplitude =  0.3537
    D(157) --> V(  4) amplitude = -0.2286

 Excited state   7: excitation energy (eV) =    3.5438
 Total energy for state  7:                 -1855.34238575 au
    Multiplicity: Triplet
    Trans. Mom.:  0.0000 X   0.0000 Y   0.0000 Z
    Strength   :     0.0000000000
    D(158) --> V(  7) amplitude = -0.6441
    D(158) --> V(  9) amplitude = -0.3343
    D(158) --> V( 10) amplitude = -0.2759

 Excited state   8: excitation energy (eV) =    3.6066
 Total energy for state  8:                 -1855.34008058 au
    Multiplicity: Triplet
    Trans. Mom.:  0.0000 X   0.0000 Y   0.0000 Z
    Strength   :     0.0000000000
    D(158) --> V(  2) amplitude = -0.3240
    D(158) --> V(  5) amplitude = -0.2755
    D(158) --> V(  6) amplitude =  0.5440
    D(158) --> V(  8) amplitude = -0.2885
    D(158) --> V(  9) amplitude =  0.2148
    D(158) --> V( 10) amplitude =  0.3611

 Excited state   9: excitation energy (eV) =    3.6855
 Total energy for state  9:                 -1855.33717931 au
    Multiplicity: Singlet
    Trans. Mom.:  0.0593 X  -0.0756 Y   0.0691 Z
    Strength   :     0.0012637559
    D(158) --> V(  2) amplitude =  0.9590

 Excited state  10: excitation energy (eV) =    3.9118
 Total energy for state 10:                 -1855.32886498 au
    Multiplicity: Singlet
    Trans. Mom.:  0.4891 X  -0.2082 Y   0.1260 Z
    Strength   :     0.0286035327
    D(158) --> V(  4) amplitude =  0.6002
    D(158) --> V(  6) amplitude = -0.5983
    D(158) --> V(  7) amplitude = -0.4674

 Excited state  11: excitation energy (eV) =    3.9978
 Total energy for state 11:                 -1855.32570305 au
    Multiplicity: Singlet
    Trans. Mom.: -0.6544 X  -0.2043 Y   0.2798 Z
    Strength   :     0.0537039736
    D(158) --> V(  4) amplitude = -0.2278
    D(158) --> V(  5) amplitude =  0.5920
    D(158) --> V(  6) amplitude = -0.5532
    D(158) --> V(  7) amplitude =  0.4603

 Excited state  12: excitation energy (eV) =    4.2145
 Total energy for state 12:                 -1855.31773880 au
    Multiplicity: Singlet
    Trans. Mom.: -0.3591 X  -0.0007 Y   0.0876 Z
    Strength   :     0.0141096869
    D(158) --> V(  2) amplitude =  0.2408
    D(158) --> V(  4) amplitude =  0.6969
    D(158) --> V(  6) amplitude =  0.2373
    D(158) --> V(  7) amplitude =  0.5701

 ---------------------------------------------------

                    Orbital Energies (a.u.)
 --------------------------------------------------------------

 Alpha MOs
 -- Occupied --
-14.689 -14.657 -14.654 -10.522 -10.520 -10.511 -10.507 -10.505
-10.500 -10.500 -10.498 -10.498 -10.495 -10.493 -10.491 -10.485
-10.478 -10.477 -10.476 -10.474 -10.474 -10.473 -10.470 -10.468
-10.468 -10.468 -10.467 -10.467 -10.466 -10.466 -10.465 -10.464
-10.462 -10.461 -10.460 -10.454 -10.454 -10.447 -10.446 -10.446
-10.445 -10.444 -10.442 -10.442 -10.439 -10.431 -10.427  -1.096
 -1.042  -1.029  -1.019  -1.004  -0.986  -0.969  -0.961  -0.952
 -0.938  -0.933  -0.908  -0.899  -0.890  -0.884  -0.858  -0.856
 -0.847  -0.845  -0.835  -0.826  -0.821  -0.803  -0.794  -0.773
 -0.769  -0.747  -0.732  -0.725  -0.713  -0.711  -0.704  -0.691
 -0.682  -0.679  -0.673  -0.668  -0.664  -0.644  -0.619  -0.615
 -0.611  -0.606  -0.599  -0.583  -0.582  -0.572  -0.564  -0.561
 -0.547  -0.540  -0.535  -0.532  -0.528  -0.526  -0.523  -0.519
 -0.516  -0.510  -0.507  -0.502  -0.502  -0.500  -0.497  -0.495
 -0.491  -0.488  -0.485  -0.482  -0.475  -0.468  -0.460  -0.451
 -0.450  -0.446  -0.441  -0.439  -0.438  -0.436  -0.434  -0.432
 -0.431  -0.426  -0.424  -0.422  -0.420  -0.416  -0.415  -0.412
 -0.409  -0.403  -0.400  -0.399  -0.396  -0.395  -0.392  -0.378
 -0.371  -0.363  -0.350  -0.337  -0.322  -0.314  -0.307  -0.306
 -0.299  -0.288  -0.287  -0.278  -0.271  -0.209

          Ground-State Mulliken Net Atomic Charges

     Atom                 Charge (a.u.)
  ----------------------------------------
      1 N                    -0.616221
      2 C                     0.188500
      3 C                     0.329124
      4 C                    -0.305353
      5 H                     0.261902
      6 C                    -0.223843
      7 H                     0.214045
      8 C                    -0.226858
      9 H                     0.211261
     10 C                    -0.290856
     11 H                     0.207962
     12 C                     0.136831
     13 C                     0.234848
     14 C                    -0.288057
     15 H                     0.277630
     16 C                    -0.218535
     17 H                     0.254150
     18 C                    -0.300991
     19 H                     0.218791
     20 C                     0.228841
     21 C                     0.057877
     22 C                    -0.320862
     23 H                     0.243188
     24 C                    -0.201209
     25 H                     0.218165
     26 C                    -0.257667
     27 H                     0.213964
     28 C                    -0.288118
     29 H                     0.216678
     30 C                     0.098712
     31 C                    -0.203732
     32 C                    -0.515267
     33 H                     0.247257
     34 H                     0.252519
     35 C                    -0.545541
     36 H                     0.251793
     37 H                     0.256708
     38 C                     0.105861
     39 C                    -0.318782
     40 H                     0.246125
     41 C                     0.079563
     42 C                     0.092216
     43 C                    -0.296184
     44 H                     0.281417
     45 C                     0.207737
     46 C                    -0.007144
     47 N                    -0.153812
     48 C                    -0.008871
     49 N                    -0.154799
     50 C                    -0.645604
     51 H                     0.226021
     52 H                     0.238697
     53 H                     0.221977
     54 C                    -0.430612
     55 C                     0.031418
     56 C                    -0.257643
     57 H                     0.229641
     58 C                    -0.239673
     59 H                     0.231000
     60 C                    -0.210952
     61 H                     0.230221
     62 C                    -0.324387
     63 H                     0.214430
     64 C                     0.166500
     65 C                     0.137074
     66 C                    -0.322048
     67 H                     0.213725
     68 C                    -0.216864
     69 H                     0.229141
     70 C                    -0.222614
     71 H                     0.227848
     72 C                    -0.279866
     73 H                     0.216281
     74 C                     0.160780
     75 C                    -0.585267
     76 H                     0.232944
     77 H                     0.222159
     78 H                     0.214710
  ----------------------------------------
  Sum of atomic charges =    -0.000000

                    Cartesian Multipole Moments
 -----------------------------------------------------------------
    Charge (ESU x 10^10)
                -0.0000
    Dipole Moment (Debye)
         X       2.8598      Y      -3.2534      Z       5.8684
       Tot       7.2939
    Quadrupole Moments (Debye-Ang)
        XX    -281.7276     XY      37.4640     YY    -286.1062
        XZ     -57.0394     YZ      46.3302     ZZ    -336.5106

 Total job time:  7453.34s(wall), 28064.61s(cpu)
        *  Thank you very much for using Q-Chem.  Have a nice day.  *
