 Q-Chem 5.0, Q-Chem, Inc., Pleasanton, CA (2017)
 Q-Chem 5.0.1 for Intel X86 EM64T Linux

User input:
--------------------------------------------------------------
$solvent
dielectric      8.93
dielectric_infi 2.03
$end

$rem
threads 8
jobtype	sp
method PBEh-3c
basis def2-mSVP
mem_static	1024
mem_total	14000
sym_ignore	true
cis_n_roots             2
cis_singlets            false
cis_triplets		true
rpa                     false
calc_soc 		true
cis_moments             true
cis_relaxed_density	true
solvent_method		pcm
$end

$pcm
StateSpecific   2
ChargeSeparation Excited
$end

$molecule
read ut1opt_dcm.mol
$end

--------------------------------------------------------------

   15   -1855.5501964153      4.66E-09 Convergence criterion met
 Total energy in the final basis set = -1855.55019642
 Total job time:  3869.63s(wall), 11388.66s(cpu)
        *  Thank you very much for using Q-Chem.  Have a nice day.  *
 Q-Chem 5.0, Q-Chem, Inc., Pleasanton, CA (2017)
 Q-Chem 5.0.1 for Intel X86 EM64T Linux

User input:
--------------------------------------------------------------
$rem
threads 8
jobtype sp
method PBEh-3c
basis def2-mSVP
mem_static      1024
mem_total       14000
sym_ignore      true
cis_n_roots             6
cis_singlets            true
cis_triplets            true
rpa                     false
calc_soc                true
cis_moments             true
cis_relaxed_density     true
solvent_method          pcm
$end

$molecule
read
$end

$pcm
statespecific           Marcus
$end

$solvent
dielectric      8.93
dielectric_infi 2.03
$end

--------------------------------------------------------------

             Standard Nuclear Orientation (Angstroms)
    I     Atom           X                Y                Z
 ----------------------------------------------------------------
    1      N       0.0000000000     0.0000000000     0.0000000000
    2      C       0.0000000000     0.0000000000     1.3764090000
    3      C       1.1550308170     0.0000000000    -0.7510266368
    4      C       1.2095773025    -0.1454851102     2.0802817060
    5      C       1.1431591770    -0.1913092649     3.4657648939
    6      H       2.0482022215    -0.3268048158     4.0415582341
    7      C      -0.0590955594    -0.0727359218     4.1436391501
    8      H      -0.0709722985    -0.1138494572     5.2243151514
    9      C      -1.2459530349     0.1082414814     3.4360366919
   10      H      -2.1851882499     0.2214963172     3.9590629046
   11      C      -1.2228576291     0.1456281739     2.0644655078
   12      H      -2.1445450128     0.2957830986     1.5227934542
   13      C       2.4073407656    -0.0825273233    -0.1099962454
   14      C       3.5408475391    -0.0441270204    -0.9086396698
   15      H       4.5187884084    -0.1150296052    -0.4529962852
   16      C       3.4595980803     0.0679461229    -2.2874584391
   17      H       4.3657535914     0.1001213497    -2.8768671903
   18      C       2.2149149900     0.1215569909    -2.9114445683
   19      H       2.1414580432     0.1943348461    -3.9874915509
   20      C       1.0697427418     0.0771373105    -2.1567529327
   21      H       0.1117128859     0.1090551717    -2.6529575992
   22      C      -1.2659388775     0.0017035544    -0.6756247102
   23      C      -1.7241068922     1.1703877271    -1.2350798913
   24      H      -1.1123916699     2.0577128756    -1.1380311637
   25      C      -1.9948341445    -1.1719295442    -0.7624215721
   26      H      -1.6309174676    -2.0951354088    -0.3306138873
   27      C      -3.2156871638    -1.1074011915    -1.3969063891
   28      H      -3.8243705117    -2.0018875646    -1.4422251925
   29      C      -2.9265073040     1.2255149979    -1.9448986991
   30      C      -3.7099607396     0.0665768442    -1.9811017674
   31      C      -5.1001742057    -0.0026293160    -2.5431189106
   32      H      -5.5834065130    -0.8909730757    -2.1323588847
   33      H      -5.0779281529    -0.1450689491    -3.6274309678
   34      C       2.5329834714    -0.3041715731     1.3775035605
   35      C      -5.9286508151     1.2369825642    -2.2082235393
   36      H      -6.9870755357     0.9723268472    -2.1993907350
   37      H      -5.6919643924     1.5557252521    -1.1872726308
   38      C      -5.7028821893     2.3046096136    -3.2338725304
   39      C      -6.7720748967     2.7203041779    -3.9787145712
   40      H      -7.7594518799     2.3590745828    -3.7119300838
   41      C      -6.6596256553     3.5618485011    -5.1074436154
   42      C      -7.7933325933     3.9588801450    -5.8148979791
   43      N      -8.7418734509     4.2868737946    -6.4073634970
   44      C      -5.3232666521     3.9373334270    -5.5046596024
   45      C      -5.0873249658     4.7005183038    -6.6546909174
   46      N      -4.9010586875     5.3364759857    -7.6101265455
   47      C      -4.2406949557     3.5242666937    -4.7122189745
   48      H      -3.2616750976     3.8649866692    -5.0209775212
   49      C      -4.3704728784     2.7428878101    -3.5845132318
   50      C      -3.1591493793     2.5736682347    -2.6629727349
   51      C      -1.8612137833     2.8673032540    -3.4146243185
   52      C      -1.2922247118     2.1152873393    -4.4248419713
   53      H      -1.7834356540     1.2230088661    -4.7950912207
   54      C      -0.0814723901     2.5315958826    -4.9650618794
   55      H       0.3769527835     1.9591087972    -5.7611615944
   56      C      -1.2385268702     4.0174144018    -2.9382351474
   57      C      -0.0285680540     4.4347405330    -3.4764820423
   58      H       0.4650350774     5.3268920910    -3.1115725590
   59      C       0.5441970359     3.6824205704    -4.4926793956
   60      H       1.4870691509     3.9932098387    -4.9234123854
   61      C      -2.0499930864     4.5645507037    -1.8547704045
   62      C      -1.8696784562     5.6961885595    -1.0739517016
   63      H      -1.0194351376     6.3484462279    -1.2306166213
   64      C      -2.8029047159     5.9826981675    -0.0861779455
   65      H      -2.6805920065     6.8638941269     0.5299734206
   66      C      -3.8951109562     5.1454795030     0.1163979674
   67      H      -4.6147625388     5.3797466274     0.8902025117
   68      C      -4.0746151045     4.0110670653    -0.6675109580
   69      H      -4.9311968848     3.3712938538    -0.5005867999
   70      C      -3.1495797721     3.7269586353    -1.6543986122
   71      C       3.5504187040     0.6836570220     1.9742764271
   72      H       4.5273170937     0.5710117242     1.5078054924
   73      H       3.6904615274     0.5053604712     3.0390833489
   74      H       3.2219043120     1.7136428985     1.8395460696
   75      C       3.0171133846    -1.7556507263     1.5967960113
   76      H       3.9866435910    -1.9085943381     1.1233690550
   77      H       3.1233349269    -1.9634639801     2.6613633685
   78      H       2.3123754303    -2.4734531279     1.1766139630
 ----------------------------------------------------------------

   15   -1855.5278188476      5.38E-09 Convergence criterion met
 Total energy in the final basis set = -1855.52781885

         TDDFT/TDA Excitation Energies
 ---------------------------------------------------

 Excited state   1: excitation energy (eV) =    1.9682
 Total energy for state  1:                 -1855.45548796 au
    Multiplicity: Triplet
    Trans. Mom.:  0.0000 X   0.0000 Y   0.0000 Z
    Strength   :     0.0000000000
    D(158) --> V(  1) amplitude =  0.9989

 Excited state   2: excitation energy (eV) =    1.9701
 Total energy for state  2:                 -1855.45541925 au
    Multiplicity: Singlet
    Trans. Mom.: -0.1794 X   0.1067 Y  -0.1364 Z
    Strength   :     0.0030017998
    D(158) --> V(  1) amplitude =  0.9990

 Excited state   3: excitation energy (eV) =    2.9243
 Total energy for state  3:                 -1855.42035214 au
    Multiplicity: Triplet
    Trans. Mom.:  0.0000 X   0.0000 Y   0.0000 Z
    Strength   :     0.0000000000
    D(149) --> V(  1) amplitude =  0.6542
    D(150) --> V(  1) amplitude =  0.5113
    D(151) --> V(  1) amplitude =  0.2391
    D(156) --> V(  1) amplitude =  0.2514

 Excited state   4: excitation energy (eV) =    3.2396
 Total energy for state  4:                 -1855.40876452 au
    Multiplicity: Triplet
    Trans. Mom.:  0.0000 X   0.0000 Y   0.0000 Z
    Strength   :     0.0000000000
    D(149) --> V(  1) amplitude = -0.2993
    D(154) --> V(  1) amplitude =  0.2170
    D(156) --> V(  1) amplitude =  0.6305
    D(157) --> V(  1) amplitude = -0.4246

 Excited state   5: excitation energy (eV) =    3.2624
 Total energy for state  5:                 -1855.40792654 au
    Multiplicity: Triplet
    Trans. Mom.:  0.0000 X   0.0000 Y   0.0000 Z
    Strength   :     0.0000000000
    D(158) --> V(  2) amplitude =  0.9672

 Excited state   6: excitation energy (eV) =    3.2642
 Total energy for state  6:                 -1855.40786302 au
    Multiplicity: Singlet
    Trans. Mom.:  0.0911 X  -0.0629 Y   0.0806 Z
    Strength   :     0.0014991181
    D(158) --> V(  2) amplitude =  0.9854

 Excited state   7: excitation energy (eV) =    3.2805
 Total energy for state  7:                 -1855.40726449 au
    Multiplicity: Singlet
    Trans. Mom.: -0.3768 X  -0.1188 Y  -0.2603 Z
    Strength   :     0.0179904368
    D(154) --> V(  1) amplitude =  0.2784
    D(155) --> V(  1) amplitude =  0.2379
    D(156) --> V(  1) amplitude =  0.7618
    D(157) --> V(  1) amplitude = -0.5213

 Excited state   8: excitation energy (eV) =    3.4038
 Total energy for state  8:                 -1855.40273241 au
    Multiplicity: Triplet
    Trans. Mom.:  0.0000 X   0.0000 Y   0.0000 Z
    Strength   :     0.0000000000
    D(154) --> V(  3) amplitude =  0.3341
    D(156) --> V(  1) amplitude = -0.2917
    D(156) --> V(  2) amplitude = -0.2324
    D(156) --> V(  3) amplitude =  0.4926
    D(157) --> V(  1) amplitude =  0.2122
    D(157) --> V(  3) amplitude = -0.3466

 Excited state   9: excitation energy (eV) =    3.4233
 Total energy for state  9:                 -1855.40201458 au
    Multiplicity: Triplet
    Trans. Mom.:  0.0000 X   0.0000 Y   0.0000 Z
    Strength   :     0.0000000000
    D(158) --> V(  6) amplitude =  0.2388
    D(158) --> V( 10) amplitude = -0.8061

 Excited state  10: excitation energy (eV) =    3.6896
 Total energy for state 10:                 -1855.39222871 au
    Multiplicity: Singlet
    Trans. Mom.:  0.0775 X  -0.0487 Y   0.1055 Z
    Strength   :     0.0017627243
    D(158) --> V(  3) amplitude =  0.9638

 Excited state  11: excitation energy (eV) =    3.7688
 Total energy for state 11:                 -1855.38931834 au
    Multiplicity: Singlet
    Trans. Mom.:  0.0555 X   0.0096 Y  -0.0150 Z
    Strength   :     0.0003136621
    D(153) --> V(  1) amplitude =  0.3150
    D(155) --> V(  1) amplitude =  0.2577
    D(156) --> V(  1) amplitude =  0.4638
    D(157) --> V(  1) amplitude =  0.7528

 Excited state  12: excitation energy (eV) =    3.8412
 Total energy for state 12:                 -1855.38665774 au
    Multiplicity: Singlet
    Trans. Mom.:  0.1562 X   0.0329 Y   0.0198 Z
    Strength   :     0.0024354404
    D(152) --> V(  1) amplitude =  0.3115
    D(153) --> V(  1) amplitude =  0.4877
    D(154) --> V(  1) amplitude = -0.6370
    D(155) --> V(  1) amplitude =  0.2601
    D(157) --> V(  1) amplitude = -0.3953

 ---------------------------------------------------

                    Orbital Energies (a.u.)
 --------------------------------------------------------------

 Alpha MOs
 -- Occupied --
-14.700 -14.696 -14.662 -10.552 -10.551 -10.546 -10.543 -10.526
-10.519 -10.514 -10.512 -10.511 -10.485 -10.479 -10.479 -10.476
-10.475 -10.473 -10.473 -10.472 -10.470 -10.470 -10.466 -10.463
-10.462 -10.462 -10.462 -10.461 -10.461 -10.459 -10.458 -10.451
-10.450 -10.448 -10.446 -10.432 -10.431 -10.425 -10.423 -10.423
-10.422 -10.422 -10.422 -10.416 -10.415 -10.401 -10.401  -1.079
 -1.069  -1.057  -1.037  -1.016  -0.978  -0.966  -0.952  -0.939
 -0.938  -0.936  -0.910  -0.891  -0.889  -0.883  -0.854  -0.849
 -0.844  -0.832  -0.822  -0.817  -0.810  -0.797  -0.791  -0.772
 -0.751  -0.746  -0.731  -0.726  -0.702  -0.700  -0.692  -0.691
 -0.679  -0.675  -0.668  -0.660  -0.650  -0.642  -0.617  -0.613
 -0.599  -0.597  -0.596  -0.585  -0.576  -0.569  -0.557  -0.554
 -0.547  -0.535  -0.531  -0.528  -0.518  -0.517  -0.514  -0.509
 -0.507  -0.504  -0.504  -0.503  -0.497  -0.490  -0.488  -0.486
 -0.482  -0.482  -0.478  -0.475  -0.468  -0.466  -0.464  -0.461
 -0.459  -0.454  -0.449  -0.446  -0.438  -0.435  -0.433  -0.430
 -0.428  -0.423  -0.422  -0.419  -0.417  -0.412  -0.409  -0.406
 -0.405  -0.401  -0.397  -0.394  -0.393  -0.382  -0.375  -0.356
 -0.354  -0.354  -0.345  -0.344  -0.336  -0.316  -0.309  -0.292
 -0.290  -0.276  -0.270  -0.267  -0.266  -0.201

          Ground-State Mulliken Net Atomic Charges

     Atom                 Charge (a.u.)
  ----------------------------------------
      1 N                    -0.705710
      2 C                     0.309347
      3 C                     0.315085
      4 C                     0.132633
      5 C                    -0.316216
      6 H                     0.244898
      7 C                    -0.259867
      8 H                     0.236973
      9 C                    -0.256032
     10 H                     0.240444
     11 C                    -0.319367
     12 H                     0.259446
     13 C                     0.125023
     14 C                    -0.314433
     15 H                     0.244797
     16 C                    -0.260789
     17 H                     0.236281
     18 C                    -0.256848
     19 H                     0.236391
     20 C                    -0.323325
     21 H                     0.263005
     22 C                     0.152264
     23 C                    -0.251375
     24 H                     0.285977
     25 C                    -0.220302
     26 H                     0.276033
     27 C                    -0.325689
     28 H                     0.250488
     29 C                     0.225364
     30 C                     0.052114
     31 C                    -0.526737
     32 H                     0.276099
     33 H                     0.252999
     34 C                    -0.196523
     35 C                    -0.561771
     36 H                     0.273463
     37 H                     0.283190
     38 C                     0.133624
     39 C                    -0.325143
     40 H                     0.283425
     41 C                     0.051982
     42 C                     0.012091
     43 N                    -0.222628
     44 C                     0.064679
     45 C                     0.011561
     46 N                    -0.220702
     47 C                    -0.300315
     48 H                     0.298741
     49 C                     0.170644
     50 C                    -0.404150
     51 C                     0.011539
     52 C                    -0.268622
     53 H                     0.252840
     54 C                    -0.251095
     55 H                     0.259707
     56 C                     0.152424
     57 C                    -0.349742
     58 H                     0.251176
     59 C                    -0.237883
     60 H                     0.261382
     61 C                     0.114492
     62 C                    -0.341420
     63 H                     0.252576
     64 C                    -0.246817
     65 H                     0.260487
     66 C                    -0.248486
     67 H                     0.258006
     68 C                    -0.314062
     69 H                     0.246275
     70 C                     0.158403
     71 C                    -0.634701
     72 H                     0.233780
     73 H                     0.234348
     74 H                     0.234628
     75 C                    -0.614565
     76 H                     0.229827
     77 H                     0.230120
     78 H                     0.234244
  ----------------------------------------
  Sum of atomic charges =     0.000000

                    Cartesian Multipole Moments
 -----------------------------------------------------------------
    Charge (ESU x 10^10)
                 0.0000
    Dipole Moment (Debye)
         X       5.1862      Y      -6.2162      Z       8.9728
       Tot      12.0850
    Quadrupole Moments (Debye-Ang)
        XX    -299.4481     XY      59.2006     YY    -298.9125
        XZ     -78.1102     YZ      65.7055     ZZ    -345.1820

 Total job time:  7247.50s(wall), 27226.29s(cpu)
        *  Thank you very much for using Q-Chem.  Have a nice day.  *
