 Q-Chem 5.0, Q-Chem, Inc., Pleasanton, CA (2017)
 Q-Chem 5.0.1 for Intel X86 EM64T Linux

User input:
--------------------------------------------------------------
$solvent
dielectric      4.33
dielectric_infi 1.83
$end

$rem
threads 8
jobtype	sp
method PBEh-3c
basis def2-mSVP
mem_static	1024
mem_total	14000
sym_ignore	true
cis_n_roots             2
cis_singlets            false
cis_triplets		true
rpa                     false
calc_soc 		true
cis_moments             true
cis_relaxed_density	true
solvent_method		pcm
$end

$pcm
StateSpecific   2
ChargeSeparation Excited
$end

$molecule
read ut1opt_eth.mol
$end

--------------------------------------------------------------

   15   -1855.5452535353      4.82E-09 Convergence criterion met
 Total energy in the final basis set = -1855.54525354
 Total job time:  3888.95s(wall), 11374.46s(cpu)
        *  Thank you very much for using Q-Chem.  Have a nice day.  *
 Q-Chem 5.0, Q-Chem, Inc., Pleasanton, CA (2017)
 Q-Chem 5.0.1 for Intel X86 EM64T Linux

User input:
--------------------------------------------------------------
$rem
threads 8
jobtype sp
method PBEh-3c
basis def2-mSVP
mem_static      1024
mem_total       14000
sym_ignore      true
cis_n_roots             6
cis_singlets            true
cis_triplets            true
rpa                     false
calc_soc                true
cis_moments             true
cis_relaxed_density     true
solvent_method          pcm
$end

$molecule
read
$end

$pcm
statespecific           Marcus
$end

$solvent
dielectric      4.33
dielectric_infi 1.83
$end

--------------------------------------------------------------

             Standard Nuclear Orientation (Angstroms)
    I     Atom           X                Y                Z
 ----------------------------------------------------------------
    1      N       0.0000000000     0.0000000000     0.0000000000
    2      C       0.0000000000     0.0000000000     1.3771020000
    3      C       1.1568311528     0.0000000000    -0.7491192698
    4      C       1.2058655327    -0.1673546348     2.0820947765
    5      C       1.1363694080    -0.2143889070     3.4672962596
    6      H       2.0375095422    -0.3686050509     4.0444097438
    7      C      -0.0640637978    -0.0734815439     4.1440557461
    8      H      -0.0778524329    -0.1155751142     5.2246563008
    9      C      -1.2457287695     0.1328283505     3.4355703612
   10      H      -2.1828119907     0.2667349856     3.9574869754
   11      C      -1.2200759199     0.1705826250     2.0640326832
   12      H      -2.1367272937     0.3433108557     1.5206213105
   13      C       2.4067545249    -0.1058842226    -0.1061298920
   14      C       3.5419042353    -0.0711614913    -0.9020930986
   15      H       4.5178030183    -0.1627332052    -0.4461907920
   16      C       3.4653950237     0.0634348513    -2.2792477573
   17      H       4.3733135858     0.0931906254    -2.8660703017
   18      C       2.2234615755     0.1435707828    -2.9047317021
   19      H       2.1523140974     0.2380301914    -3.9790990272
   20      C       1.0760549509     0.0998328893    -2.1534928139
   21      H       0.1201541644     0.1551529720    -2.6516771559
   22      C      -1.2675535817    -0.0049687369    -0.6723480680
   23      C      -1.7217858043     1.1508869202    -1.2611030289
   24      H      -1.1054969413     2.0376899759    -1.1930206808
   25      C      -2.0067078878    -1.1750226722    -0.7210360569
   26      H      -1.6471531009    -2.0892212627    -0.2669121537
   27      C      -3.2321388937    -1.1180667435    -1.3467741311
   28      H      -3.8483081276    -2.0084459567    -1.3624501299
   29      C      -2.9279261576     1.1953143158    -1.9650944560
   30      C      -3.7225600096     0.0431574190    -1.9593264980
   31      C      -5.1203230041    -0.0264944234    -2.5016271816
   32      H      -5.6086342103    -0.8958692373    -2.0569369859
   33      H      -5.1139328101    -0.2014174666    -3.5812323625
   34      C       2.5258553545    -0.3528487037     1.3785429239
   35      C      -5.9272480814     1.2353623987    -2.1963686314
   36      H      -6.9889450231     0.9857426233    -2.1638658481
   37      H      -5.6714547425     1.5825584313    -1.1886498410
   38      C      -5.7008907432     2.2644399620    -3.2601201056
   39      C      -6.7728264333     2.6676193028    -4.0082573826
   40      H      -7.7623683512     2.3325357058    -3.7163452775
   41      C      -6.6625346215     3.4604426975    -5.1702404776
   42      C      -7.8030639580     3.8426939168    -5.8775546584
   43      N      -8.7605846069     4.1526308554    -6.4635723550
   44      C      -5.3259897440     3.7990015152    -5.5982458221
   45      C      -4.2409555255     3.4028388475    -4.8045538647
   46      H      -3.2614112729     3.7177900093    -5.1382646616
   47      C      -4.3668769335     2.6664817356    -3.6449837241
   48      C      -5.0889807325     4.5100340023    -6.7830211132
   49      N      -4.8940073188     5.1003336130    -7.7645951435
   50      C      -3.1500445959     2.5197828927    -2.7297771027
   51      C      -1.8543874182     2.7620091110    -3.5028585532
   52      C      -1.3146490024     1.9684157581    -4.4971174219
   53      H      -1.8339639890     1.0805968326    -4.8385265800
   54      C      -0.1029474417     2.3425445069    -5.0650650431
   55      H       0.3284367272     1.7416031641    -5.8554093175
   56      C      -1.2015452694     3.9120105378    -3.0685149072
   57      C       0.0107754124     4.2853431487    -3.6329052409
   58      H       0.5267294336     5.1785094102    -3.3032371213
   59      C       0.5540435904     3.4916539294    -4.6333830822
   60      H       1.4958949844     3.7712470219    -5.0871218290
   61      C      -1.9918999421     4.5125380085    -1.9979220759
   62      C      -1.7825374905     5.6664138386    -1.2584656842
   63      H      -0.9198656291     6.2946934561    -1.4427236063
   64      C      -2.7049652972     6.0096665142    -0.2791160461
   65      H      -2.5612080519     6.9102526347     0.3033777142
   66      C      -3.8167101144     5.2072281892    -0.0455699982
   67      H      -4.5306546857     5.4887556762     0.7176656094
   68      C      -4.0254479580     4.0503387477    -0.7874272479
   69      H      -4.9002411047     3.4411979422    -0.6016581984
   70      C      -3.1092267339     3.7077716034    -1.7638935006
   71      C       3.5708990428     0.5964849320     1.9887996344
   72      H       4.5466361899     0.4586308619     1.5267650017
   73      H       3.7027066072     0.4069068019     3.0526277817
   74      H       3.2752900450     1.6371948755     1.8615641199
   75      C       2.9666411653    -1.8212910541     1.5771123504
   76      H       3.9301915326    -1.9979515917     1.0996923219
   77      H       3.0675436260    -2.0478760613     2.6385089153
   78      H       2.2409860623    -2.5129595061     1.1488720448
 ----------------------------------------------------------------

   15   -1855.5276280944      5.43E-09 Convergence criterion met
 Total energy in the final basis set = -1855.52762809

         TDDFT/TDA Excitation Energies
 ---------------------------------------------------

 Excited state   1: excitation energy (eV) =    2.2178
 Total energy for state  1:                 -1855.44612555 au
    Multiplicity: Triplet
    Trans. Mom.:  0.0000 X   0.0000 Y   0.0000 Z
    Strength   :     0.0000000000
    D(158) --> V(  1) amplitude =  0.9986

 Excited state   2: excitation energy (eV) =    2.2197
 Total energy for state  2:                 -1855.44605486 au
    Multiplicity: Singlet
    Trans. Mom.: -0.1664 X   0.0991 Y  -0.1294 Z
    Strength   :     0.0029499270
    D(158) --> V(  1) amplitude =  0.9988

 Excited state   3: excitation energy (eV) =    2.9476
 Total energy for state  3:                 -1855.41930453 au
    Multiplicity: Triplet
    Trans. Mom.:  0.0000 X   0.0000 Y   0.0000 Z
    Strength   :     0.0000000000
    D(149) --> V(  1) amplitude =  0.6237
    D(150) --> V(  1) amplitude =  0.5614
    D(151) --> V(  1) amplitude = -0.2980
    D(157) --> V(  1) amplitude =  0.2489

 Excited state   4: excitation energy (eV) =    3.3222
 Total energy for state  4:                 -1855.40553850 au
    Multiplicity: Triplet
    Trans. Mom.:  0.0000 X   0.0000 Y   0.0000 Z
    Strength   :     0.0000000000
    D(149) --> V(  1) amplitude = -0.2140
    D(157) --> V(  1) amplitude =  0.5723
    D(157) --> V(  2) amplitude = -0.2567
    D(157) --> V(  3) amplitude =  0.5177

 Excited state   5: excitation energy (eV) =    3.4302
 Total energy for state  5:                 -1855.40156885 au
    Multiplicity: Triplet
    Trans. Mom.:  0.0000 X   0.0000 Y   0.0000 Z
    Strength   :     0.0000000000
    D(158) --> V(  6) amplitude =  0.2282
    D(158) --> V( 10) amplitude = -0.7839
    D(158) --> V( 11) amplitude = -0.2247

 Excited state   6: excitation energy (eV) =    3.4328
 Total energy for state  6:                 -1855.40147469 au
    Multiplicity: Singlet
    Trans. Mom.: -0.3883 X  -0.1146 Y  -0.2489 Z
    Strength   :     0.0189959194
    D(157) --> V(  1) amplitude =  0.9554

 Excited state   7: excitation energy (eV) =    3.4462
 Total energy for state  7:                 -1855.40098246 au
    Multiplicity: Triplet
    Trans. Mom.:  0.0000 X   0.0000 Y   0.0000 Z
    Strength   :     0.0000000000
    D(157) --> V(  1) amplitude = -0.2599
    D(158) --> V(  2) amplitude =  0.9141

 Excited state   8: excitation energy (eV) =    3.4507
 Total energy for state  8:                 -1855.40081880 au
    Multiplicity: Singlet
    Trans. Mom.:  0.0816 X  -0.0662 Y   0.0772 Z
    Strength   :     0.0014373239
    D(158) --> V(  2) amplitude =  0.9753

 Excited state   9: excitation energy (eV) =    3.4618
 Total energy for state  9:                 -1855.40040966 au
    Multiplicity: Triplet
    Trans. Mom.:  0.0000 X   0.0000 Y   0.0000 Z
    Strength   :     0.0000000000
    D(157) --> V(  1) amplitude =  0.6414
    D(157) --> V(  2) amplitude =  0.2270
    D(157) --> V(  3) amplitude = -0.4439
    D(158) --> V(  2) amplitude =  0.3292

 Excited state  10: excitation energy (eV) =    3.7984
 Total energy for state 10:                 -1855.38804085 au
    Multiplicity: Singlet
    Trans. Mom.:  0.1281 X  -0.0727 Y   0.1483 Z
    Strength   :     0.0040665373
    D(158) --> V(  3) amplitude =  0.9367
    D(158) --> V(  6) amplitude =  0.2749

 Excited state  11: excitation energy (eV) =    3.9659
 Total energy for state 11:                 -1855.38188287 au
    Multiplicity: Singlet
    Trans. Mom.:  0.1812 X   0.0744 Y   0.0773 Z
    Strength   :     0.0043104290
    D(158) --> V(  4) amplitude = -0.3249
    D(158) --> V(  5) amplitude =  0.9132

 Excited state  12: excitation energy (eV) =    3.9906
 Total energy for state 12:                 -1855.38097785 au
    Multiplicity: Singlet
    Trans. Mom.:  0.0935 X   0.0193 Y  -0.0284 Z
    Strength   :     0.0009701972
    D(153) --> V(  1) amplitude =  0.5875
    D(154) --> V(  1) amplitude = -0.4871
    D(155) --> V(  1) amplitude =  0.2125
    D(156) --> V(  1) amplitude =  0.5722

 ---------------------------------------------------

                    Orbital Energies (a.u.)
 --------------------------------------------------------------

 Alpha MOs
 -- Occupied --
-14.692 -14.689 -14.665 -10.547 -10.546 -10.538 -10.535 -10.523
-10.515 -10.514 -10.509 -10.507 -10.487 -10.481 -10.480 -10.479
-10.478 -10.473 -10.473 -10.472 -10.472 -10.471 -10.466 -10.464
-10.463 -10.462 -10.462 -10.462 -10.462 -10.460 -10.459 -10.453
-10.453 -10.451 -10.451 -10.436 -10.435 -10.428 -10.428 -10.427
-10.427 -10.426 -10.426 -10.420 -10.419 -10.406 -10.406  -1.082
 -1.063  -1.050  -1.035  -1.014  -0.980  -0.966  -0.951  -0.943
 -0.938  -0.936  -0.908  -0.893  -0.890  -0.883  -0.854  -0.851
 -0.844  -0.835  -0.822  -0.821  -0.809  -0.801  -0.791  -0.774
 -0.751  -0.749  -0.730  -0.727  -0.704  -0.701  -0.694  -0.691
 -0.680  -0.676  -0.669  -0.661  -0.654  -0.643  -0.617  -0.610
 -0.601  -0.600  -0.599  -0.586  -0.576  -0.569  -0.558  -0.555
 -0.545  -0.535  -0.530  -0.527  -0.520  -0.518  -0.515  -0.510
 -0.508  -0.508  -0.506  -0.503  -0.497  -0.491  -0.487  -0.486
 -0.482  -0.481  -0.477  -0.472  -0.470  -0.467  -0.463  -0.461
 -0.458  -0.456  -0.449  -0.444  -0.436  -0.434  -0.433  -0.432
 -0.428  -0.422  -0.422  -0.420  -0.419  -0.413  -0.410  -0.410
 -0.407  -0.402  -0.400  -0.397  -0.394  -0.386  -0.380  -0.360
 -0.358  -0.352  -0.348  -0.344  -0.333  -0.316  -0.309  -0.293
 -0.292  -0.279  -0.274  -0.270  -0.268  -0.205

          Ground-State Mulliken Net Atomic Charges

     Atom                 Charge (a.u.)
  ----------------------------------------
      1 N                    -0.706778
      2 C                     0.306582
      3 C                     0.313905
      4 C                     0.135276
      5 C                    -0.314090
      6 H                     0.239228
      7 C                    -0.255536
      8 H                     0.233357
      9 C                    -0.252575
     10 H                     0.237203
     11 C                    -0.315401
     12 H                     0.258643
     13 C                     0.126172
     14 C                    -0.311898
     15 H                     0.238994
     16 C                    -0.256665
     17 H                     0.232382
     18 C                    -0.252037
     19 H                     0.232672
     20 C                    -0.321698
     21 H                     0.264674
     22 C                     0.158096
     23 C                    -0.256647
     24 H                     0.286330
     25 C                    -0.220423
     26 H                     0.270974
     27 C                    -0.322484
     28 H                     0.245860
     29 C                     0.226065
     30 C                     0.053123
     31 C                    -0.524675
     32 H                     0.271199
     33 H                     0.253824
     34 C                    -0.198739
     35 C                    -0.559930
     36 H                     0.270295
     37 H                     0.278131
     38 C                     0.135700
     39 C                    -0.323524
     40 H                     0.277764
     41 C                     0.056661
     42 C                     0.010264
     43 N                    -0.212110
     44 C                     0.067915
     45 C                    -0.298236
     46 H                     0.296323
     47 C                     0.165931
     48 C                     0.009692
     49 N                    -0.210606
     50 C                    -0.405108
     51 C                     0.013114
     52 C                    -0.267341
     53 H                     0.250036
     54 C                    -0.248785
     55 H                     0.254610
     56 C                     0.154473
     57 C                    -0.347181
     58 H                     0.245656
     59 C                    -0.232585
     60 H                     0.256711
     61 C                     0.116630
     62 C                    -0.338331
     63 H                     0.246780
     64 C                    -0.242500
     65 H                     0.255899
     66 C                    -0.244489
     67 H                     0.253378
     68 C                    -0.309274
     69 H                     0.240986
     70 C                     0.162786
     71 C                    -0.633073
     72 H                     0.231575
     73 H                     0.232226
     74 H                     0.235947
     75 C                    -0.610884
     76 H                     0.227980
     77 H                     0.227962
     78 H                     0.233619
  ----------------------------------------
  Sum of atomic charges =     0.000000

                    Cartesian Multipole Moments
 -----------------------------------------------------------------
    Charge (ESU x 10^10)
                 0.0000
    Dipole Moment (Debye)
         X       4.6754      Y      -5.3976      Z       8.4468
       Tot      11.0608
    Quadrupole Moments (Debye-Ang)
        XX    -297.2029     XY      53.0623     YY    -293.2162
        XZ     -75.1642     YZ      59.7988     ZZ    -343.9046

 Total job time:  7402.71s(wall), 28007.28s(cpu)
        *  Thank you very much for using Q-Chem.  Have a nice day.  *
