 Q-Chem 5.0, Q-Chem, Inc., Pleasanton, CA (2017)
 Q-Chem 5.0.1 for Intel X86 EM64T Linux

User input:
--------------------------------------------------------------
$solvent
dielectric      1.0001
dielectric_infi 1.00009
$end

$rem
threads 8
jobtype	sp
method PBEh-3c
basis def2-mSVP
mem_static	1024
mem_total	14000
sym_ignore	true
cis_n_roots             2
cis_singlets            false
cis_triplets		true
rpa                     false
calc_soc 		true
cis_moments             true
cis_relaxed_density	true
solvent_method		pcm
$end

$pcm
StateSpecific   1
ChargeSeparation Excited
$end

$molecule
read utleopt_vac.mol
$end

--------------------------------------------------------------

   16   -1855.4726911002      6.16E-09 Convergence criterion met
 Total energy in the final basis set = -1855.47269110
 Total job time:  3985.83s(wall), 11489.63s(cpu)
        *  Thank you very much for using Q-Chem.  Have a nice day.  *
 Q-Chem 5.0, Q-Chem, Inc., Pleasanton, CA (2017)
 Q-Chem 5.0.1 for Intel X86 EM64T Linux

User input:
--------------------------------------------------------------
$rem
threads 8
jobtype sp
method PBEh-3c
basis def2-mSVP
mem_static      1024
mem_total       14000
sym_ignore      true
cis_n_roots             6
cis_singlets            true
cis_triplets            true
rpa                     false
calc_soc                true
cis_moments             true
cis_relaxed_density     true
solvent_method          pcm
$end

$molecule
read
$end

$pcm
statespecific           Marcus
$end

$solvent
dielectric      1.0001
dielectric_infi 1.00009
$end

--------------------------------------------------------------

             Standard Nuclear Orientation (Angstroms)
    I     Atom           X                Y                Z
 ----------------------------------------------------------------
    1      N       0.0000000000     0.0000000000     0.0000000000
    2      C       0.0000000000     0.0000000000     1.3906380000
    3      C       1.2036703125     0.0000000000    -0.7073925533
    4      C       1.2065166522     0.0866177755    -2.1053417870
    5      H       0.2789285302     0.0845129231    -2.6593180540
    6      C       2.3911889527     0.1915245844    -2.8039893273
    7      H       2.3581735639     0.2699610400    -3.8825270775
    8      C       3.6007813846     0.2053445561    -2.1275076931
    9      H       4.5352302217     0.3003610779    -2.6636531273
   10      C       3.5982876716     0.0656004533    -0.7502513930
   11      H       4.5481725774     0.0465890529    -0.2316817056
   12      C       2.4268792777    -0.0724735779    -0.0155246617
   13      C      -1.2373831404     0.0390854321    -0.6846974564
   14      C      -1.5964921942     1.1642936902    -1.3967632147
   15      H      -0.8990521435     1.9910544923    -1.4124630799
   16      C      -2.1108179907    -1.0389368882    -0.6246937336
   17      H      -1.8455301925    -1.9306736980    -0.0733780606
   18      C      -3.3244740478    -0.9333037296    -1.2668737633
   19      H      -4.0281420410    -1.7536885774    -1.1915823881
   20      C      -2.7884862180     1.2520558661    -2.1176035398
   21      C      -3.6896336727     0.1890628643    -2.0166773052
   22      C      -1.2895681587    -0.0713728395     2.0938232790
   23      H      -2.0531630798     0.6715421309     1.8965627454
   24      C      -1.4901531831    -1.0449559939     3.0073337556
   25      H      -2.4320009495    -1.1059007710     3.5393507527
   26      C      -0.4447727548    -1.9621292066     3.3358582124
   27      H      -0.6323240845    -2.7635118840     4.0366079782
   28      C       0.8669058348    -1.7522044284     2.8428134361
   29      H       1.6635970951    -2.3743205168     3.2325120341
   30      C       1.1358646678    -0.7507445222     1.9632545059
   31      C       2.4895045572    -0.3108756178     1.4901547169
   32      C      -5.0751337976     0.1916169210    -2.5947001622
   33      H      -5.6583032184    -0.5757624241    -2.0828025447
   34      H      -5.0719628340    -0.0920501217    -3.6513867367
   35      C      -5.7675351490     1.5417812088    -2.4314845384
   36      H      -6.8494695704     1.4039337115    -2.4155449461
   37      H      -5.5036567274     1.9735167366    -1.4625919870
   38      C      -5.4101309494     2.4462335040    -3.5708582104
   39      C      -6.4477948716     2.8678061037    -4.3953929576
   40      H      -7.4642403058     2.5977260060    -4.1406069556
   41      C      -6.2270829508     3.6076704311    -5.5437797533
   42      C      -4.9122596760     3.9317691227    -5.8812526997
   43      C      -3.8759418082     3.5208671020    -5.0576878761
   44      H      -2.8720882765     3.7951877952    -5.3459250525
   45      C      -4.0893028851     2.7800125118    -3.8953396234
   46      C      -7.3301044031     4.0024756793    -6.3558827873
   47      N      -8.2392338889     4.3067428087    -6.9926364177
   48      C      -4.6193170507     4.6721370384    -7.0640748454
   49      N      -4.3678848624     5.2649079094    -8.0178213595
   50      C       3.5644542554    -1.3389425265     1.8411508416
   51      H       4.5579426813    -1.0005725131     1.5522522125
   52      H       3.3779676253    -2.2949237390     1.3516242256
   53      H       3.5963447091    -1.5039062188     2.9187792743
   54      C      -2.8624251887     2.5050715706    -3.0129109150
   55      C      -1.5980947180     2.4786083190    -3.8703190923
   56      C      -1.2365386946     1.5200745211    -4.7958364914
   57      H      -1.8735804988     0.6645240520    -4.9864143216
   58      C      -0.0368011331     1.6743076461    -5.4779078219
   59      H       0.2614823724     0.9381008216    -6.2126998060
   60      C       0.7827349793     2.7689516196    -5.2231827674
   61      H       1.7153972391     2.8742874776    -5.7610247168
   62      C       0.4198529331     3.7251085673    -4.2860836990
   63      H       1.0683175225     4.5696032153    -4.0914119954
   64      C      -0.7814444366     3.5755423470    -3.6098982018
   65      C      -1.4210375431     4.3918817715    -2.5825369362
   66      C      -1.0191663356     5.5751298795    -1.9841499798
   67      H      -0.0938645667     6.0568773574    -2.2729319714
   68      C      -1.8244807643     6.1343576450    -1.0032096126
   69      H      -1.5250514300     7.0580915743    -0.5265980805
   70      C      -3.0115437592     5.5190067926    -0.6235940955
   71      H      -3.6255248727     5.9666958978     0.1463141834
   72      C      -3.4156100272     4.3342292783    -1.2247604254
   73      H      -4.3410077571     3.8589332998    -0.9249658479
   74      C      -2.6158164142     3.7811391922    -2.2030286120
   75      C       2.8112094270     1.0237474435     2.1938842346
   76      H       2.0283151574     1.7611487198     2.0158962721
   77      H       2.8984300780     0.8727257247     3.2708154776
   78      H       3.7523197292     1.4358856584     1.8264568377
 ----------------------------------------------------------------

   16   -1855.4726910733      6.16E-09 Convergence criterion met
 Total energy in the final basis set = -1855.47269107

         TDDFT/TDA Excitation Energies
 ---------------------------------------------------

 Excited state   1: excitation energy (eV) =    1.8069
 Total energy for state  1:                 -1855.40629000 au
    Multiplicity: Triplet
    Trans. Mom.:  0.0000 X   0.0000 Y   0.0000 Z
    Strength   :     0.0000000000
    D(158) --> V(  3) amplitude =  0.8859
    D(158) --> V(  4) amplitude = -0.2415

 Excited state   2: excitation energy (eV) =    3.2524
 Total energy for state  2:                 -1855.35316722 au
    Multiplicity: Singlet
    Trans. Mom.: -0.0386 X  -0.6199 Y   1.2900 Z
    Strength   :     0.1633384858
    D(158) --> V(  1) amplitude = -0.6159
    D(158) --> V(  3) amplitude =  0.7403

 Excited state   3: excitation energy (eV) =    3.2640
 Total energy for state  3:                 -1855.35274300 au
    Multiplicity: Triplet
    Trans. Mom.:  0.0000 X   0.0000 Y   0.0000 Z
    Strength   :     0.0000000000
    D(158) --> V(  1) amplitude =  0.9879

 Excited state   4: excitation energy (eV) =    3.2794
 Total energy for state  4:                 -1855.35217629 au
    Multiplicity: Singlet
    Trans. Mom.: -0.1983 X  -0.3580 Y   0.8613 Z
    Strength   :     0.0730624834
    D(158) --> V(  1) amplitude =  0.7824
    D(158) --> V(  3) amplitude =  0.5872

 Excited state   5: excitation energy (eV) =    3.3699
 Total energy for state  5:                 -1855.34884831 au
    Multiplicity: Triplet
    Trans. Mom.:  0.0000 X   0.0000 Y   0.0000 Z
    Strength   :     0.0000000000
    D(157) --> V(  2) amplitude = -0.5843
    D(157) --> V(  4) amplitude =  0.4714

 Excited state   6: excitation energy (eV) =    3.4610
 Total energy for state  6:                 -1855.34550231 au
    Multiplicity: Triplet
    Trans. Mom.:  0.0000 X   0.0000 Y   0.0000 Z
    Strength   :     0.0000000000
    D(148) --> V(  1) amplitude =  0.2650
    D(149) --> V(  1) amplitude =  0.2757
    D(149) --> V(  2) amplitude =  0.2303
    D(150) --> V(  1) amplitude = -0.4316
    D(151) --> V(  1) amplitude = -0.3929
    D(152) --> V(  1) amplitude =  0.3524
    D(157) --> V(  4) amplitude = -0.2287

 Excited state   7: excitation energy (eV) =    3.5439
 Total energy for state  7:                 -1855.34245687 au
    Multiplicity: Triplet
    Trans. Mom.:  0.0000 X   0.0000 Y   0.0000 Z
    Strength   :     0.0000000000
    D(158) --> V(  7) amplitude = -0.6445
    D(158) --> V(  9) amplitude = -0.3330
    D(158) --> V( 10) amplitude = -0.2742

 Excited state   8: excitation energy (eV) =    3.6064
 Total energy for state  8:                 -1855.34015929 au
    Multiplicity: Triplet
    Trans. Mom.:  0.0000 X   0.0000 Y   0.0000 Z
    Strength   :     0.0000000000
    D(158) --> V(  2) amplitude = -0.3242
    D(158) --> V(  5) amplitude = -0.2764
    D(158) --> V(  6) amplitude =  0.5440
    D(158) --> V(  8) amplitude = -0.2881
    D(158) --> V(  9) amplitude =  0.2159
    D(158) --> V( 10) amplitude =  0.3625

 Excited state   9: excitation energy (eV) =    3.6856
 Total energy for state  9:                 -1855.33724765 au
    Multiplicity: Singlet
    Trans. Mom.:  0.0595 X  -0.0759 Y   0.0693 Z
    Strength   :     0.0012746742
    D(158) --> V(  2) amplitude =  0.9590

 Excited state  10: excitation energy (eV) =    3.9117
 Total energy for state 10:                 -1855.32893779 au
    Multiplicity: Singlet
    Trans. Mom.: -0.4878 X   0.2088 Y  -0.1261 Z
    Strength   :     0.0285037409
    D(158) --> V(  4) amplitude = -0.5986
    D(158) --> V(  6) amplitude =  0.5997
    D(158) --> V(  7) amplitude =  0.4668

 Excited state  11: excitation energy (eV) =    3.9974
 Total energy for state 11:                 -1855.32579014 au
    Multiplicity: Singlet
    Trans. Mom.: -0.6556 X  -0.2039 Y   0.2801 Z
    Strength   :     0.0538427038
    D(158) --> V(  4) amplitude = -0.2283
    D(158) --> V(  5) amplitude =  0.5932
    D(158) --> V(  6) amplitude = -0.5504
    D(158) --> V(  7) amplitude =  0.4619

 Excited state  12: excitation energy (eV) =    4.2144
 Total energy for state 12:                 -1855.31781446 au
    Multiplicity: Singlet
    Trans. Mom.: -0.3583 X  -0.0005 Y   0.0875 Z
    Strength   :     0.0140473497
    D(158) --> V(  2) amplitude =  0.2409
    D(158) --> V(  4) amplitude =  0.6968
    D(158) --> V(  6) amplitude =  0.2375
    D(158) --> V(  7) amplitude =  0.5695

 ---------------------------------------------------

                    Orbital Energies (a.u.)
 --------------------------------------------------------------

 Alpha MOs
 -- Occupied --
-14.689 -14.657 -14.654 -10.522 -10.520 -10.511 -10.507 -10.505
-10.500 -10.500 -10.498 -10.498 -10.495 -10.493 -10.491 -10.485
-10.478 -10.477 -10.476 -10.474 -10.474 -10.473 -10.470 -10.468
-10.468 -10.468 -10.467 -10.467 -10.466 -10.466 -10.465 -10.464
-10.462 -10.461 -10.460 -10.454 -10.454 -10.447 -10.446 -10.446
-10.445 -10.444 -10.442 -10.442 -10.439 -10.430 -10.427  -1.096
 -1.042  -1.029  -1.019  -1.004  -0.986  -0.969  -0.961  -0.952
 -0.938  -0.933  -0.908  -0.899  -0.890  -0.884  -0.858  -0.856
 -0.847  -0.845  -0.835  -0.826  -0.821  -0.803  -0.794  -0.773
 -0.769  -0.747  -0.732  -0.725  -0.713  -0.711  -0.704  -0.691
 -0.682  -0.679  -0.673  -0.668  -0.664  -0.644  -0.619  -0.615
 -0.611  -0.606  -0.599  -0.583  -0.582  -0.572  -0.564  -0.561
 -0.547  -0.540  -0.535  -0.532  -0.528  -0.526  -0.523  -0.519
 -0.516  -0.510  -0.507  -0.502  -0.502  -0.500  -0.497  -0.495
 -0.491  -0.488  -0.485  -0.482  -0.475  -0.468  -0.460  -0.451
 -0.450  -0.446  -0.441  -0.439  -0.438  -0.436  -0.434  -0.432
 -0.431  -0.426  -0.424  -0.422  -0.420  -0.416  -0.415  -0.412
 -0.409  -0.403  -0.400  -0.399  -0.396  -0.395  -0.392  -0.378
 -0.371  -0.363  -0.350  -0.337  -0.322  -0.314  -0.307  -0.306
 -0.299  -0.288  -0.287  -0.278  -0.271  -0.209

          Ground-State Mulliken Net Atomic Charges

     Atom                 Charge (a.u.)
  ----------------------------------------
      1 N                    -0.616182
      2 C                     0.188809
      3 C                     0.329103
      4 C                    -0.305257
      5 H                     0.261767
      6 C                    -0.223780
      7 H                     0.214039
      8 C                    -0.226872
      9 H                     0.211261
     10 C                    -0.290819
     11 H                     0.207968
     12 C                     0.136707
     13 C                     0.234611
     14 C                    -0.287816
     15 H                     0.277579
     16 C                    -0.218605
     17 H                     0.254148
     18 C                    -0.301045
     19 H                     0.218795
     20 C                     0.228835
     21 C                     0.057995
     22 C                    -0.320900
     23 H                     0.243184
     24 C                    -0.201213
     25 H                     0.218167
     26 C                    -0.257715
     27 H                     0.213941
     28 C                    -0.287990
     29 H                     0.216667
     30 C                     0.098367
     31 C                    -0.203582
     32 C                    -0.515359
     33 H                     0.247277
     34 H                     0.252522
     35 C                    -0.545500
     36 H                     0.251794
     37 H                     0.256720
     38 C                     0.105856
     39 C                    -0.318757
     40 H                     0.246128
     41 C                     0.079535
     42 C                     0.092215
     43 C                    -0.296194
     44 H                     0.281422
     45 C                     0.207730
     46 C                    -0.007140
     47 N                    -0.153815
     48 C                    -0.008869
     49 N                    -0.154802
     50 C                    -0.645594
     51 H                     0.226011
     52 H                     0.238726
     53 H                     0.221965
     54 C                    -0.430589
     55 C                     0.031584
     56 C                    -0.257724
     57 H                     0.229606
     58 C                    -0.239625
     59 H                     0.230980
     60 C                    -0.210948
     61 H                     0.230211
     62 C                    -0.324359
     63 H                     0.214424
     64 C                     0.166459
     65 C                     0.137124
     66 C                    -0.322070
     67 H                     0.213726
     68 C                    -0.216851
     69 H                     0.229140
     70 C                    -0.222635
     71 H                     0.227847
     72 C                    -0.279790
     73 H                     0.216281
     74 C                     0.160665
     75 C                    -0.585262
     76 H                     0.232921
     77 H                     0.222157
     78 H                     0.214687
  ----------------------------------------
  Sum of atomic charges =    -0.000000

                    Cartesian Multipole Moments
 -----------------------------------------------------------------
    Charge (ESU x 10^10)
                -0.0000
    Dipole Moment (Debye)
         X       2.8569      Y      -3.2592      Z       5.8629
       Tot       7.2909
    Quadrupole Moments (Debye-Ang)
        XX    -281.6529     XY      37.5145     YY    -286.2368
        XZ     -56.9646     YZ      46.4284     ZZ    -336.4668

 Total job time:  7499.84s(wall), 28347.45s(cpu)
        *  Thank you very much for using Q-Chem.  Have a nice day.  *
