 Q-Chem 5.0, Q-Chem, Inc., Pleasanton, CA (2017)
 Q-Chem 5.0.1 for Intel X86 EM64T Linux

User input:
--------------------------------------------------------------
$solvent
dielectric      2.38
dielectric_infi 2.25
$end

$rem
threads 8
jobtype	sp
method PBEh-3c
basis def2-mSVP
mem_static	1024
mem_total	14000
sym_ignore	true
cis_n_roots             2
cis_singlets            false
cis_triplets		true
rpa                     false
calc_soc 		true
cis_moments             true
cis_relaxed_density	true
solvent_method		pcm
$end

$pcm
StateSpecific   1
ChargeSeparation Excited
$end

$molecule
read utleopt_tol.mol
$end

--------------------------------------------------------------

   15   -1855.5259478266      4.94E-09 Convergence criterion met
 Total energy in the final basis set = -1855.52594783
 Total job time:  3821.52s(wall), 10681.45s(cpu)
        *  Thank you very much for using Q-Chem.  Have a nice day.  *
 Q-Chem 5.0, Q-Chem, Inc., Pleasanton, CA (2017)
 Q-Chem 5.0.1 for Intel X86 EM64T Linux

User input:
--------------------------------------------------------------
$rem
threads 8
jobtype sp
method PBEh-3c
basis def2-mSVP
mem_static      1024
mem_total       14000
sym_ignore      true
cis_n_roots             6
cis_singlets            true
cis_triplets            true
rpa                     false
calc_soc                true
cis_moments             true
cis_relaxed_density     true
solvent_method          pcm
$end

$molecule
read
$end

$pcm
statespecific           Marcus
$end

$solvent
dielectric      2.38
dielectric_infi 2.25
$end

--------------------------------------------------------------

             Standard Nuclear Orientation (Angstroms)
    I     Atom           X                Y                Z
 ----------------------------------------------------------------
    1      N       0.0000000000     0.0000000000     0.0000000000
    2      C       0.0000000000     0.0000000000     1.3963950000
    3      C       1.1941266736     0.0000000000     2.1172208451
    4      H       2.1447815243     0.0177047019     1.6018638810
    5      C       1.1703080024    -0.0342724344     3.5012116744
    6      H       2.1046470794    -0.0334251455     4.0476701355
    7      C      -0.0370889350    -0.0871497633     4.1773941678
    8      H      -0.0615450724    -0.1259333305     5.2582811314
    9      C      -1.2215112238    -0.0726119447     3.4549695880
   10      H      -2.1580924764    -0.0899591038     3.9954729696
   11      C      -1.2278066875    -0.0053875249     2.0683684745
   12      C      -1.0792094983    -0.5709765256    -0.6841108658
   13      C      -0.9429558557    -1.1071930499    -1.9642569927
   14      H       0.0020380195    -1.0663525532    -2.4870775677
   15      C      -2.0200043126    -1.7196227350    -2.5819396393
   16      H      -1.8889555779    -2.1382776155    -3.5715234593
   17      C      -3.2391990828    -1.8131752247    -1.9327434440
   18      H      -4.0794195599    -2.3061265070    -2.4032565346
   19      C      -3.3798723890    -1.2464948524    -0.6743925159
   20      H      -4.3448555671    -1.2958993822    -0.1888923270
   21      C      -2.3267805792    -0.5976874002    -0.0444332262
   22      C       1.1890871126     0.3502708162    -0.6849280465
   23      C       2.0567620773    -0.6175282534    -1.1500404444
   24      H       1.8096837387    -1.6559940534    -0.9657793772
   25      C       1.4912630247     1.6891120487    -0.8895134944
   26      H       0.8215972506     2.4587992183    -0.5277499280
   27      C       2.6643368285     2.0186562863    -1.5361312607
   28      H       2.9204326859     3.0634673785    -1.6639119974
   29      C       3.2069919462    -0.2975201123    -1.8712355265
   30      C       3.5356316329     1.0483527184    -2.0367922371
   31      C       4.8302696114     1.5143082589    -2.6394018948
   32      H       4.9354187178     2.5842262564    -2.4557148539
   33      H       4.8376458822     1.4004462943    -3.7279814383
   34      C      -2.4824562218     0.1937434639     1.2424608839
   35      C      -3.7454082813    -0.1793116409     2.0112488255
   36      H      -4.6362978422     0.0030046476     1.4108243300
   37      H      -3.8523814187     0.4376600210     2.9033702519
   38      H      -3.7449059460    -1.2260315414     2.3175393956
   39      C       3.9249168368    -1.5066281273    -2.4789823534
   40      C       5.1808082818    -1.2932350080    -3.3054497629
   41      C       5.4096090363    -2.0418871403    -4.4439642988
   42      H       4.5966892472    -2.5691464602    -4.9223977953
   43      C       6.6829724862    -2.1943133025    -4.9785563026
   44      C       6.8827069797    -2.8913590427    -6.1738978778
   45      N       7.0584087932    -3.4697145377    -7.1631463818
   46      C       7.8592440336    -1.6335810100    -4.2369384944
   47      C       7.5996291727    -0.7211945799    -3.2162778612
   48      H       8.4249896887    -0.1571564338    -2.7985115070
   49      C       6.3214989092    -0.4554455215    -2.7936117366
   50      C       9.1616957910    -1.9519463995    -4.6210699654
   51      N      10.2460502367    -2.2110647871    -4.9428648910
   52      C       6.0284616844     0.7820602763    -2.0212034821
   53      H       6.9128411192     1.4203298691    -2.0216318971
   54      H       5.8048743539     0.5687084263    -0.9698469222
   55      C       2.8972846839    -2.3120179336    -3.2672786758
   56      C       2.1017337486    -1.8672867995    -4.3048858282
   57      H       2.1576593786    -0.8414753097    -4.6497139616
   58      C       1.2196895905    -2.7642270193    -4.8948960914
   59      H       0.5865386732    -2.4370915943    -5.7091611528
   60      C       1.1434115012    -4.0789384885    -4.4446582798
   61      H       0.4502585072    -4.7642605892    -4.9140657476
   62      C       1.9389348917    -4.5189510131    -3.3963838677
   63      H       1.8642626502    -5.5400453166    -3.0447436320
   64      C       2.8183362969    -3.6230714075    -2.8060248355
   65      C       3.7323756536    -3.7728818862    -1.6788958591
   66      C       4.0186290958    -4.8688535004    -0.8823207439
   67      H       3.5491790846    -5.8268206690    -1.0663385967
   68      C       4.9179268046    -4.7184476184     0.1652592326
   69      H       5.1525643649    -5.5661665707     0.7951485009
   70      C       5.5110884380    -3.4880659769     0.4212327806
   71      H       6.1980808531    -3.3848872029     1.2506216290
   72      C       5.2267702863    -2.3871771456    -0.3777427418
   73      H       5.6826375924    -1.4303446866    -0.1602060383
   74      C       4.3427076854    -2.5418281235    -1.4285124684
   75      C      -2.5737747191     1.6915915222     0.8777998019
   76      H      -1.6980873878     2.0323164567     0.3253842364
   77      H      -3.4531996555     1.8809336340     0.2596055298
   78      H      -2.6529678954     2.2957995010     1.7835013993
 ----------------------------------------------------------------

   15   -1855.5259446463      4.97E-09 Convergence criterion met
 Total energy in the final basis set = -1855.52594465

         TDDFT/TDA Excitation Energies
 ---------------------------------------------------

 Excited state   1: excitation energy (eV) =    2.3871
 Total energy for state  1:                 -1855.43822070 au
    Multiplicity: Triplet
    Trans. Mom.:  0.0000 X   0.0000 Y   0.0000 Z
    Strength   :     0.0000000000
    D(150) --> V(  1) amplitude = -0.2422
    D(155) --> V(  1) amplitude =  0.8659
    D(157) --> V(  1) amplitude =  0.2509

 Excited state   2: excitation energy (eV) =    3.2838
 Total energy for state  2:                 -1855.40526708 au
    Multiplicity: Triplet
    Trans. Mom.:  0.0000 X   0.0000 Y   0.0000 Z
    Strength   :     0.0000000000
    D(158) --> V(  1) amplitude =  0.9962

 Excited state   3: excitation energy (eV) =    3.2855
 Total energy for state  3:                 -1855.40520390 au
    Multiplicity: Singlet
    Trans. Mom.:  0.1618 X  -0.0406 Y  -0.0900 Z
    Strength   :     0.0028935558
    D(158) --> V(  1) amplitude =  0.9976

 Excited state   4: excitation energy (eV) =    3.3524
 Total energy for state  4:                 -1855.40274627 au
    Multiplicity: Triplet
    Trans. Mom.:  0.0000 X   0.0000 Y   0.0000 Z
    Strength   :     0.0000000000
    D(157) --> V(  1) amplitude =  0.3697
    D(157) --> V(  2) amplitude =  0.6842
    D(157) --> V(  3) amplitude =  0.3442

 Excited state   5: excitation energy (eV) =    3.6404
 Total energy for state  5:                 -1855.39216143 au
    Multiplicity: Triplet
    Trans. Mom.:  0.0000 X   0.0000 Y   0.0000 Z
    Strength   :     0.0000000000
    D(148) --> V(  1) amplitude = -0.4191
    D(149) --> V(  1) amplitude = -0.3417
    D(157) --> V(  1) amplitude =  0.6685
    D(157) --> V(  2) amplitude = -0.2807

 Excited state   6: excitation energy (eV) =    3.6919
 Total energy for state  6:                 -1855.39026989 au
    Multiplicity: Singlet
    Trans. Mom.:  0.5105 X   0.3340 Y  -0.1441 Z
    Strength   :     0.0355445033
    D(157) --> V(  1) amplitude =  0.9895

 Excited state   7: excitation energy (eV) =    3.7379
 Total energy for state  7:                 -1855.38858001 au
    Multiplicity: Triplet
    Trans. Mom.:  0.0000 X   0.0000 Y   0.0000 Z
    Strength   :     0.0000000000
    D(148) --> V(  1) amplitude =  0.6031
    D(149) --> V(  1) amplitude =  0.3882
    D(157) --> V(  1) amplitude =  0.5181

 Excited state   8: excitation energy (eV) =    3.7524
 Total energy for state  8:                 -1855.38804687 au
    Multiplicity: Triplet
    Trans. Mom.:  0.0000 X   0.0000 Y   0.0000 Z
    Strength   :     0.0000000000
    D(156) --> V(  7) amplitude = -0.2247
    D(156) --> V( 11) amplitude = -0.2126
    D(158) --> V(  6) amplitude =  0.2413
    D(158) --> V(  8) amplitude =  0.7042
    D(158) --> V(  9) amplitude =  0.2961

 Excited state   9: excitation energy (eV) =    4.2212
 Total energy for state  9:                 -1855.37081674 au
    Multiplicity: Singlet
    Trans. Mom.:  1.3488 X   0.7775 Y   0.2872 Z
    Strength   :     0.2591836292
    D(155) --> V(  1) amplitude =  0.9645

 Excited state  10: excitation energy (eV) =    4.4029
 Total energy for state 10:                 -1855.36414163 au
    Multiplicity: Singlet
    Trans. Mom.:  0.2624 X   0.0807 Y   0.0343 Z
    Strength   :     0.0082545670
    D(151) --> V(  1) amplitude =  0.2976
    D(152) --> V(  1) amplitude =  0.2671
    D(153) --> V(  1) amplitude = -0.7270
    D(154) --> V(  1) amplitude = -0.5041

 Excited state  11: excitation energy (eV) =    4.4553
 Total energy for state 11:                 -1855.36221437 au
    Multiplicity: Singlet
    Trans. Mom.: -0.0565 X  -0.0059 Y   0.0638 Z
    Strength   :     0.0007970792
    D(158) --> V(  2) amplitude =  0.9666
    D(158) --> V(  3) amplitude =  0.2295

 Excited state  12: excitation energy (eV) =    4.5393
 Total energy for state 12:                 -1855.35913021 au
    Multiplicity: Singlet
    Trans. Mom.: -0.3335 X   0.0579 Y   0.5240 Z
    Strength   :     0.0432847028
    D(158) --> V(  3) amplitude =  0.4576
    D(158) --> V(  5) amplitude =  0.2315
    D(158) --> V(  6) amplitude =  0.8041

 ---------------------------------------------------

                    Orbital Energies (a.u.)
 --------------------------------------------------------------

 Alpha MOs
 -- Occupied --
-14.680 -14.664 -14.661 -10.528 -10.526 -10.512 -10.508 -10.508
-10.506 -10.504 -10.496 -10.494 -10.493 -10.490 -10.489 -10.482
-10.475 -10.475 -10.472 -10.470 -10.470 -10.469 -10.466 -10.463
-10.463 -10.462 -10.461 -10.461 -10.461 -10.460 -10.460 -10.460
-10.459 -10.459 -10.459 -10.454 -10.453 -10.446 -10.446 -10.445
-10.445 -10.444 -10.442 -10.439 -10.438 -10.427 -10.426  -1.093
 -1.037  -1.028  -1.023  -0.994  -0.985  -0.965  -0.960  -0.960
 -0.932  -0.927  -0.912  -0.898  -0.886  -0.878  -0.855  -0.852
 -0.850  -0.842  -0.836  -0.821  -0.821  -0.809  -0.791  -0.775
 -0.771  -0.740  -0.728  -0.721  -0.713  -0.708  -0.702  -0.686
 -0.677  -0.673  -0.672  -0.667  -0.661  -0.639  -0.620  -0.614
 -0.613  -0.607  -0.592  -0.582  -0.575  -0.564  -0.562  -0.557
 -0.540  -0.538  -0.534  -0.533  -0.528  -0.523  -0.522  -0.520
 -0.513  -0.508  -0.505  -0.502  -0.499  -0.497  -0.493  -0.493
 -0.490  -0.486  -0.482  -0.479  -0.472  -0.463  -0.458  -0.450
 -0.447  -0.445  -0.443  -0.441  -0.438  -0.436  -0.432  -0.431
 -0.427  -0.426  -0.425  -0.420  -0.419  -0.415  -0.412  -0.410
 -0.406  -0.404  -0.400  -0.396  -0.396  -0.393  -0.388  -0.380
 -0.374  -0.363  -0.347  -0.331  -0.323  -0.309  -0.303  -0.299
 -0.291  -0.290  -0.288  -0.284  -0.268  -0.232

          Ground-State Mulliken Net Atomic Charges

     Atom                 Charge (a.u.)
  ----------------------------------------
      1 N                    -0.710671
      2 C                     0.309716
      3 C                    -0.299501
      4 H                     0.253712
      5 C                    -0.255117
      6 H                     0.235252
      7 C                    -0.240211
      8 H                     0.231595
      9 C                    -0.340526
     10 H                     0.233388
     11 C                     0.154873
     12 C                     0.310622
     13 C                    -0.310935
     14 H                     0.275657
     15 C                    -0.255829
     16 H                     0.233012
     17 C                    -0.240751
     18 H                     0.230891
     19 C                    -0.339687
     20 H                     0.233085
     21 C                     0.145807
     22 C                     0.224083
     23 C                    -0.302351
     24 H                     0.280712
     25 C                    -0.244058
     26 H                     0.253239
     27 C                    -0.318125
     28 H                     0.240857
     29 C                     0.221087
     30 C                     0.068495
     31 C                    -0.536164
     32 H                     0.264298
     33 H                     0.263216
     34 C                    -0.220362
     35 C                    -0.674286
     36 H                     0.237190
     37 H                     0.236718
     38 H                     0.239767
     39 C                    -0.393786
     40 C                     0.129288
     41 C                    -0.273303
     42 H                     0.290563
     43 C                     0.058130
     44 C                     0.017255
     45 N                    -0.200074
     46 C                     0.050744
     47 C                    -0.298883
     48 H                     0.274327
     49 C                     0.135642
     50 C                     0.020574
     51 N                    -0.198809
     52 C                    -0.539383
     53 H                     0.269974
     54 H                     0.268463
     55 C                     0.018313
     56 C                    -0.265149
     57 H                     0.250301
     58 C                    -0.253577
     59 H                     0.247727
     60 C                    -0.226193
     61 H                     0.248540
     62 C                    -0.346457
     63 H                     0.238235
     64 C                     0.165141
     65 C                     0.129375
     66 C                    -0.334387
     67 H                     0.236743
     68 C                    -0.234872
     69 H                     0.247611
     70 C                    -0.239350
     71 H                     0.246118
     72 C                    -0.293660
     73 H                     0.239107
     74 C                     0.148063
     75 C                    -0.611783
     76 H                     0.238054
     77 H                     0.226915
     78 H                     0.225769
  ----------------------------------------
  Sum of atomic charges =    -0.000000

                    Cartesian Multipole Moments
 -----------------------------------------------------------------
    Charge (ESU x 10^10)
                -0.0000
    Dipole Moment (Debye)
         X      -5.3360      Y       4.3291      Z       5.7476
       Tot       8.9582
    Quadrupole Moments (Debye-Ang)
        XX    -337.6585     XY      47.5906     YY    -264.5982
        XZ      74.8513     YZ     -30.0506     ZZ    -314.9885

 Total job time:  7666.72s(wall), 29580.88s(cpu)
        *  Thank you very much for using Q-Chem.  Have a nice day.  *
