 Q-Chem 5.0, Q-Chem, Inc., Pleasanton, CA (2017)
 Q-Chem 5.0.1 for Intel X86 EM64T Linux

User input:
--------------------------------------------------------------
$solvent
dielectric      2.03
dielectric_infi 2.02
$end

$rem
threads 8
jobtype	sp
method PBEh-3c
basis def2-mSVP
mem_static	1024
mem_total	14000
sym_ignore	true
cis_n_roots             2
cis_singlets            false
cis_triplets		true
rpa                     false
calc_soc 		true
cis_moments             true
cis_relaxed_density	true
solvent_method		pcm
$end

$pcm
StateSpecific   1
ChargeSeparation Excited
$end

$molecule
read utleopt_chx.mol
$end

--------------------------------------------------------------

   15   -1855.5232252138      5.05E-09 Convergence criterion met
 Total energy in the final basis set = -1855.52322521
 Total job time:  3851.14s(wall), 10914.49s(cpu)
        *  Thank you very much for using Q-Chem.  Have a nice day.  *
 Q-Chem 5.0, Q-Chem, Inc., Pleasanton, CA (2017)
 Q-Chem 5.0.1 for Intel X86 EM64T Linux

User input:
--------------------------------------------------------------
$rem
threads 8
jobtype sp
method PBEh-3c
basis def2-mSVP
mem_static      1024
mem_total       14000
sym_ignore      true
cis_n_roots             6
cis_singlets            true
cis_triplets            true
rpa                     false
calc_soc                true
cis_moments             true
cis_relaxed_density     true
solvent_method          pcm
$end

$molecule
read
$end

$pcm
statespecific           Marcus
$end

$solvent
dielectric      2.03
dielectric_infi 2.02
$end

--------------------------------------------------------------

             Standard Nuclear Orientation (Angstroms)
    I     Atom           X                Y                Z
 ----------------------------------------------------------------
    1      N       0.0000000000     0.0000000000     0.0000000000
    2      C       0.0000000000     0.0000000000     1.3965520000
    3      C       1.1939219283     0.0000000000     2.1174693203
    4      H       2.1445760532     0.0174590430     1.6021697924
    5      C       1.1698773218    -0.0341805289     3.5013624718
    6      H       2.1040828893    -0.0333833806     4.0480016999
    7      C      -0.0374594863    -0.0870258991     4.1773291724
    8      H      -0.0619887138    -0.1259487090     5.2581784466
    9      C      -1.2216509423    -0.0724597818     3.4547725741
   10      H      -2.1583437176    -0.0900894862     3.9949954497
   11      C      -1.2278148086    -0.0051625856     2.0682554957
   12      C      -1.0791900092    -0.5716819520    -0.6840291813
   13      C      -0.9427626937    -1.1088613511    -1.9636201078
   14      H       0.0022920000    -1.0687195204    -2.4863124953
   15      C      -2.0197655971    -1.7213772189    -2.5810635930
   16      H      -1.8884566594    -2.1409089268    -3.5702042904
   17      C      -3.2390635104    -1.8140155534    -1.9322478595
   18      H      -4.0793502964    -2.3069239437    -2.4026253710
   19      C      -3.3798159346    -1.2465500398    -0.6744151388
   20      H      -4.3448470502    -1.2955498457    -0.1890070897
   21      C      -2.3267383209    -0.5977962925    -0.0445464771
   22      C       1.1898747406     0.3476576488    -0.6844344858
   23      C       2.0558380307    -0.6218931862    -1.1490021511
   24      H       1.8063948804    -1.6597579644    -0.9646527050
   25      C       1.4953369102     1.6857708358    -0.8889231672
   26      H       0.8272383993     2.4567769880    -0.5272170999
   27      C       2.6694516477     2.0126570406    -1.5347358333
   28      H       2.9281054820     3.0568832543    -1.6622127519
   29      C       3.2071499787    -0.3046148069    -1.8697461874
   30      C       3.5388092474     1.0404806543    -2.0349835003
   31      C       4.8351811172     1.5034774555    -2.6362493127
   32      H       4.9429942875     2.5729942726    -2.4515002245
   33      H       4.8432671297     1.3906433009    -3.7249449066
   34      C      -2.4824224630     0.1938216554     1.2421975608
   35      C      -3.7453772132    -0.1792904427     2.0109811927
   36      H      -4.6363186230     0.0032450369     1.4107165826
   37      H      -3.8523701689     0.4376146241     2.9031560681
   38      H      -3.7448947711    -1.2260657097     2.3170326367
   39      C       3.9221398259    -1.5155127392    -2.4777220923
   40      C       5.1788254331    -1.3052186422    -3.3039291363
   41      C       5.4059870628    -2.0548354195    -4.4422330247
   42      H       4.5916125238    -2.5798928322    -4.9206208294
   43      C       6.6786861816    -2.2103407899    -4.9773094445
   44      C       6.8763003402    -2.9055766930    -6.1740262438
   45      N       7.0493182766    -3.4826391441    -7.1644752341
   46      C       7.8564830190    -1.6530313719    -4.2350392833
   47      C       7.5980632212    -0.7377277783    -3.2154587357
   48      H       8.4248292391    -0.1747585162    -2.7990110974
   49      C       6.3213769618    -0.4700657144    -2.7924300814
   50      C       9.1581359607    -1.9773213457    -4.6155036468
   51      N      10.2427164011    -2.2406608010    -4.9334552276
   52      C       6.0308039660     0.7670264692    -2.0180763003
   53      H       6.9169027150     1.4030029577    -2.0164978617
   54      H       5.8051711879     0.5528817119    -0.9673254008
   55      C       2.8918294149    -2.3167622543    -3.2667374560
   56      C       2.0989201861    -1.8687920219    -4.3049425288
   57      H       2.1599406674    -0.8433783187    -4.6500394592
   58      C       1.2128838775    -2.7616366261    -4.8949664981
   59      H       0.5819741002    -2.4318960207    -5.7098987775
   60      C       1.1297265583    -4.0755176825    -4.4438326279
   61      H       0.4334237061    -4.7576819324    -4.9131111716
   62      C       1.9224833352    -4.5187132326    -3.3949423818
   63      H       1.8423351529    -5.5391744509    -3.0427564566
   64      C       2.8062256835    -3.6270911415    -2.8047399612
   65      C       3.7189551868    -3.7806173749    -1.6770367283
   66      C       3.9998457079    -4.8774255662    -0.8797998061
   67      H       3.5261198501    -5.8333197517    -1.0634806141
   68      C       4.8994708665    -4.7308507145     0.1678630848
   69      H       5.1299655905    -5.5793375945     0.7981963159
   70      C       5.4984335421    -3.5032773607     0.4232189170
   71      H       6.1858837967    -3.4029907799     1.2525505484
   72      C       5.2194715971    -2.4016060856    -0.3763520361
   73      H       5.6801534616    -1.4469132343    -0.1596485486
   74      C       4.3349756045    -2.5524047055    -1.4271552113
   75      C      -2.5740899614     1.6915579090     0.8774273958
   76      H      -1.6986747591     2.0320694863     0.3245892139
   77      H      -3.4535545080     1.8808114714     0.2592782507
   78      H      -2.6528167182     2.2960770930     1.7829583608
 ----------------------------------------------------------------

   15   -1855.5232249140      5.05E-09 Convergence criterion met
 Total energy in the final basis set = -1855.52322491

         TDDFT/TDA Excitation Energies
 ---------------------------------------------------

 Excited state   1: excitation energy (eV) =    2.3869
 Total energy for state  1:                 -1855.43550808 au
    Multiplicity: Triplet
    Trans. Mom.:  0.0000 X   0.0000 Y   0.0000 Z
    Strength   :     0.0000000000
    D(150) --> V(  1) amplitude = -0.2372
    D(155) --> V(  1) amplitude =  0.8666
    D(157) --> V(  1) amplitude =  0.2526

 Excited state   2: excitation energy (eV) =    3.2769
 Total energy for state  2:                 -1855.40280220 au
    Multiplicity: Triplet
    Trans. Mom.:  0.0000 X   0.0000 Y   0.0000 Z
    Strength   :     0.0000000000
    D(158) --> V(  1) amplitude =  0.9962

 Excited state   3: excitation energy (eV) =    3.2786
 Total energy for state  3:                 -1855.40273810 au
    Multiplicity: Singlet
    Trans. Mom.:  0.1607 X  -0.0413 Y  -0.0901 Z
    Strength   :     0.0028637986
    D(158) --> V(  1) amplitude =  0.9976

 Excited state   4: excitation energy (eV) =    3.3533
 Total energy for state  4:                 -1855.39999329 au
    Multiplicity: Triplet
    Trans. Mom.:  0.0000 X   0.0000 Y   0.0000 Z
    Strength   :     0.0000000000
    D(157) --> V(  1) amplitude =  0.3605
    D(157) --> V(  2) amplitude =  0.6892
    D(157) --> V(  3) amplitude =  0.3422

 Excited state   5: excitation energy (eV) =    3.6488
 Total energy for state  5:                 -1855.38913493 au
    Multiplicity: Triplet
    Trans. Mom.:  0.0000 X   0.0000 Y   0.0000 Z
    Strength   :     0.0000000000
    D(148) --> V(  1) amplitude = -0.4366
    D(149) --> V(  1) amplitude = -0.3623
    D(157) --> V(  1) amplitude =  0.6502
    D(157) --> V(  2) amplitude = -0.2683

 Excited state   6: excitation energy (eV) =    3.7070
 Total energy for state  6:                 -1855.38699412 au
    Multiplicity: Singlet
    Trans. Mom.:  0.5074 X   0.3229 Y  -0.1439 Z
    Strength   :     0.0347325457
    D(157) --> V(  1) amplitude =  0.9895

 Excited state   7: excitation energy (eV) =    3.7450
 Total energy for state  7:                 -1855.38559737 au
    Multiplicity: Triplet
    Trans. Mom.:  0.0000 X   0.0000 Y   0.0000 Z
    Strength   :     0.0000000000
    D(148) --> V(  1) amplitude =  0.5804
    D(149) --> V(  1) amplitude =  0.3813
    D(157) --> V(  1) amplitude =  0.5409

 Excited state   8: excitation energy (eV) =    3.7538
 Total energy for state  8:                 -1855.38527453 au
    Multiplicity: Triplet
    Trans. Mom.:  0.0000 X   0.0000 Y   0.0000 Z
    Strength   :     0.0000000000
    D(154) --> V( 10) amplitude = -0.2335
    D(156) --> V(  7) amplitude = -0.2246
    D(158) --> V(  6) amplitude = -0.2358
    D(158) --> V(  8) amplitude = -0.6598
    D(158) --> V(  9) amplitude =  0.3808

 Excited state   9: excitation energy (eV) =    4.2379
 Total energy for state  9:                 -1855.36748364 au
    Multiplicity: Singlet
    Trans. Mom.:  1.3415 X   0.7540 Y   0.2715 Z
    Strength   :     0.2535192379
    D(155) --> V(  1) amplitude =  0.9617

 Excited state  10: excitation energy (eV) =    4.4173
 Total energy for state 10:                 -1855.36089107 au
    Multiplicity: Singlet
    Trans. Mom.: -0.2540 X  -0.0812 Y  -0.0318 Z
    Strength   :     0.0078043441
    D(151) --> V(  1) amplitude = -0.2947
    D(152) --> V(  1) amplitude = -0.3224
    D(153) --> V(  1) amplitude = -0.8297
    D(154) --> V(  1) amplitude =  0.2453

 Excited state  11: excitation energy (eV) =    4.4340
 Total energy for state 11:                 -1855.36027995 au
    Multiplicity: Singlet
    Trans. Mom.: -0.0599 X  -0.0100 Y   0.0574 Z
    Strength   :     0.0007576865
    D(158) --> V(  2) amplitude =  0.9670
    D(158) --> V(  3) amplitude =  0.2260

 Excited state  12: excitation energy (eV) =    4.5220
 Total energy for state 12:                 -1855.35704586 au
    Multiplicity: Singlet
    Trans. Mom.: -0.3455 X   0.0226 Y   0.4952 Z
    Strength   :     0.0404523159
    D(158) --> V(  3) amplitude =  0.4539
    D(158) --> V(  6) amplitude =  0.8166

 ---------------------------------------------------

                    Orbital Energies (a.u.)
 --------------------------------------------------------------

 Alpha MOs
 -- Occupied --
-14.680 -14.663 -14.660 -10.528 -10.526 -10.512 -10.508 -10.507
-10.505 -10.504 -10.496 -10.493 -10.492 -10.490 -10.489 -10.482
-10.476 -10.475 -10.472 -10.471 -10.470 -10.469 -10.467 -10.464
-10.463 -10.463 -10.462 -10.462 -10.461 -10.461 -10.461 -10.461
-10.460 -10.460 -10.459 -10.453 -10.453 -10.446 -10.445 -10.445
-10.445 -10.444 -10.442 -10.439 -10.438 -10.428 -10.426  -1.093
 -1.037  -1.028  -1.022  -0.994  -0.985  -0.965  -0.960  -0.960
 -0.933  -0.928  -0.912  -0.898  -0.887  -0.879  -0.855  -0.853
 -0.850  -0.843  -0.836  -0.822  -0.820  -0.810  -0.792  -0.775
 -0.771  -0.740  -0.728  -0.721  -0.714  -0.708  -0.702  -0.687
 -0.678  -0.673  -0.672  -0.668  -0.661  -0.639  -0.620  -0.614
 -0.613  -0.608  -0.592  -0.583  -0.576  -0.565  -0.562  -0.558
 -0.540  -0.539  -0.534  -0.533  -0.529  -0.523  -0.522  -0.521
 -0.513  -0.508  -0.506  -0.503  -0.499  -0.498  -0.493  -0.493
 -0.490  -0.487  -0.482  -0.479  -0.472  -0.463  -0.459  -0.449
 -0.446  -0.444  -0.443  -0.441  -0.438  -0.436  -0.432  -0.431
 -0.428  -0.426  -0.425  -0.420  -0.419  -0.415  -0.412  -0.410
 -0.406  -0.404  -0.399  -0.396  -0.396  -0.393  -0.388  -0.380
 -0.374  -0.363  -0.347  -0.332  -0.323  -0.310  -0.303  -0.299
 -0.291  -0.290  -0.289  -0.284  -0.269  -0.232

          Ground-State Mulliken Net Atomic Charges

     Atom                 Charge (a.u.)
  ----------------------------------------
      1 N                    -0.711474
      2 C                     0.310119
      3 C                    -0.297202
      4 H                     0.251803
      5 C                    -0.252583
      6 H                     0.232519
      7 C                    -0.237248
      8 H                     0.229083
      9 C                    -0.338731
     10 H                     0.230704
     11 C                     0.156964
     12 C                     0.311241
     13 C                    -0.309043
     14 H                     0.274538
     15 C                    -0.253167
     16 H                     0.230196
     17 C                    -0.237790
     18 H                     0.228286
     19 C                    -0.337882
     20 H                     0.230375
     21 C                     0.147892
     22 C                     0.224942
     23 C                    -0.301759
     24 H                     0.280480
     25 C                    -0.241985
     26 H                     0.250930
     27 C                    -0.316144
     28 H                     0.237988
     29 C                     0.221085
     30 C                     0.068644
     31 C                    -0.534941
     32 H                     0.262255
     33 H                     0.262357
     34 C                    -0.221448
     35 C                    -0.673055
     36 H                     0.235954
     37 H                     0.235427
     38 H                     0.239823
     39 C                    -0.394827
     40 C                     0.129054
     41 C                    -0.273246
     42 H                     0.289210
     43 C                     0.058986
     44 C                     0.015397
     45 N                    -0.194708
     46 C                     0.051294
     47 C                    -0.298931
     48 H                     0.270917
     49 C                     0.136361
     50 C                     0.018566
     51 N                    -0.193620
     52 C                    -0.538570
     53 H                     0.267659
     54 H                     0.266843
     55 C                     0.018570
     56 C                    -0.264173
     57 H                     0.248271
     58 C                    -0.251920
     59 H                     0.245560
     60 C                    -0.223644
     61 H                     0.246291
     62 C                    -0.344425
     63 H                     0.235347
     64 C                     0.166217
     65 C                     0.130619
     66 C                    -0.332421
     67 H                     0.233733
     68 C                    -0.232416
     69 H                     0.245294
     70 C                    -0.236856
     71 H                     0.243645
     72 C                    -0.291398
     73 H                     0.235767
     74 C                     0.149741
     75 C                    -0.609731
     76 H                     0.237178
     77 H                     0.226229
     78 H                     0.224984
  ----------------------------------------
  Sum of atomic charges =    -0.000000

                    Cartesian Multipole Moments
 -----------------------------------------------------------------
    Charge (ESU x 10^10)
                -0.0000
    Dipole Moment (Debye)
         X      -5.2499      Y       4.1783      Z       5.6232
       Tot       8.7544
    Quadrupole Moments (Debye-Ang)
        XX    -336.5103     XY      46.6978     YY    -264.7586
        XZ      73.3131     YZ     -29.4936     ZZ    -314.0563

 Total job time:  7733.72s(wall), 29817.14s(cpu)
        *  Thank you very much for using Q-Chem.  Have a nice day.  *
