 Q-Chem 5.0, Q-Chem, Inc., Pleasanton, CA (2017)
 Q-Chem 5.0.1 for Intel X86 EM64T Linux

User input:
--------------------------------------------------------------
$solvent
dielectric      8.93
dielectric_infi 2.03
$end

$rem
threads 8
jobtype	sp
method PBEh-3c
basis def2-mSVP
mem_static	1024
mem_total	14000
sym_ignore	true
cis_n_roots             2
cis_singlets            false
cis_triplets		true
rpa                     false
calc_soc 		true
cis_moments             true
cis_relaxed_density	true
solvent_method		pcm
$end

$pcm
StateSpecific   1
ChargeSeparation Excited
$end

$molecule
read utleopt_dcm.mol
$end

--------------------------------------------------------------

   15   -1855.5381711998      4.67E-09 Convergence criterion met
 Total energy in the final basis set = -1855.53817120

                    Orbital Energies (a.u.)
 --------------------------------------------------------------

 Alpha MOs
 -- Occupied --
-14.681 -14.668 -14.666 -10.527 -10.525 -10.514 -10.513 -10.510
-10.505 -10.502 -10.495 -10.494 -10.494 -10.488 -10.487 -10.479
-10.472 -10.472 -10.470 -10.469 -10.467 -10.467 -10.460 -10.459
-10.459 -10.459 -10.459 -10.458 -10.457 -10.457 -10.457 -10.456
-10.456 -10.455 -10.455 -10.455 -10.453 -10.447 -10.447 -10.446
-10.446 -10.445 -10.444 -10.440 -10.440 -10.425 -10.425  -1.093
 -1.040  -1.028  -1.026  -0.993  -0.983  -0.962  -0.961  -0.960
 -0.930  -0.924  -0.913  -0.896  -0.883  -0.876  -0.853  -0.850
 -0.848  -0.839  -0.837  -0.821  -0.818  -0.808  -0.789  -0.774
 -0.770  -0.737  -0.726  -0.719  -0.712  -0.707  -0.701  -0.684
 -0.674  -0.673  -0.669  -0.664  -0.660  -0.636  -0.620  -0.614
 -0.613  -0.604  -0.589  -0.580  -0.571  -0.561  -0.559  -0.554
 -0.541  -0.536  -0.532  -0.532  -0.525  -0.522  -0.520  -0.518
 -0.509  -0.505  -0.502  -0.502  -0.497  -0.494  -0.493  -0.491
 -0.489  -0.485  -0.480  -0.476  -0.470  -0.459  -0.459  -0.454
 -0.450  -0.446  -0.442  -0.439  -0.437  -0.437  -0.432  -0.429
 -0.427  -0.424  -0.422  -0.420  -0.419  -0.412  -0.411  -0.406
 -0.404  -0.404  -0.400  -0.398  -0.396  -0.391  -0.388  -0.381
 -0.374  -0.364  -0.344  -0.330  -0.321  -0.307  -0.303  -0.297
 -0.293  -0.289  -0.287  -0.286  -0.266  -0.234

          Ground-State Mulliken Net Atomic Charges

     Atom                 Charge (a.u.)
  ----------------------------------------
      1 N                    -0.706473
      2 C                     0.308189
      3 C                    -0.310588
      4 H                     0.262435
      5 C                    -0.266052
      6 H                     0.247551
      7 C                    -0.253539
      8 H                     0.242786
      9 C                    -0.348039
     10 H                     0.245498
     11 C                     0.144045
     12 C                     0.308001
     13 C                    -0.320096
     14 H                     0.280268
     15 C                    -0.267655
     16 H                     0.245679
     17 C                    -0.253956
     18 H                     0.242530
     19 C                    -0.347379
     20 H                     0.245272
     21 C                     0.136039
     22 C                     0.218467
     23 C                    -0.302678
     24 H                     0.280142
     25 C                    -0.253400
     26 H                     0.263189
     27 C                    -0.326714
     28 H                     0.253934
     29 C                     0.221911
     30 C                     0.068089
     31 C                    -0.541634
     32 H                     0.273839
     33 H                     0.266985
     34 C                    -0.215514
     35 C                    -0.679378
     36 H                     0.242948
     37 H                     0.242724
     38 H                     0.239057
     39 C                    -0.388818
     40 C                     0.129660
     41 C                    -0.272330
     42 H                     0.296442
     43 C                     0.052627
     44 C                     0.026071
     45 N                    -0.225453
     46 C                     0.046871
     47 C                    -0.297243
     48 H                     0.290537
     49 C                     0.132744
     50 C                     0.030541
     51 N                    -0.223197
     52 C                    -0.542746
     53 H                     0.281246
     54 H                     0.276152
     55 C                     0.017018
     56 C                    -0.268894
     57 H                     0.259849
     58 C                    -0.260954
     59 H                     0.257350
     60 C                     0.159370
     61 C                    -0.355290
     62 H                     0.250917
     63 C                    -0.237665
     64 H                     0.258371
     65 C                     0.122715
     66 C                    -0.343193
     67 H                     0.249946
     68 C                    -0.246033
     69 H                     0.257696
     70 C                    -0.250342
     71 H                     0.257207
     72 C                    -0.303421
     73 H                     0.254809
     74 C                     0.140395
     75 C                    -0.620545
     76 H                     0.241744
     77 H                     0.229939
     78 H                     0.229424
  ----------------------------------------
  Sum of atomic charges =    -0.000000

                    Cartesian Multipole Moments
 -----------------------------------------------------------------
    Charge (ESU x 10^10)
                -0.0000
    Dipole Moment (Debye)
         X      -5.7202      Y       5.2438      Z       6.2630
       Tot       9.9721
    Quadrupole Moments (Debye-Ang)
        XX    -342.9882     XY      53.7640     YY    -265.2582
        XZ      81.2904     YZ     -33.8533     ZZ    -318.1983

 Total job time:  3755.14s(wall), 10512.34s(cpu)
        *  Thank you very much for using Q-Chem.  Have a nice day.  *
 Q-Chem 5.0, Q-Chem, Inc., Pleasanton, CA (2017)
 Q-Chem 5.0.1 for Intel X86 EM64T Linux

User input:
--------------------------------------------------------------
$rem
threads 8
jobtype sp
method PBEh-3c
basis def2-mSVP
mem_static      1024
mem_total       14000
sym_ignore      true
cis_n_roots             6
cis_singlets            true
cis_triplets            true
rpa                     false
calc_soc                true
cis_moments             true
cis_relaxed_density     true
solvent_method          pcm
$end

$molecule
read
$end

$pcm
statespecific           Marcus
$end

$solvent
dielectric      8.93
dielectric_infi 2.03
$end

--------------------------------------------------------------

             Standard Nuclear Orientation (Angstroms)
    I     Atom           X                Y                Z
 ----------------------------------------------------------------
    1      N       0.0000000000     0.0000000000     0.0000000000
    2      C       0.0000000000     0.0000000000     1.3955890000
    3      C       1.1948070178     0.0000000000     2.1167003471
    4      H       2.1460716697     0.0207109079     1.6022414510
    5      C       1.1713288369    -0.0368697353     3.5012835632
    6      H       2.1061071439    -0.0354579374     4.0472271449
    7      C      -0.0365409715    -0.0918585004     4.1780896954
    8      H      -0.0607628256    -0.1320679805     5.2590649567
    9      C      -1.2217730389    -0.0758524113     3.4556603304
   10      H      -2.1583917483    -0.0921319487     3.9963180857
   11      C      -1.2280975593    -0.0064543292     2.0685626785
   12      C      -1.0810884908    -0.5639096951    -0.6845680804
   13      C      -0.9462216470    -1.0936066808    -1.9684329526
   14      H      -0.0008403140    -1.0492878982    -2.4907036336
   15      C      -2.0246586632    -1.7016832936    -2.5894886139
   16      H      -1.8959728985    -2.1138535295    -3.5823170715
   17      C      -3.2441143616    -1.7976415164    -1.9392870636
   18      H      -4.0854759818    -2.2865229784    -2.4122629567
   19      C      -3.3837411616    -1.2368865061    -0.6773190326
   20      H      -4.3492444390    -1.2859234477    -0.1925332482
   21      C      -2.3290899347    -0.5920533557    -0.0445102040
   22      C       1.1870459576     0.3542237792    -0.6888117773
   23      C       2.0620059960    -0.6119824640    -1.1435619116
   24      H       1.8231707881    -1.6505308745    -0.9486191898
   25      C       1.4748675084     1.6935516481    -0.9102999880
   26      H       0.7982784348     2.4619527707    -0.5580096011
   27      C       2.6437249554     2.0260344918    -1.5642765838
   28      H       2.8894617069     3.0713506129    -1.7069891774
   29      C       3.2090969982    -0.2895293120    -1.8685797878
   30      C       3.5241395840     1.0573427083    -2.0531244533
   31      C       4.8106681891     1.5279726968    -2.6686062792
   32      H       4.9034529133     2.6021197980    -2.5058071507
   33      H       4.8136419478     1.3929068805    -3.7547293427
   34      C      -2.4837472968     0.1962530806     1.2444103346
   35      C      -3.7470188573    -0.1769810589     2.0127430056
   36      H      -4.6373078189     0.0061120113     1.4118094307
   37      H      -3.8530784656     0.4387810150     2.9057122918
   38      H      -3.7479172384    -1.2240927504     2.3181480280
   39      C       3.9427302037    -1.4990408018    -2.4555918773
   40      C       5.1955345609    -1.2830779099    -3.2851381724
   41      C       5.4318123529    -2.0424727536    -4.4148615522
   42      H       4.6253681116    -2.5824350024    -4.8900092818
   43      C       6.7091293945    -2.1887023357    -4.9420865464
   44      C       6.9219818003    -2.9002687940    -6.1266523082
   45      N       7.1179189390    -3.4904749903    -7.1052529182
   46      C       7.8779284175    -1.6099596221    -4.2042911186
   47      C       7.6121398190    -0.6903817211    -3.1960844439
   48      H       8.4307062792    -0.1156693523    -2.7796329201
   49      C       6.3267134811    -0.4253426158    -2.7841572638
   50      C       9.1825161233    -1.9228430574    -4.5897808684
   51      N      10.2630220888    -2.1854666158    -4.9208884807
   52      C       6.0211203700     0.8253907930    -2.0404604321
   53      H       6.8968584931     1.4746137345    -2.0606460593
   54      H       5.8089575032     0.6319825790    -0.9828179235
   55      C       2.9288820464    -2.3377517558    -3.2271377626
   56      C       2.1224001775    -1.9271357143    -4.2706715971
   57      H       2.1585322248    -0.9073636184    -4.6355924173
   58      C       1.2555752166    -2.8518817958    -4.8410424229
   59      H       0.6122814479    -2.5513808795    -5.6577066305
   60      C       2.8772039467    -3.6421952262    -2.7430630815
   61      C       2.0147736610    -4.5668902254    -3.3146914459
   62      H       1.9628048549    -5.5830762185    -2.9447642969
   63      C       1.2068313541    -4.1604434854    -4.3678251729
   64      H       0.5252702377    -4.8671106560    -4.8226568902
   65      C       3.7955536313    -3.7544398159    -1.6150413742
   66      C       4.1021131944    -4.8309926414    -0.7989935667
   67      H       3.6503349966    -5.8006498092    -0.9660092268
   68      C       4.9981343292    -4.6439871193     0.2465562109
   69      H       5.2484104878    -5.4756560241     0.8918868467
   70      C       5.5671152049    -3.3973226103     0.4810774475
   71      H       6.2506073644    -3.2652766569     1.3094009604
   72      C       5.2623800280    -2.3157772707    -0.3378463088
   73      H       5.6981297009    -1.3464376050    -0.1347118133
   74      C       4.3820196316    -2.5070705638    -1.3865441582
   75      C      -2.5732027882     1.6952176289     0.8829789130
   76      H      -1.6965262356     2.0389963647     0.3333088741
   77      H      -3.4527488778     1.8856900540     0.2651383533
   78      H      -2.6554729259     2.2958433367     1.7908261777
 ----------------------------------------------------------------

   15   -1855.5381073225      5.10E-09 Convergence criterion met
 Total energy in the final basis set = -1855.53810732

         TDDFT/TDA Excitation Energies
 ---------------------------------------------------

 Excited state   1: excitation energy (eV) =    2.3730
 Total energy for state  1:                 -1855.45090271 au
    Multiplicity: Triplet
    Trans. Mom.:  0.0000 X   0.0000 Y   0.0000 Z
    Strength   :     0.0000000000
    D(150) --> V(  1) amplitude = -0.2677
    D(155) --> V(  1) amplitude =  0.8497
    D(157) --> V(  1) amplitude =  0.2423

 Excited state   2: excitation energy (eV) =    3.2970
 Total energy for state  2:                 -1855.41694519 au
    Multiplicity: Triplet
    Trans. Mom.:  0.0000 X   0.0000 Y   0.0000 Z
    Strength   :     0.0000000000
    D(158) --> V(  1) amplitude =  0.9958

 Excited state   3: excitation energy (eV) =    3.2987
 Total energy for state  3:                 -1855.41688232 au
    Multiplicity: Singlet
    Trans. Mom.:  0.1562 X  -0.0374 Y  -0.0840 Z
    Strength   :     0.0026558456
    D(158) --> V(  1) amplitude =  0.9977

 Excited state   4: excitation energy (eV) =    3.3427
 Total energy for state  4:                 -1855.41526535 au
    Multiplicity: Triplet
    Trans. Mom.:  0.0000 X   0.0000 Y   0.0000 Z
    Strength   :     0.0000000000
    D(157) --> V(  1) amplitude =  0.4423
    D(157) --> V(  2) amplitude = -0.6424
    D(157) --> V(  3) amplitude =  0.3522

 Excited state   5: excitation energy (eV) =    3.5891
 Total energy for state  5:                 -1855.40621186 au
    Multiplicity: Triplet
    Trans. Mom.:  0.0000 X   0.0000 Y   0.0000 Z
    Strength   :     0.0000000000
    D(148) --> V(  1) amplitude = -0.3357
    D(149) --> V(  1) amplitude = -0.2466
    D(157) --> V(  1) amplitude =  0.7177
    D(157) --> V(  2) amplitude =  0.3493
    D(157) --> V(  3) amplitude = -0.2263

 Excited state   6: excitation energy (eV) =    3.6100
 Total energy for state  6:                 -1855.40544118 au
    Multiplicity: Singlet
    Trans. Mom.:  0.4499 X   0.3221 Y  -0.1465 Z
    Strength   :     0.0289755448
    D(157) --> V(  1) amplitude =  0.9905

 Excited state   7: excitation energy (eV) =    3.6932
 Total energy for state  7:                 -1855.40238428 au
    Multiplicity: Triplet
    Trans. Mom.:  0.0000 X   0.0000 Y   0.0000 Z
    Strength   :     0.0000000000
    D(147) --> V(  1) amplitude = -0.2256
    D(148) --> V(  1) amplitude = -0.6911
    D(149) --> V(  1) amplitude = -0.3965
    D(157) --> V(  1) amplitude = -0.4041

 Excited state   8: excitation energy (eV) =    3.7436
 Total energy for state  8:                 -1855.40053353 au
    Multiplicity: Triplet
    Trans. Mom.:  0.0000 X   0.0000 Y   0.0000 Z
    Strength   :     0.0000000000
    D(153) --> V( 10) amplitude =  0.2235
    D(156) --> V(  7) amplitude = -0.2133
    D(156) --> V( 12) amplitude = -0.2158
    D(158) --> V(  6) amplitude =  0.2610
    D(158) --> V(  8) amplitude =  0.7585

 Excited state   9: excitation energy (eV) =    4.1768
 Total energy for state  9:                 -1855.38461447 au
    Multiplicity: Singlet
    Trans. Mom.:  1.2549 X   0.7940 Y   0.2624 Z
    Strength   :     0.2326903181
    D(155) --> V(  1) amplitude =  0.9653

 Excited state  10: excitation energy (eV) =    4.3153
 Total energy for state 10:                 -1855.37952227 au
    Multiplicity: Singlet
    Trans. Mom.:  0.3219 X   0.1024 Y   0.0467 Z
    Strength   :     0.0122946435
    D(151) --> V(  1) amplitude =  0.2617
    D(154) --> V(  1) amplitude =  0.9108
    D(156) --> V(  1) amplitude =  0.2451

 Excited state  11: excitation energy (eV) =    4.5509
 Total energy for state 11:                 -1855.37086491 au
    Multiplicity: Singlet
    Trans. Mom.:  0.0555 X  -0.0397 Y  -0.1352 Z
    Strength   :     0.0025555466
    D(158) --> V(  2) amplitude =  0.9532
    D(158) --> V(  3) amplitude = -0.2476

 Excited state  12: excitation energy (eV) =    4.5803
 Total energy for state 12:                 -1855.36978507 au
    Multiplicity: Singlet
    Trans. Mom.: -0.0966 X   0.2884 Y   0.4183 Z
    Strength   :     0.0300128844
    D(148) --> V(  1) amplitude =  0.3034
    D(149) --> V(  1) amplitude =  0.3091
    D(151) --> V(  1) amplitude = -0.2212
    D(152) --> V(  1) amplitude =  0.7604
    D(156) --> V(  1) amplitude = -0.2170

 ---------------------------------------------------
