 Q-Chem 5.0, Q-Chem, Inc., Pleasanton, CA (2017)
 Q-Chem 5.0.1 for Intel X86 EM64T Linux

User input:
--------------------------------------------------------------
$solvent
dielectric      4.33
dielectric_infi 1.83
$end

$rem
threads 8
jobtype	sp
method PBEh-3c
basis def2-mSVP
mem_static	1024
mem_total	14000
sym_ignore	true
cis_n_roots             2
cis_singlets            false
cis_triplets		true
rpa                     false
calc_soc 		true
cis_moments             true
cis_relaxed_density	true
solvent_method		pcm
$end

$pcm
StateSpecific   1
ChargeSeparation Excited
$end

$molecule
read utleopt_eth.mol
$end

--------------------------------------------------------------

   15   -1855.5333185760      4.74E-09 Convergence criterion met
 Total energy in the final basis set = -1855.53331858
 Total job time:  3767.69s(wall), 10526.01s(cpu)
        *  Thank you very much for using Q-Chem.  Have a nice day.  *
 Q-Chem 5.0, Q-Chem, Inc., Pleasanton, CA (2017)
 Q-Chem 5.0.1 for Intel X86 EM64T Linux

User input:
--------------------------------------------------------------
$rem
threads 8
jobtype sp
method PBEh-3c
basis def2-mSVP
mem_static      1024
mem_total       14000
sym_ignore      true
cis_n_roots             6
cis_singlets            true
cis_triplets            true
rpa                     false
calc_soc                true
cis_moments             true
cis_relaxed_density     true
solvent_method          pcm
$end

$molecule
read
$end

$pcm
statespecific           Marcus
$end

$solvent
dielectric      4.33
dielectric_infi 1.83
$end

--------------------------------------------------------------

             Standard Nuclear Orientation (Angstroms)
    I     Atom           X                Y                Z
 ----------------------------------------------------------------
    1      N       0.0000000000     0.0000000000     0.0000000000
    2      C       0.0000000000     0.0000000000     1.3959750000
    3      C       1.1945787135     0.0000000000     2.1168201673
    4      H       2.1454610955     0.0190467666     1.6017378210
    5      C       1.1711056265    -0.0355711751     3.5011262921
    6      H       2.1057205270    -0.0345022559     4.0472611567
    7      C      -0.0365079675    -0.0895834184     4.1777599527
    8      H      -0.0606992764    -0.1291069426     5.2587111499
    9      C      -1.2214415674    -0.0745786856     3.4554477484
   10      H      -2.1579837991    -0.0916349215     3.9961480240
   11      C      -1.2278922249    -0.0062649984     2.0685371422
   12      C      -1.0798778456    -0.5678963522    -0.6842721840
   13      C      -0.9440193346    -1.1014219773    -1.9660520881
   14      H       0.0013518358    -1.0593779913    -2.4883616015
   15      C      -2.0215766404    -1.7121303920    -2.5853205581
   16      H      -1.8914437211    -2.1281522687    -3.5762528773
   17      C      -3.2409906462    -1.8069316883    -1.9356915066
   18      H      -4.0816110182    -2.2982805809    -2.4073328889
   19      C      -3.3813632940    -1.2429251275    -0.6756515031
   20      H      -4.3466216205    -1.2923928851    -0.1905333578
   21      C      -2.3276916382    -0.5955704993    -0.0444257970
   22      C       1.1869325997     0.3561497522    -0.6868549883
   23      C       2.0597689388    -0.6079001947    -1.1500476438
   24      H       1.8191289240    -1.6474474067    -0.9630662692
   25      C       1.4792625157     1.6965377810    -0.8961934771
   26      H       0.8047761738     2.4633183075    -0.5367475836
   27      C       2.6493191500     2.0317291686    -1.5459542451
   28      H       2.8982476213     3.0776911586    -1.6782507159
   29      C       3.2073489633    -0.2822311711    -1.8730090884
   30      C       3.5267490349     1.0652434634    -2.0440024268
   31      C       4.8163059790     1.5375799289    -2.6520854104
   32      H       4.9136989146     2.6092866390    -2.4755929358
   33      H       4.8211374291     1.4165918850    -3.7399012162
   34      C      -2.4831726769     0.1942264691     1.2435307285
   35      C      -3.7462472963    -0.1794028079     2.0119474928
   36      H      -4.6368203244     0.0032970912     1.4112426834
   37      H      -3.8528992201     0.4366820093     2.9046626410
   38      H      -3.7461912275    -1.2264181565     2.3174234216
   39      C       3.9346839316    -1.4883667807    -2.4748167466
   40      C       5.1885480442    -1.2692813327    -3.3022441690
   41      C       5.4225260014    -2.0208314436    -4.4383615065
   42      H       4.6134720291    -2.5540077946    -4.9167723583
   43      C       6.6978854384    -2.1677212919    -4.9685710101
   44      C       6.9056093141    -2.8707177376    -6.1593520959
   45      N       7.0924886539    -3.4535797094    -7.1439184454
   46      C       7.8693714855    -1.5971036374    -4.2280796551
   47      C       7.6052424741    -0.6832112994    -3.2116937427
   48      H       8.4262571510    -0.1128770614    -2.7940132580
   49      C       6.3233061543    -0.4210292969    -2.7937008747
   50      C       9.1734172958    -1.9090791854    -4.6138723723
   51      N      10.2564263565    -2.1667111848    -4.9411146029
   52      C       6.0220626311     0.8201603992    -2.0315143170
   53      H       6.9010627911     1.4654766819    -2.0398847149
   54      H       5.8050181085     0.6125939283    -0.9775796208
   55      C       2.9148978329    -2.3093199263    -3.2573544413
   56      C       2.1124552172    -1.8790630725    -4.2959235739
   57      H       2.1561148559    -0.8547000206    -4.6468656735
   58      C       1.2396096116    -2.7895553404    -4.8793944498
   59      H       0.6003233984    -2.4738164827    -5.6934257310
   60      C       1.1799975896    -4.1032802157    -4.4227957654
   61      H       0.4937633305    -4.7988958960    -4.8873849778
   62      C       1.9831546019    -4.5290892681    -3.3740424354
   63      H       1.9221790804    -5.5493650578    -3.0171892110
   64      C       2.8525175587    -3.6191747970    -2.7898259035
   65      C       3.7696532251    -3.7528225309    -1.6632005783
   66      C       4.0686453975    -4.8417711807    -0.8613086910
   67      H       3.6097386020    -5.8058471281    -1.0403998848
   68      C       4.9665952855    -4.6753421569     0.1855822838
   69      H       5.2110892305    -5.5171351467     0.8197979943
   70      C       5.5453149421    -3.4364850509     0.4355601045
   71      H       6.2307913586    -3.3208027852     1.2646356848
   72      C       5.2481699405    -2.3425381042    -0.3689404537
   73      H       5.6921809426    -1.3793032622    -0.1549307585
   74      C       4.3656815513    -2.5132233419    -1.4190100201
   75      C      -2.5739570379     1.6926410612     0.8806147871
   76      H      -1.6976483820     2.0354394098     0.3300460675
   77      H      -3.4532453577     1.8823744402     0.2622261081
   78      H      -2.6553786220     2.2948991123     1.7874577841
 ----------------------------------------------------------------

   15   -1855.5332713943      5.16E-09 Convergence criterion met
 Total energy in the final basis set = -1855.53327139

         TDDFT/TDA Excitation Energies
 ---------------------------------------------------

 Excited state   1: excitation energy (eV) =    2.3805
 Total energy for state  1:                 -1855.44579048 au
    Multiplicity: Triplet
    Trans. Mom.:  0.0000 X   0.0000 Y   0.0000 Z
    Strength   :     0.0000000000
    D(150) --> V(  1) amplitude = -0.2587
    D(155) --> V(  1) amplitude =  0.8587
    D(157) --> V(  1) amplitude =  0.2458

 Excited state   2: excitation energy (eV) =    3.2903
 Total energy for state  2:                 -1855.41235379 au
    Multiplicity: Triplet
    Trans. Mom.:  0.0000 X   0.0000 Y   0.0000 Z
    Strength   :     0.0000000000
    D(158) --> V(  1) amplitude =  0.9961

 Excited state   3: excitation energy (eV) =    3.2921
 Total energy for state  3:                 -1855.41228977 au
    Multiplicity: Singlet
    Trans. Mom.:  0.1557 X  -0.0383 Y  -0.0861 Z
    Strength   :     0.0026702980
    D(158) --> V(  1) amplitude =  0.9976

 Excited state   4: excitation energy (eV) =    3.3468
 Total energy for state  4:                 -1855.41027815 au
    Multiplicity: Triplet
    Trans. Mom.:  0.0000 X   0.0000 Y   0.0000 Z
    Strength   :     0.0000000000
    D(157) --> V(  1) amplitude =  0.4126
    D(157) --> V(  2) amplitude = -0.6596
    D(157) --> V(  3) amplitude =  0.3518

 Excited state   5: excitation energy (eV) =    3.6097
 Total energy for state  5:                 -1855.40061910 au
    Multiplicity: Triplet
    Trans. Mom.:  0.0000 X   0.0000 Y   0.0000 Z
    Strength   :     0.0000000000
    D(148) --> V(  1) amplitude = -0.3623
    D(149) --> V(  1) amplitude = -0.2771
    D(157) --> V(  1) amplitude =  0.7090
    D(157) --> V(  2) amplitude =  0.3236

 Excited state   6: excitation energy (eV) =    3.6424
 Total energy for state  6:                 -1855.39941547 au
    Multiplicity: Singlet
    Trans. Mom.:  0.4584 X   0.3147 Y  -0.1472 Z
    Strength   :     0.0295207773
    D(157) --> V(  1) amplitude =  0.9903

 Excited state   7: excitation energy (eV) =    3.7115
 Total energy for state  7:                 -1855.39687637 au
    Multiplicity: Triplet
    Trans. Mom.:  0.0000 X   0.0000 Y   0.0000 Z
    Strength   :     0.0000000000
    D(148) --> V(  1) amplitude =  0.6657
    D(149) --> V(  1) amplitude =  0.3972
    D(157) --> V(  1) amplitude =  0.4401

 Excited state   8: excitation energy (eV) =    3.7480
 Total energy for state  8:                 -1855.39553618 au
    Multiplicity: Triplet
    Trans. Mom.:  0.0000 X   0.0000 Y   0.0000 Z
    Strength   :     0.0000000000
    D(153) --> V( 10) amplitude = -0.2234
    D(156) --> V(  7) amplitude = -0.2205
    D(156) --> V( 12) amplitude = -0.2152
    D(158) --> V(  6) amplitude =  0.2539
    D(158) --> V(  8) amplitude =  0.7494

 Excited state   9: excitation energy (eV) =    4.2090
 Total energy for state  9:                 -1855.37859236 au
    Multiplicity: Singlet
    Trans. Mom.:  1.2703 X   0.7633 Y   0.2420 Z
    Strength   :     0.2325309956
    D(155) --> V(  1) amplitude =  0.9659

 Excited state  10: excitation energy (eV) =    4.3499
 Total energy for state 10:                 -1855.37341570 au
    Multiplicity: Singlet
    Trans. Mom.:  0.3063 X   0.0997 Y   0.0419 Z
    Strength   :     0.0112469937
    D(151) --> V(  1) amplitude =  0.2865
    D(154) --> V(  1) amplitude =  0.9017

 Excited state  11: excitation energy (eV) =    4.5130
 Total energy for state 11:                 -1855.36742040 au
    Multiplicity: Singlet
    Trans. Mom.:  0.0493 X  -0.0050 Y  -0.0743 Z
    Strength   :     0.0008817358
    D(158) --> V(  2) amplitude =  0.9642
    D(158) --> V(  3) amplitude = -0.2386

 Excited state  12: excitation energy (eV) =    4.5908
 Total energy for state 12:                 -1855.36456411 au
    Multiplicity: Singlet
    Trans. Mom.:  0.2733 X  -0.0886 Y  -0.4781 Z
    Strength   :     0.0349930717
    D(158) --> V(  3) amplitude = -0.4356
    D(158) --> V(  5) amplitude = -0.3565
    D(158) --> V(  6) amplitude = -0.7518

 ---------------------------------------------------

                    Orbital Energies (a.u.)
 --------------------------------------------------------------

 Alpha MOs
 -- Occupied --
-14.680 -14.667 -14.664 -10.528 -10.526 -10.513 -10.511 -10.511
-10.506 -10.503 -10.495 -10.494 -10.493 -10.488 -10.488 -10.480
-10.473 -10.473 -10.470 -10.469 -10.468 -10.468 -10.461 -10.461
-10.461 -10.460 -10.459 -10.459 -10.459 -10.458 -10.458 -10.457
-10.457 -10.457 -10.456 -10.454 -10.454 -10.446 -10.446 -10.446
-10.445 -10.444 -10.443 -10.439 -10.439 -10.426 -10.425  -1.093
 -1.039  -1.027  -1.026  -0.994  -0.983  -0.962  -0.961  -0.960
 -0.931  -0.925  -0.912  -0.897  -0.884  -0.877  -0.853  -0.850
 -0.850  -0.840  -0.837  -0.821  -0.819  -0.809  -0.790  -0.774
 -0.770  -0.738  -0.727  -0.720  -0.712  -0.707  -0.701  -0.685
 -0.675  -0.673  -0.670  -0.665  -0.661  -0.637  -0.620  -0.613
 -0.613  -0.605  -0.590  -0.581  -0.573  -0.562  -0.560  -0.555
 -0.540  -0.537  -0.533  -0.532  -0.526  -0.522  -0.521  -0.519
 -0.510  -0.506  -0.503  -0.502  -0.498  -0.495  -0.493  -0.491
 -0.490  -0.485  -0.481  -0.477  -0.471  -0.460  -0.458  -0.452
 -0.449  -0.446  -0.442  -0.439  -0.437  -0.436  -0.432  -0.430
 -0.427  -0.425  -0.423  -0.420  -0.419  -0.413  -0.411  -0.408
 -0.405  -0.404  -0.400  -0.398  -0.396  -0.392  -0.388  -0.380
 -0.374  -0.363  -0.345  -0.331  -0.322  -0.308  -0.302  -0.298
 -0.292  -0.290  -0.288  -0.285  -0.267  -0.233

          Ground-State Mulliken Net Atomic Charges

     Atom                 Charge (a.u.)
  ----------------------------------------
      1 N                    -0.708421
      2 C                     0.308680
      3 C                    -0.305876
      4 H                     0.259043
      5 C                    -0.261823
      6 H                     0.242639
      7 C                    -0.248212
      8 H                     0.238307
      9 C                    -0.345188
     10 H                     0.240616
     11 C                     0.148537
     12 C                     0.308901
     13 C                    -0.316170
     14 H                     0.278648
     15 C                    -0.263015
     16 H                     0.240606
     17 C                    -0.248706
     18 H                     0.237860
     19 C                    -0.344419
     20 H                     0.240379
     21 C                     0.139980
     22 C                     0.221354
     23 C                    -0.303291
     24 H                     0.280989
     25 C                    -0.249667
     26 H                     0.259299
     27 C                    -0.323237
     28 H                     0.248764
     29 C                     0.221454
     30 C                     0.068129
     31 C                    -0.539591
     32 H                     0.270259
     33 H                     0.265966
     34 C                    -0.217294
     35 C                    -0.677422
     36 H                     0.240592
     37 H                     0.240274
     38 H                     0.239435
     39 C                    -0.391459
     40 C                     0.130466
     41 C                    -0.273194
     42 H                     0.293945
     43 C                     0.056414
     44 C                     0.021971
     45 N                    -0.215249
     46 C                     0.048647
     47 C                    -0.299163
     48 H                     0.283209
     49 C                     0.135056
     50 C                     0.025721
     51 N                    -0.214124
     52 C                    -0.541711
     53 H                     0.276242
     54 H                     0.273345
     55 C                     0.017587
     56 C                    -0.267730
     57 H                     0.255954
     58 C                    -0.258084
     59 H                     0.253540
     60 C                    -0.233052
     61 H                     0.254502
     62 C                    -0.351829
     63 H                     0.246034
     64 C                     0.161812
     65 C                     0.125713
     66 C                    -0.339562
     67 H                     0.244813
     68 C                    -0.241362
     69 H                     0.253803
     70 C                    -0.245906
     71 H                     0.252759
     72 C                    -0.299483
     73 H                     0.248264
     74 C                     0.143922
     75 C                    -0.617204
     76 H                     0.240401
     77 H                     0.228700
     78 H                     0.227908
  ----------------------------------------
  Sum of atomic charges =    -0.000000

                    Cartesian Multipole Moments
 -----------------------------------------------------------------
    Charge (ESU x 10^10)
                -0.0000
    Dipole Moment (Debye)
         X      -5.6166      Y       4.8287      Z       6.0945
       Tot       9.5920
    Quadrupole Moments (Debye-Ang)
        XX    -341.6114     XY      50.8730     YY    -264.5390
        XZ      79.1945     YZ     -32.0744     ZZ    -317.3825

 Total job time:  7880.51s(wall), 30232.37s(cpu)
        *  Thank you very much for using Q-Chem.  Have a nice day.  *
