 Q-Chem 5.1, Q-Chem, Inc., Pleasanton, CA (2018)
 Q-Chem 5.1.1 for Intel X86 EM64T Linux

User input:
--------------------------------------------------------------
$solvent
dielectric      2.03
dielectric_infi 2.02
$end

$rem
threads 8
jobtype	sp
method PBEh-3c
basis def2-mSVP
mem_static	1024
mem_total	14000
sym_ignore	true
cis_n_roots             2
cis_singlets            true
cis_triplets		false
rpa                     false
calc_soc 		true
cis_moments             true
cis_relaxed_density	true
solvent_method		pcm
$end

$pcm
StateSpecific   1
ChargeSeparation Excited
$end

$molecule
read moms1opt_chx.mol
$end

--------------------------------------------------------------

   14   -3629.2733317827      8.40e-09  Convergence criterion met
 Total energy in the final basis set =    -3629.2733317827
 Total job time:  33878.36s(wall), 84898.28s(cpu)
        *  Thank you very much for using Q-Chem.  Have a nice day.  *
 Q-Chem 5.1, Q-Chem, Inc., Pleasanton, CA (2018)
 Q-Chem 5.1.1 for Intel X86 EM64T Linux

User input:
--------------------------------------------------------------
$rem
threads 8
jobtype sp
method PBEh-3c
basis def2-mSVP
mem_static      1024
mem_total       14000
sym_ignore      true
cis_n_roots             6
cis_singlets            true
cis_triplets            true
rpa                     false
calc_soc                true
cis_moments             true
cis_relaxed_density     true
solvent_method          pcm
$end

$molecule
read
$end

$pcm
statespecific           Marcus
$end

$solvent
dielectric      2.03
dielectric_infi 2.02
$end

--------------------------------------------------------------

             Standard Nuclear Orientation (Angstroms)
    I     Atom           X                Y                Z
 ----------------------------------------------------------------
    1      N       0.0000000000     0.0000000000     0.0000000000
    2      C       0.0000000000     0.0000000000     1.3929030000
    3      C       1.2100694538     0.0000000000    -0.6898850110
    4      C       1.2978080729    -0.5073883684    -1.9868658193
    5      H       0.4152604497    -0.8868939160    -2.4834344478
    6      C       2.5176524667    -0.5407088830    -2.6388898550
    7      H       2.5691743589    -0.9398904544    -3.6440770357
    8      C       3.6619233729    -0.0842886507    -2.0051622152
    9      H       4.6206651617    -0.1204638851    -2.5049914149
   10      C       3.5638788710     0.4427591187    -0.7253206209
   11      H       4.4584494769     0.8243698150    -0.2519346827
   12      C       2.3481962321     0.5198211011    -0.0595618307
   13      C      -1.0885006394    -0.4923383696     2.1148699684
   14      H      -1.9646256273    -0.8578457864     1.5975070548
   15      C      -1.0489627353    -0.5266982563     3.4977312333
   16      H      -1.9019154083    -0.9130382026     4.0413842297
   17      C       0.0753483413    -0.0859595229     4.1764552852
   18      H       0.1173533943    -0.1237118699     5.2568531397
   19      C       1.1422053139     0.4313018148     3.4555845679
   20      H       2.0006068602     0.8046038404     3.9974762698
   21      C       1.1159653661     0.5112025052     2.0696778579
   22      C      -1.2176763331    -0.2003563837    -0.7095810274
   23      C      -1.9149412762     0.9057678558    -1.1613133125
   24      H      -1.5173188316     1.8961500746    -0.9663002262
   25      C      -1.7185169909    -1.4698076798    -0.9519662739
   26      H      -1.1723821143    -2.3367742996    -0.5953237768
   27      C      -3.1099854815     0.7604690701    -1.8576799427
   28      C      -2.9165501637    -1.6356915030    -1.6395288141
   29      C      -3.6308275318    -0.5189343630    -2.1053091508
   30      C      -3.4600954035    -3.0298997387    -1.8094533643
   31      H      -3.9945956120    -3.1140468350    -2.7574716005
   32      H      -2.6320148119    -3.7419810167    -1.8583178608
   33      C      -3.7917567994     2.0004771573    -2.3770315589
   34      H      -4.8742160775     1.8615670001    -2.3893982986
   35      H      -3.5979743371     2.8335461761    -1.6955827204
   36      C       2.1516425106     1.2588499120     1.2506375874
   37      C       3.4595086675     1.4586265467     2.0078521016
   38      H       3.2940647830     2.0240742488     2.9244071065
   39      H       4.1646793089     2.0416263889     1.4157786237
   40      H       3.9305508571     0.5103311126     2.2694542927
   41      C      -3.3163020826     2.3761799565    -3.7790608000
   42      H      -3.5487330206     1.5892187150    -4.4967816580
   43      H      -3.8004453417     3.2911926262    -4.1233887689
   44      H      -2.2376805278     2.5393961821    -3.7997123470
   45      C      -4.3942613927    -3.4173484205    -0.6646901404
   46      H      -5.2540940183    -2.7489968236    -0.6183617537
   47      H      -4.7694279246    -4.4341169063    -0.7902065852
   48      H      -3.8796687782    -3.3655642322     0.2962994079
   49      C       1.5712820166     2.6523543365     0.9238803408
   50      H       0.6293036175     2.5849911828     0.3793317027
   51      H       2.2722398813     3.2204656073     0.3094519633
   52      H       1.3844094503     3.2117344167     1.8426541000
   53      B      -4.9956530675    -0.7028214322    -2.8895199887
   54      C      -6.3430313143    -0.4967010507    -2.1816469255
   55      C      -6.4073565993    -0.0951667653    -0.8469435230
   56      H      -5.4663855464     0.0190242133    -0.3248574540
   57      C      -7.5961921615     0.1667903276    -0.1722953476
   58      C      -8.8156966816     0.0164995011    -0.8850159228
   59      C      -8.7611932643    -0.4323211137    -2.1972437590
   60      H      -9.6864750652    -0.5923364529    -2.7360544027
   61      C      -7.5733784815    -0.6944649743    -2.8829698191
   62      C      -7.6235016922     0.5757121013     1.2258562511
   63      C      -6.4396715793     0.7347273486     1.9637084525
   64      H      -5.4858368890     0.5721292942     1.4812305046
   65      C      -6.4301343068     1.0962198339     3.2930904325
   66      C      -7.6604406386     1.3060002811     3.9241342216
   67      H      -7.6914532119     1.5846598363     4.9709758012
   68      C      -8.8343142846     1.1675492694     3.2238027418
   69      H      -9.7602860565     1.3435580620     3.7529799014
   70      C      -8.8528071205     0.8115516517     1.8672271142
   71      C     -10.0824808468     0.3351382021    -0.2359422411
   72      C     -10.1032630440     0.7083061408     1.1187206747
   73      C     -11.3447378585     0.9995209721     1.7059789011
   74      H     -11.4002422830     1.2916908175     2.7449557310
   75      C     -12.5194994050     0.9428755638     0.9954587099
   76      H     -13.4548645354     1.1834645663     1.4874669014
   77      C     -12.5109848861     0.5958016733    -0.3586265515
   78      C     -11.2975700403     0.3007899003    -0.9412182424
   79      H     -11.2954437265     0.0534247895    -1.9945790225
   80      C      -5.1447220036     1.2599927393     4.0481193868
   81      H      -4.2779558623     1.0866531371     3.4109890664
   82      H      -5.0538460434     2.2659836274     4.4613505386
   83      H      -5.0858657588     0.5627064189     4.8859354498
   84      C     -13.7892886439     0.5559423989    -1.1443534450
   85      H     -13.6059690127     0.3618892572    -2.2013845509
   86      H     -14.3305914374     1.5008060865    -1.0737644681
   87      H     -14.4596016712    -0.2230934048    -0.7738980237
   88      B      -7.5758232362    -1.1649735073    -4.3382842556
   89      C      -6.2394067995    -1.3441200232    -5.0570049212
   90      C      -6.1736053368    -1.7374004501    -6.3954879897
   91      H      -7.1127703997    -1.9428704714    -6.8936612293
   92      C      -4.9886332418    -1.8513201134    -7.1107664873
   93      C      -3.7727665362    -1.5175314390    -6.4577425362
   94      C      -3.8243640048    -1.1816435544    -5.1081091992
   95      H      -2.9056994488    -0.9670264247    -4.5784189370
   96      C      -5.0074682489    -1.0898400349    -4.3759692788
   97      C      -2.5280696121    -1.5058314865    -7.2125245763
   98      C      -1.3264091227    -1.0799642624    -6.6264057959
   99      H      -1.3217428194    -0.7597384968    -5.5935859161
  100      C      -0.1357933366    -1.0264929421    -7.3173078201
  101      C      -0.1401735094    -1.4118945258    -8.6614018075
  102      H       0.7763815319    -1.3742593613    -9.2382742073
  103      C      -1.3043862310    -1.8265916681    -9.2630781942
  104      H      -1.2623762539    -2.0992116439   -10.3083139337
  105      C      -2.5196628890    -1.8862258206    -8.5663052647
  106      C      -4.9673135182    -2.2888208354    -8.5014315238
  107      C      -6.1393972265    -2.7027014767    -9.1557393508
  108      H      -7.0770588182    -2.7070398020    -8.6161123450
  109      C      -6.1573471298    -3.1221003496   -10.4677528997
  110      C      -4.9454630495    -3.1415796499   -11.1646324753
  111      H      -4.9187384763    -3.4717924511   -12.1965693699
  112      C      -3.7818417212    -2.7502358425   -10.5470377638
  113      H      -2.8681293143    -2.7922943278   -11.1226762519
  114      C      -3.7563775733    -2.3134487683    -9.2134509231
  115      C       1.1286251915    -0.5742664918    -6.6493975956
  116      H       0.9255810225    -0.0858775155    -5.6965538867
  117      H       1.6804341512     0.1298147124    -7.2733283529
  118      H       1.7931260550    -1.4185102119    -6.4519896056
  119      C      -7.4320931427    -3.5516028034   -11.1339521438
  120      H      -8.2776910684    -3.5027326176   -10.4471681007
  121      H      -7.3658832777    -4.5777516933   -11.4997085594
  122      H      -7.6638872367    -2.9196206460   -11.9937467077
  123      C      -8.9540682111    -1.4417436434    -5.0806558120
  124      C      -9.7092913723    -0.3827753469    -5.6148872250
  125      C     -10.9455524937    -0.6257112182    -6.2018534318
  126      H     -11.5375042806     0.1924403581    -6.5979996754
  127      C     -11.4213868119    -1.9200239420    -6.2673551216
  128      C     -10.6973092289    -2.9869861200    -5.7741408449
  129      H     -11.0958515463    -3.9937235833    -5.8357779618
  130      C      -9.4631157384    -2.7488312489    -5.1788598882
  131      N     -12.7259059822    -2.1449194626    -6.8288608404
  132      C     -12.8586809166    -2.2090537018    -8.1956842294
  133      C     -13.7941965962    -2.2544095232    -5.9681373565
  134      C     -15.0941860556    -2.4435175138    -6.4746221309
  135      C     -16.1325664359    -2.5591652992    -5.5620850419
  136      H     -17.1427168867    -2.7045029496    -5.9205303276
  137      C     -15.9158721637    -2.4864414593    -4.1966694539
  138      H     -16.7493713918    -2.5818240964    -3.5141869686
  139      C     -14.6284374068    -2.2800461622    -3.7065928574
  140      H     -14.4514329535    -2.2094389674    -2.6425502482
  141      C     -13.5748016163    -2.1578527176    -4.5777314880
  142      H     -12.5814520193    -1.9870542638    -4.1910516394
  143      C     -14.1317502248    -2.3690554201    -8.7774810176
  144      C     -14.2079795198    -2.4069538713   -10.1617037021
  145      H     -15.1723501525    -2.5213268655   -10.6385645169
  146      C     -13.0802576919    -2.3003826311   -10.9583415556
  147      H     -13.1781647343    -2.3326514962   -12.0348690098
  148      C     -11.8243588715    -2.1573966128   -10.3722603635
  149      H     -10.9381992697    -2.0819473636   -10.9869528583
  150      C     -11.7076701424    -2.1134892717    -9.0053775580
  151      H     -10.7327033373    -2.0061849110    -8.5538796605
  152      C      -8.7358791801    -3.9157284346    -4.5692162172
  153      H      -7.6595541333    -3.7432387542    -4.6018423250
  154      H      -8.9267469147    -4.8166464576    -5.1586230559
  155      C      -9.1961219565     1.0325623067    -5.6122935527
  156      H      -8.5564837494     1.1976889602    -4.7446986166
  157      H     -10.0359673755     1.7264824517    -5.5166829028
  158      C     -15.3908179503    -2.4898398744    -7.9534931338
  159      C      -8.4169820788     1.3514636526    -6.8867872818
  160      H      -7.5486345913     0.7007288294    -6.9872980100
  161      H      -8.0590702304     2.3811136717    -6.8736292714
  162      H      -9.0388511225     1.2248006055    -7.7751057820
  163      C      -9.1738860295    -4.1474941313    -3.1240749314
  164      H      -8.9680644578    -3.2709862698    -2.5102753070
  165      H      -8.6424259654    -4.9925299852    -2.6859110768
  166      H     -10.2436854276    -4.3568569452    -3.0643183176
  167      C     -16.0855075509    -3.8239687598    -8.2898329862
  168      H     -16.3373270965    -3.8754779822    -9.3480947115
  169      H     -17.0154919773    -3.9293008491    -7.7328113286
  170      H     -15.4474538239    -4.6736640208    -8.0501105982
  171      C     -16.3268401977    -1.3139726143    -8.3039575038
  172      H     -17.2564902640    -1.3765649839    -7.7394614338
  173      H     -16.5867175691    -1.3275115302    -9.3618518054
  174      H     -15.8585542014    -0.3557657588    -8.0810817816
 ----------------------------------------------------------------

   14   -3629.2732433056      8.41e-09  Convergence criterion met
 Total energy in the final basis set =    -3629.2732433056

         TDDFT/TDA Excitation Energies
 ---------------------------------------------------

 Excited state   1: excitation energy (eV) =    2.4863
 Total energy for state  1:                 -3629.18187370 au
    Multiplicity: Triplet
    Trans. Mom.:  0.0000 X   0.0000 Y   0.0000 Z
    Strength   :     0.0000000000
    D(317) --> V(  3) amplitude =  0.2239
    D(319) --> V(  1) amplitude =  0.8796

 Excited state   2: excitation energy (eV) =    2.6687
 Total energy for state  2:                 -3629.17517073 au
    Multiplicity: Triplet
    Trans. Mom.:  0.0000 X   0.0000 Y   0.0000 Z
    Strength   :     0.0000000000
    D(322) --> V(  1) amplitude =  0.9958

 Excited state   3: excitation energy (eV) =    2.6700
 Total energy for state  3:                 -3629.17512365 au
    Multiplicity: Singlet
    Trans. Mom.: -0.0869 X  -0.0168 Y  -0.0430 Z
    Strength   :     0.0006333663
    D(322) --> V(  1) amplitude =  0.9964

 Excited state   4: excitation energy (eV) =    2.7973
 Total energy for state  4:                 -3629.17044570 au
    Multiplicity: Triplet
    Trans. Mom.:  0.0000 X   0.0000 Y   0.0000 Z
    Strength   :     0.0000000000
    D(312) --> V(  1) amplitude = -0.2942
    D(314) --> V(  1) amplitude = -0.2272
    D(320) --> V(  1) amplitude =  0.8348

 Excited state   5: excitation energy (eV) =    2.9278
 Total energy for state  5:                 -3629.16564910 au
    Multiplicity: Triplet
    Trans. Mom.:  0.0000 X   0.0000 Y   0.0000 Z
    Strength   :     0.0000000000
    D(317) --> V(  1) amplitude = -0.7107
    D(319) --> V(  3) amplitude = -0.3967
    D(320) --> V(  4) amplitude =  0.2169

 Excited state   6: excitation energy (eV) =    2.9555
 Total energy for state  6:                 -3629.16462889 au
    Multiplicity: Triplet
    Trans. Mom.:  0.0000 X   0.0000 Y   0.0000 Z
    Strength   :     0.0000000000
    D(307) --> V(  1) amplitude = -0.2501
    D(318) --> V(  1) amplitude =  0.4582
    D(321) --> V(  1) amplitude =  0.8127

 Excited state   7: excitation energy (eV) =    2.9589
 Total energy for state  7:                 -3629.16450576 au
    Multiplicity: Singlet
    Trans. Mom.:  0.0249 X   0.0001 Y   0.0011 Z
    Strength   :     0.0000450715
    D(321) --> V(  1) amplitude =  0.9974

 Excited state   8: excitation energy (eV) =    2.9636
 Total energy for state  8:                 -3629.16433140 au
    Multiplicity: Triplet
    Trans. Mom.:  0.0000 X   0.0000 Y   0.0000 Z
    Strength   :     0.0000000000
    D(307) --> V(  1) amplitude = -0.3340
    D(318) --> V(  1) amplitude =  0.6404
    D(321) --> V(  1) amplitude = -0.5765

 Excited state   9: excitation energy (eV) =    3.1014
 Total energy for state  9:                 -3629.15927003 au
    Multiplicity: Singlet
    Trans. Mom.:  0.0698 X   0.0582 Y  -0.1747 Z
    Strength   :     0.0029467054
    D(319) --> V(  1) amplitude =  0.9537

 Excited state  10: excitation energy (eV) =    3.2155
 Total energy for state 10:                 -3629.15507560 au
    Multiplicity: Singlet
    Trans. Mom.: -1.5746 X   0.7189 Y   2.5455 Z
    Strength   :     0.7464887719
    D(320) --> V(  1) amplitude =  0.9286

 Excited state  11: excitation energy (eV) =    3.4283
 Total energy for state 11:                 -3629.14725584 au
    Multiplicity: Singlet
    Trans. Mom.:  0.0469 X   0.0620 Y  -0.1660 Z
    Strength   :     0.0028219579
    D(318) --> V(  1) amplitude =  0.9051

 Excited state  12: excitation energy (eV) =    3.6211
 Total energy for state 12:                 -3629.14016929 au
    Multiplicity: Singlet
    Trans. Mom.:  0.0051 X   0.0101 Y   0.0405 Z
    Strength   :     0.0001566985
    D(307) --> V(  1) amplitude = -0.2164
    D(313) --> V(  1) amplitude =  0.4945
    D(314) --> V(  1) amplitude = -0.4202
    D(315) --> V(  1) amplitude =  0.4313
    D(316) --> V(  1) amplitude =  0.3564
    D(318) --> V(  1) amplitude =  0.2761

 ---------------------------------------------------

                    Orbital Energies (a.u.)
 --------------------------------------------------------------

 Alpha MOs
 -- Occupied --
-14.676 -14.675 -10.493 -10.492 -10.490 -10.490 -10.487 -10.486
-10.475 -10.475 -10.475 -10.474 -10.470 -10.470 -10.469 -10.469
-10.469 -10.469 -10.469 -10.468 -10.467 -10.466 -10.463 -10.463
-10.462 -10.462 -10.459 -10.459 -10.459 -10.459 -10.459 -10.458
-10.458 -10.458 -10.454 -10.454 -10.454 -10.454 -10.452 -10.452
-10.451 -10.451 -10.451 -10.451 -10.451 -10.451 -10.451 -10.450
-10.449 -10.449 -10.446 -10.445 -10.445 -10.444 -10.444 -10.443
-10.443 -10.443 -10.442 -10.442 -10.442 -10.442 -10.440 -10.440
-10.440 -10.440 -10.439 -10.439 -10.439 -10.439 -10.438 -10.438
-10.438 -10.438 -10.437 -10.436 -10.436 -10.436 -10.436 -10.436
-10.434 -10.434 -10.434 -10.434 -10.426 -10.424 -10.424 -10.424
-10.423 -10.423 -10.423 -10.423  -6.954  -6.953  -1.092  -1.088
 -1.005  -1.004  -0.974  -0.973  -0.966  -0.965  -0.962  -0.959
 -0.958  -0.957  -0.951  -0.950  -0.910  -0.908  -0.908  -0.905
 -0.896  -0.895  -0.884  -0.883  -0.882  -0.873  -0.871  -0.869
 -0.854  -0.853  -0.850  -0.848  -0.835  -0.834  -0.830  -0.827
 -0.824  -0.823  -0.821  -0.818  -0.816  -0.811  -0.807  -0.807
 -0.798  -0.797  -0.791  -0.787  -0.769  -0.767  -0.757  -0.756
 -0.737  -0.729  -0.722  -0.722  -0.719  -0.718  -0.716  -0.712
 -0.710  -0.709  -0.706  -0.703  -0.691  -0.689  -0.687  -0.684
 -0.672  -0.670  -0.670  -0.668  -0.668  -0.663  -0.641  -0.640
 -0.637  -0.636  -0.628  -0.619  -0.618  -0.616  -0.615  -0.614
 -0.611  -0.610  -0.587  -0.586  -0.584  -0.574  -0.570  -0.567
 -0.563  -0.562  -0.556  -0.548  -0.544  -0.543  -0.538  -0.537
 -0.535  -0.532  -0.531  -0.530  -0.528  -0.523  -0.522  -0.520
 -0.520  -0.516  -0.513  -0.511  -0.506  -0.505  -0.505  -0.503
 -0.501  -0.500  -0.500  -0.499  -0.495  -0.493  -0.493  -0.491
 -0.490  -0.490  -0.489  -0.489  -0.488  -0.486  -0.485  -0.482
 -0.482  -0.482  -0.481  -0.476  -0.476  -0.476  -0.474  -0.473
 -0.472  -0.470  -0.469  -0.467  -0.466  -0.460  -0.457  -0.451
 -0.451  -0.450  -0.449  -0.446  -0.446  -0.442  -0.441  -0.440
 -0.439  -0.438  -0.436  -0.436  -0.435  -0.431  -0.431  -0.430
 -0.428  -0.426  -0.426  -0.423  -0.422  -0.421  -0.420  -0.418
 -0.417  -0.414  -0.414  -0.412  -0.412  -0.412  -0.411  -0.407
 -0.407  -0.406  -0.404  -0.399  -0.399  -0.398  -0.397  -0.394
 -0.393  -0.392  -0.390  -0.387  -0.386  -0.384  -0.380  -0.378
 -0.374  -0.373  -0.372  -0.372  -0.368  -0.368  -0.362  -0.358
 -0.355  -0.354  -0.342  -0.335  -0.334  -0.332  -0.326  -0.324
 -0.299  -0.298  -0.291  -0.288  -0.288  -0.286  -0.284  -0.283
 -0.282  -0.282  -0.280  -0.279  -0.273  -0.258  -0.257  -0.254
 -0.228  -0.217

          Ground-State Mulliken Net Atomic Charges

     Atom                 Charge (a.u.)
  ----------------------------------------
      1 N                    -0.709153
      2 C                     0.319923
      3 C                     0.318957
      4 C                    -0.308899
      5 H                     0.254728
      6 C                    -0.255845
      7 H                     0.233944
      8 C                    -0.238685
      9 H                     0.227632
     10 C                    -0.337571
     11 H                     0.229653
     12 C                     0.152525
     13 C                    -0.311623
     14 H                     0.256750
     15 C                    -0.252332
     16 H                     0.231451
     17 C                    -0.239707
     18 H                     0.227728
     19 C                    -0.336303
     20 H                     0.229663
     21 C                     0.149149
     22 C                     0.228559
     23 C                    -0.311682
     24 H                     0.235769
     25 C                    -0.325493
     26 H                     0.244327
     27 C                     0.058737
     28 C                     0.052231
     29 C                    -0.212283
     30 C                    -0.552379
     31 H                     0.256622
     32 H                     0.241768
     33 C                    -0.550310
     34 H                     0.255709
     35 H                     0.241106
     36 C                    -0.224400
     37 C                    -0.670757
     38 H                     0.234799
     39 H                     0.234607
     40 H                     0.239339
     41 C                    -0.653931
     42 H                     0.238940
     43 H                     0.227314
     44 H                     0.222242
     45 C                    -0.654769
     46 H                     0.241352
     47 H                     0.227015
     48 H                     0.220966
     49 C                    -0.611211
     50 H                     0.239776
     51 H                     0.224967
     52 H                     0.225152
     53 B                     0.642050
     54 C                    -0.107896
     55 C                    -0.432424
     56 H                     0.251081
     57 C                     0.114409
     58 C                     0.108634
     59 C                    -0.427103
     60 H                     0.248715
     61 C                    -0.110422
     62 C                     0.122170
     63 C                    -0.405561
     64 H                     0.231776
     65 C                     0.132449
     66 C                    -0.273221
     67 H                     0.234370
     68 C                    -0.321335
     69 H                     0.228973
     70 C                     0.073935
     71 C                     0.117027
     72 C                     0.072842
     73 C                    -0.321493
     74 H                     0.228428
     75 C                    -0.271984
     76 H                     0.234652
     77 C                     0.131153
     78 C                    -0.403017
     79 H                     0.230428
     80 C                    -0.718540
     81 H                     0.244210
     82 H                     0.241507
     83 H                     0.239587
     84 C                    -0.722056
     85 H                     0.246292
     86 H                     0.242215
     87 H                     0.239590
     88 B                     0.634257
     89 C                    -0.107732
     90 C                    -0.430966
     91 H                     0.249581
     92 C                     0.108559
     93 C                     0.112643
     94 C                    -0.431614
     95 H                     0.252154
     96 C                    -0.111233
     97 C                     0.117953
     98 C                    -0.401790
     99 H                     0.229979
    100 C                     0.133914
    101 C                    -0.274023
    102 H                     0.234656
    103 C                    -0.321295
    104 H                     0.228952
    105 C                     0.075361
    106 C                     0.119096
    107 C                    -0.402435
    108 H                     0.229492
    109 C                     0.132274
    110 C                    -0.272603
    111 H                     0.234699
    112 C                    -0.321797
    113 H                     0.228698
    114 C                     0.074093
    115 C                    -0.721551
    116 H                     0.243308
    117 H                     0.240289
    118 H                     0.242115
    119 C                    -0.718498
    120 H                     0.241283
    121 H                     0.242343
    122 H                     0.240674
    123 C                    -0.212866
    124 C                     0.044762
    125 C                    -0.284715
    126 H                     0.241696
    127 C                     0.168203
    128 C                    -0.292861
    129 H                     0.241951
    130 C                     0.044269
    131 N                    -0.705758
    132 C                     0.305079
    133 C                     0.303310
    134 C                     0.131763
    135 C                    -0.305059
    136 H                     0.226926
    137 C                    -0.253138
    138 H                     0.224300
    139 C                    -0.248363
    140 H                     0.235155
    141 C                    -0.319364
    142 H                     0.263218
    143 C                     0.131142
    144 C                    -0.305242
    145 H                     0.226783
    146 C                    -0.252618
    147 H                     0.224698
    148 C                    -0.246869
    149 H                     0.230920
    150 C                    -0.317470
    151 H                     0.260003
    152 C                    -0.552882
    153 H                     0.255396
    154 H                     0.241769
    155 C                    -0.548911
    156 H                     0.255140
    157 H                     0.240716
    158 C                    -0.202322
    159 C                    -0.652103
    160 H                     0.238857
    161 H                     0.226755
    162 H                     0.222344
    163 C                    -0.655265
    164 H                     0.242160
    165 H                     0.226457
    166 H                     0.222936
    167 C                    -0.613171
    168 H                     0.224225
    169 H                     0.223966
    170 H                     0.234757
    171 C                    -0.609936
    172 H                     0.223777
    173 H                     0.223634
    174 H                     0.233499
  ----------------------------------------
  Sum of atomic charges =    -0.000000

                    Cartesian Multipole Moments
 -----------------------------------------------------------------
    Charge (ESU x 10^10)
                 0.0000
    Dipole Moment (Debye)
         X       0.0882      Y       1.1721      Z      -0.2639
       Tot       1.2046
    Quadrupole Moments (Debye-Ang)
        XX    -507.1805     XY      -2.4991     YY    -552.3721
        XZ     -18.4778     YZ      18.1192     ZZ    -485.6462

 Total job time:  63938.25s(wall), 177185.74s(cpu)
        *  Thank you very much for using Q-Chem.  Have a nice day.  *
