 Q-Chem 5.1, Q-Chem, Inc., Pleasanton, CA (2018)
 Q-Chem 5.1.1 for Intel X86 EM64T Linux

User input:
--------------------------------------------------------------
$solvent
dielectric      2.38
dielectric_infi 2.25
$end

$rem
threads 8
jobtype	sp
method PBEh-3c
basis def2-mSVP
mem_static	1024
mem_total	14000
sym_ignore	true
cis_n_roots             2
cis_singlets            true
cis_triplets		false
rpa                     false
calc_soc 		true
cis_moments             true
cis_relaxed_density	true
solvent_method		pcm
$end

$pcm
StateSpecific   1
ChargeSeparation Excited
$end

$molecule
read moms1opt_tol.mol
$end

--------------------------------------------------------------

   14   -3629.2762822847      8.02e-09  Convergence criterion met
 Total energy in the final basis set =    -3629.2762822847
 Total job time:  33096.98s(wall), 79118.07s(cpu)
        *  Thank you very much for using Q-Chem.  Have a nice day.  *
 Q-Chem 5.1, Q-Chem, Inc., Pleasanton, CA (2018)
 Q-Chem 5.1.1 for Intel X86 EM64T Linux

User input:
--------------------------------------------------------------
$rem
threads 8
jobtype sp
method PBEh-3c
basis def2-mSVP
mem_static      1024
mem_total       14000
sym_ignore      true
cis_n_roots             6
cis_singlets            true
cis_triplets            true
rpa                     false
calc_soc                true
cis_moments             true
cis_relaxed_density     true
solvent_method          pcm
$end

$molecule
read
$end

$pcm
statespecific           Marcus
$end

$solvent
dielectric      2.38
dielectric_infi 2.25
$end

--------------------------------------------------------------

             Standard Nuclear Orientation (Angstroms)
    I     Atom           X                Y                Z
 ----------------------------------------------------------------
    1      N       0.0000000000     0.0000000000     0.0000000000
    2      C       0.0000000000     0.0000000000     1.3929000000
    3      C       1.2100651920     0.0000000000    -0.6898662385
    4      C      -1.0833301118     0.5074593609     2.1115186454
    5      H      -1.9520044600     0.8869383593     1.5909840182
    6      C      -1.0456031867     0.5408893406     3.4942931874
    7      H      -1.8933933163     0.9399456247     4.0369066175
    8      C       0.0718739590     0.0846138032     4.1744838959
    9      H       0.1125525032     0.1208311334     5.2549500079
   10      C       1.1352884516    -0.4424667920     3.4553971077
   11      H       1.9895890756    -0.8241039025     3.9981065590
   12      C       1.1114169935    -0.5197187803     2.0694707128
   13      C       1.2981602320     0.4925664149    -1.9930758976
   14      H       0.4148983362     0.8582752181    -2.4980677440
   15      C       2.5191493678     0.5269514589    -2.6437622795
   16      H       2.5689558872     0.9132439522    -3.6540448979
   17      C       3.6656872498     0.0861055114    -2.0031202026
   18      H       4.6250793651     0.1237725483    -2.5017631154
   19      C       3.5678796571    -0.4311958596    -0.7191507476
   20      H       4.4637971311    -0.8047408842    -0.2419896888
   21      C       2.3507945966    -0.5111706830    -0.0555233654
   22      C      -1.2199042942     0.1970180895    -0.7067535636
   23      C      -1.9545166842    -0.9113113815    -1.0888211377
   24      H      -1.5856701730    -1.9007267889    -0.8396531671
   25      C      -1.6817334561     1.4651637164    -1.0224047826
   26      H      -1.1039420965     2.3338892858    -0.7247612001
   27      C      -3.1513465008    -0.7693195810    -1.7829495189
   28      C      -2.8725092640     1.6276106431    -1.7234312418
   29      C      -3.6277501162     0.5087583129    -2.1135910628
   30      C      -3.2927114417     3.0207494241    -2.1117288663
   31      H      -4.3812664739     3.1016650263    -2.1085054949
   32      H      -2.9282794341     3.7336728856    -1.3673698465
   33      C      -3.9363248101    -2.0117183837    -2.1183192426
   34      H      -4.4834595730    -1.8743182493    -3.0526286099
   35      H      -3.2458433884    -2.8427467329    -2.2871927449
   36      C       2.1524194498    -1.2587985677     1.2499175640
   37      C       3.4580182934    -1.4584159531     2.0111466209
   38      H       4.1723742219    -2.0237930650     1.4134967882
   39      H       3.2927189963    -2.0413065335     2.9170178752
   40      H       3.9186175867    -0.5101204738     2.2907728578
   41      C      -4.9180718199    -2.3905006072    -1.0112295462
   42      H      -5.6585686770    -1.6053332711    -0.8573252441
   43      H      -5.4547237547    -3.3066532850    -1.2619669371
   44      H      -4.4014842762    -2.5530616686    -0.0640049554
   45      C      -2.7597374016     3.4104565010    -3.4891735537
   46      H      -3.1415836796     2.7408671394    -4.2599159159
   47      H      -3.0577996542     4.4262169440    -3.7531668040
   48      H      -1.6697810546     3.3625723071    -3.5160636737
   49      C       1.5810954685    -2.6523748338     0.9077085346
   50      H       0.6412875944    -2.5853785866     0.3592919644
   51      H       1.3952049222    -3.2204862869     1.8211063437
   52      H       2.2868049776    -3.2116562714     0.2903342454
   53      B      -4.9846061148     0.6886066479    -2.9128164038
   54      C      -5.0336324590     0.4835621029    -4.4341096315
   55      C      -3.9031682792     0.0859322962    -5.1492265633
   56      H      -2.9843453928    -0.0262819203    -4.5886529833
   57      C      -3.9023019236    -0.1748313028    -6.5163119074
   58      C      -5.1243583580    -0.0270885066    -7.2255163830
   59      C      -6.2402902889     0.4176454041    -6.5299819473
   60      H      -7.1661675355     0.5750745864    -7.0684651453
   61      C      -6.2514544816     0.6780994864    -5.1581504264
   62      C      -2.6984677570    -0.5807223532    -7.2300471874
   63      C      -1.4720499683    -0.7364327486    -6.5644234102
   64      H      -1.4210142181    -0.5727520593    -5.4968555099
   65      C      -0.3102856415    -1.0960305861    -7.2120410082
   66      C      -0.3684574477    -1.3077026936    -8.5933140795
   67      H       0.5270942272    -1.5855994683    -9.1366899188
   68      C      -1.5572438397    -1.1720461139    -9.2688373249
   69      H      -1.5536740203    -1.3494561820   -10.3351192665
   70      C      -2.7468975224    -0.8173520614    -8.6156707209
   71      C      -5.1838512576    -0.3443798889    -8.6480969321
   72      C      -4.0150290399    -0.7158900246    -9.3343018530
   73      C      -4.1156977094    -1.0065982121   -10.7041559946
   74      H      -3.2388936995    -1.2975088835   -11.2650074871
   75      C      -5.3131966944    -0.9505752460   -11.3758974073
   76      H      -5.3460721788    -1.1905097562   -12.4323972943
   77      C      -6.4875105291    -0.6044131798   -10.7009248110
   78      C      -6.3965416025    -0.3101874475    -9.3576490013
   79      H      -7.3122672413    -0.0627830427    -8.8370967955
   80      C       0.9816265775    -1.2543511399    -6.4669869899
   81      H       0.8517279301    -1.0956691947    -5.3968373250
   82      H       1.3979642313    -2.2537079722    -6.6043445847
   83      H       1.7314133835    -0.5435422691    -6.8195160912
   84      C      -7.8010098416    -0.5634166143   -11.4260514823
   85      H      -8.6310615646    -0.3763524348   -10.7445631482
   86      H      -8.0029607784    -1.5051930960   -11.9388368686
   87      H      -7.8108475316     0.2212357104   -12.1860234158
   88      B      -7.5210293507     1.1430133098    -4.4420604522
   89      C      -7.4859413613     1.3209659140    -2.9244146179
   90      C      -8.6187143572     1.7107062286    -2.2064154976
   91      H      -9.5162407410     1.9128417077    -2.7773171568
   92      C      -8.6557931265     1.8262465657    -0.8228113372
   93      C      -7.4860685491     1.4972721162    -0.0877848893
   94      C      -6.3371218573     1.1637994382    -0.7988125114
   95      H      -5.4222932233     0.9523720701    -0.2612126040
   96      C      -6.2843659818     1.0710055053    -2.1893355470
   97      C      -7.5270688112     1.4888189508     1.3674941248
   98      C      -6.4222261159     1.0679864169     2.1235196044
   99      H      -5.5211992853     0.7486960905     1.6180254667
  100      C      -6.4339378067     1.0187049107     3.5002530650
  101      C      -7.6053665808     1.4038347772     4.1598723563
  102      H      -7.6533850935     1.3701305171     5.2419371589
  103      C      -8.7051350880     1.8134115351     3.4441532926
  104      H      -9.5932755299     2.0862820435     3.9967579795
  105      C      -8.7007212747     1.8680791161     2.0429042193
  106      C      -9.8558339654     2.2611359931    -0.1179670625
  107      C     -11.0055703710     2.6690098602    -0.8145762345
  108      H     -11.0006483892     2.6700532406    -1.8964265349
  109      C     -12.1564314513     3.0861966078    -0.1825458578
  110      C     -12.1630489031     3.1092344577     1.2155016803
  111      H     -13.0481123931     3.4375049475     1.7479831822
  112      C     -11.0495985681     2.7235418957     1.9228453088
  113      H     -11.0988098918     2.7677590957     3.0015824911
  114      C      -9.8761723988     2.2893953069     1.2866537683
  115      C      -5.2281138272     0.5697930521     4.2708474595
  116      H      -4.4884279568     0.1034543951     3.6204525652
  117      H      -5.4943033471    -0.1523253718     5.0437073627
  118      H      -4.7440348379     1.4119245306     4.7704574410
  119      C     -13.3671303799     3.5097128356    -0.9622677267
  120      H     -13.1898861973     3.4542215699    -2.0367307725
  121      H     -13.6527703488     4.5370070777    -0.7294452674
  122      H     -14.2281208897     2.8784447344    -0.7332665556
  123      C      -8.8488352717     1.4155516744    -5.2727462091
  124      C      -9.6826330060     0.3539369963    -5.6660241494
  125      C     -10.8061970880     0.5936424577    -6.4485187921
  126      H     -11.4401232383    -0.2264991258    -6.7681296497
  127      C     -11.1054766478     1.8874666718    -6.8254671834
  128      C     -10.3229155669     2.9568841541    -6.4386243912
  129      H     -10.5789471341     3.9632032773    -6.7514779897
  130      C      -9.1921106655     2.7218463647    -5.6636683475
  131      N     -12.2416432291     2.1095713252    -7.6786196369
  132      C     -13.4936821057     2.1727437002    -7.1145959121
  133      C     -12.0255241435     2.2179868007    -9.0334566826
  134      C     -13.1113855975     2.4041646498    -9.9101050796
  135      C     -12.8357855481     2.5191166837   -11.2648739299
  136      H     -13.6490547103     2.6623447536   -11.9634719705
  137      C     -11.5430596670     2.4487889952   -11.7551937139
  138      H     -11.3651441317     2.5436888082   -12.8177162873
  139      C     -10.4774751832     2.2460778405   -10.8810934490
  140      H      -9.4659700902     2.1783971717   -11.2562934979
  141      C     -10.7095902557     2.1246715388    -9.5337693990
  142      H      -9.8796881967     1.9574850006    -8.8639214649
  143      C     -14.6313265714     2.3306608237    -7.9306296103
  144      C     -15.8706576129     2.3676726650    -7.3092066992
  145      H     -16.7637647855     2.4803441731    -7.9093250429
  146      C     -16.0016503101     2.2620329017    -5.9346393918
  147      H     -16.9846228509     2.2935086386    -5.4848403490
  148      C     -14.8688607661     2.1204603650    -5.1356570873
  149      H     -14.9622490061     2.0450765961    -4.0612093217
  150      C     -13.6245860254     2.0773384679    -5.7133572794
  151      H     -12.7487010347     1.9705538213    -5.0910074609
  152      C      -8.3066584255     3.8920633230    -5.3335932164
  153      H      -7.7976643690     3.7198721170    -4.3845646375
  154      H      -8.9169853460     4.7897716899    -5.2032176554
  155      C      -9.4211927725    -1.0612252476    -5.2236239944
  156      H      -8.3503680725    -1.2223565808    -5.0947550429
  157      H      -9.7490052174    -1.7550338152    -6.0027643176
  158      C     -14.5420033132     2.4494342317    -9.4327386120
  159      C     -10.1450312100    -1.3859801605    -3.9183518468
  160      H      -9.8086123726    -0.7343179116    -3.1122008750
  161      H      -9.9519747968    -2.4150647305    -3.6146390097
  162      H     -11.2249870191    -1.2647073510    -4.0222301216
  163      C      -7.2731477986     4.1318964099    -6.4328095258
  164      H      -6.6343975683     3.2586243562    -6.5629146030
  165      H      -6.6323185002     4.9793123473    -6.1882214809
  166      H      -7.7557129128     4.3414182662    -7.3893687023
  167      C     -15.1805934478     3.7822251531    -9.8705233579
  168      H     -16.2240989717     3.8325727575    -9.5630868791
  169      H     -15.1594406093     3.8854221920   -10.9545609870
  170      H     -14.6562875023     4.6330798796    -9.4372219117
  171      C     -15.3100531238     1.2719355922   -10.0694336665
  172      H     -15.2813139349     1.3331951653   -11.1567451977
  173      H     -16.3574034443     1.2857669316    -9.7699163012
  174      H     -14.8833792766     0.3145606265    -9.7718678957
 ----------------------------------------------------------------

   14   -3629.2753648396      8.09e-09  Convergence criterion met
 Total energy in the final basis set =    -3629.2753648396

         TDDFT/TDA Excitation Energies
 ---------------------------------------------------

 Excited state   1: excitation energy (eV) =    2.4880
 Total energy for state  1:                 -3629.18393220 au
    Multiplicity: Triplet
    Trans. Mom.:  0.0000 X   0.0000 Y   0.0000 Z
    Strength   :     0.0000000000
    D(317) --> V(  3) amplitude =  0.2244
    D(319) --> V(  1) amplitude =  0.8796

 Excited state   2: excitation energy (eV) =    2.6336
 Total energy for state  2:                 -3629.17858333 au
    Multiplicity: Triplet
    Trans. Mom.:  0.0000 X   0.0000 Y   0.0000 Z
    Strength   :     0.0000000000
    D(322) --> V(  1) amplitude =  0.9961

 Excited state   3: excitation energy (eV) =    2.6347
 Total energy for state  3:                 -3629.17854060 au
    Multiplicity: Singlet
    Trans. Mom.: -0.0775 X   0.0159 Y  -0.0523 Z
    Strength   :     0.0005807470
    D(322) --> V(  1) amplitude =  0.9966

 Excited state   4: excitation energy (eV) =    2.7975
 Total energy for state  4:                 -3629.17255895 au
    Multiplicity: Triplet
    Trans. Mom.:  0.0000 X   0.0000 Y   0.0000 Z
    Strength   :     0.0000000000
    D(312) --> V(  1) amplitude = -0.2500
    D(313) --> V(  1) amplitude = -0.2341
    D(314) --> V(  1) amplitude = -0.2175
    D(320) --> V(  1) amplitude =  0.8349

 Excited state   5: excitation energy (eV) =    2.9287
 Total energy for state  5:                 -3629.16773660 au
    Multiplicity: Triplet
    Trans. Mom.:  0.0000 X   0.0000 Y   0.0000 Z
    Strength   :     0.0000000000
    D(317) --> V(  1) amplitude = -0.7113
    D(319) --> V(  3) amplitude = -0.3972
    D(320) --> V(  4) amplitude =  0.2186

 Excited state   6: excitation energy (eV) =    2.9578
 Total energy for state  6:                 -3629.16666897 au
    Multiplicity: Triplet
    Trans. Mom.:  0.0000 X   0.0000 Y   0.0000 Z
    Strength   :     0.0000000000
    D(307) --> V(  1) amplitude = -0.3670
    D(318) --> V(  1) amplitude =  0.6820
    D(321) --> V(  1) amplitude =  0.5044

 Excited state   7: excitation energy (eV) =    2.9651
 Total energy for state  7:                 -3629.16640112 au
    Multiplicity: Singlet
    Trans. Mom.:  0.0120 X  -0.0001 Y   0.0199 Z
    Strength   :     0.0000391794
    D(321) --> V(  1) amplitude =  0.9974

 Excited state   8: excitation energy (eV) =    2.9667
 Total energy for state  8:                 -3629.16633995 au
    Multiplicity: Triplet
    Trans. Mom.:  0.0000 X   0.0000 Y   0.0000 Z
    Strength   :     0.0000000000
    D(318) --> V(  1) amplitude = -0.3973
    D(321) --> V(  1) amplitude =  0.8594

 Excited state   9: excitation energy (eV) =    3.1016
 Total energy for state  9:                 -3629.16138435 au
    Multiplicity: Singlet
    Trans. Mom.: -0.1116 X  -0.0624 Y   0.1377 Z
    Strength   :     0.0026836239
    D(319) --> V(  1) amplitude =  0.9542

 Excited state  10: excitation energy (eV) =    3.2098
 Total energy for state 10:                 -3629.15740804 au
    Multiplicity: Singlet
    Trans. Mom.:  1.4724 X  -0.7297 Y  -2.6846 Z
    Strength   :     0.7791149079
    D(320) --> V(  1) amplitude =  0.9295

 Excited state  11: excitation energy (eV) =    3.4225
 Total energy for state 11:                 -3629.14959076 au
    Multiplicity: Singlet
    Trans. Mom.: -0.1066 X  -0.0655 Y   0.1268 Z
    Strength   :     0.0026613769
    D(318) --> V(  1) amplitude =  0.9027

 Excited state  12: excitation energy (eV) =    3.6093
 Total energy for state 12:                 -3629.14272409 au
    Multiplicity: Singlet
    Trans. Mom.: -0.0508 X   0.0031 Y  -0.0696 Z
    Strength   :     0.0006574538
    D(311) --> V(  1) amplitude = -0.2160
    D(313) --> V(  1) amplitude =  0.2619
    D(314) --> V(  1) amplitude = -0.5170
    D(315) --> V(  1) amplitude =  0.5596
    D(316) --> V(  1) amplitude =  0.2135
    D(318) --> V(  1) amplitude =  0.2832

 ---------------------------------------------------

                    Orbital Energies (a.u.)
 --------------------------------------------------------------

 Alpha MOs
 -- Occupied --
-14.677 -14.675 -10.492 -10.492 -10.491 -10.491 -10.488 -10.486
-10.476 -10.476 -10.475 -10.475 -10.471 -10.471 -10.470 -10.470
-10.470 -10.470 -10.470 -10.469 -10.468 -10.465 -10.464 -10.464
-10.463 -10.463 -10.460 -10.460 -10.460 -10.459 -10.459 -10.459
-10.458 -10.458 -10.455 -10.455 -10.454 -10.454 -10.452 -10.452
-10.452 -10.452 -10.452 -10.452 -10.452 -10.451 -10.451 -10.451
-10.449 -10.448 -10.446 -10.446 -10.444 -10.444 -10.444 -10.444
-10.444 -10.444 -10.442 -10.441 -10.441 -10.441 -10.441 -10.441
-10.441 -10.440 -10.440 -10.440 -10.439 -10.439 -10.438 -10.438
-10.438 -10.438 -10.437 -10.437 -10.437 -10.436 -10.436 -10.435
-10.434 -10.434 -10.434 -10.434 -10.426 -10.425 -10.424 -10.424
-10.423 -10.423 -10.422 -10.422  -6.955  -6.953  -1.091  -1.089
 -1.005  -1.005  -0.975  -0.973  -0.967  -0.966  -0.963  -0.959
 -0.959  -0.956  -0.951  -0.951  -0.911  -0.909  -0.907  -0.905
 -0.896  -0.896  -0.885  -0.884  -0.882  -0.874  -0.871  -0.869
 -0.854  -0.853  -0.849  -0.849  -0.835  -0.835  -0.831  -0.828
 -0.824  -0.823  -0.821  -0.819  -0.815  -0.812  -0.808  -0.807
 -0.798  -0.797  -0.792  -0.787  -0.770  -0.766  -0.757  -0.756
 -0.738  -0.730  -0.722  -0.722  -0.719  -0.719  -0.716  -0.712
 -0.710  -0.708  -0.706  -0.704  -0.692  -0.689  -0.687  -0.684
 -0.673  -0.671  -0.671  -0.668  -0.667  -0.664  -0.642  -0.640
 -0.637  -0.636  -0.628  -0.620  -0.618  -0.617  -0.614  -0.614
 -0.612  -0.610  -0.587  -0.586  -0.585  -0.575  -0.570  -0.568
 -0.563  -0.562  -0.557  -0.548  -0.544  -0.544  -0.539  -0.537
 -0.534  -0.533  -0.532  -0.530  -0.528  -0.523  -0.522  -0.520
 -0.519  -0.516  -0.514  -0.511  -0.507  -0.505  -0.505  -0.503
 -0.502  -0.501  -0.500  -0.498  -0.495  -0.494  -0.493  -0.492
 -0.491  -0.490  -0.490  -0.489  -0.488  -0.487  -0.485  -0.482
 -0.482  -0.481  -0.481  -0.476  -0.476  -0.475  -0.474  -0.473
 -0.472  -0.470  -0.470  -0.467  -0.466  -0.461  -0.457  -0.451
 -0.451  -0.450  -0.449  -0.447  -0.446  -0.442  -0.441  -0.441
 -0.439  -0.438  -0.436  -0.436  -0.435  -0.432  -0.431  -0.430
 -0.428  -0.427  -0.425  -0.423  -0.422  -0.420  -0.419  -0.418
 -0.417  -0.414  -0.414  -0.413  -0.413  -0.412  -0.411  -0.407
 -0.407  -0.406  -0.404  -0.399  -0.398  -0.398  -0.397  -0.394
 -0.394  -0.392  -0.390  -0.387  -0.386  -0.384  -0.381  -0.378
 -0.375  -0.374  -0.372  -0.371  -0.368  -0.367  -0.362  -0.359
 -0.356  -0.355  -0.343  -0.336  -0.334  -0.333  -0.326  -0.325
 -0.300  -0.298  -0.291  -0.289  -0.288  -0.287  -0.284  -0.283
 -0.283  -0.282  -0.281  -0.279  -0.274  -0.259  -0.258  -0.255
 -0.229  -0.217

          Ground-State Mulliken Net Atomic Charges

     Atom                 Charge (a.u.)
  ----------------------------------------
      1 N                    -0.708466
      2 C                     0.318111
      3 C                     0.319107
      4 C                    -0.310962
      5 H                     0.256345
      6 C                    -0.258283
      7 H                     0.236730
      8 C                    -0.241529
      9 H                     0.230311
     10 C                    -0.339261
     11 H                     0.232522
     12 C                     0.150410
     13 C                    -0.313410
     14 H                     0.258243
     15 C                    -0.254649
     16 H                     0.234228
     17 C                    -0.242716
     18 H                     0.230471
     19 C                    -0.338288
     20 H                     0.232447
     21 C                     0.147160
     22 C                     0.228479
     23 C                    -0.313944
     24 H                     0.238357
     25 C                    -0.325985
     26 H                     0.245905
     27 C                     0.057714
     28 C                     0.050732
     29 C                    -0.211821
     30 C                    -0.552846
     31 H                     0.256377
     32 H                     0.243075
     33 C                    -0.550350
     34 H                     0.255228
     35 H                     0.242362
     36 C                    -0.223242
     37 C                    -0.672053
     38 H                     0.236171
     39 H                     0.235964
     40 H                     0.239338
     41 C                    -0.654864
     42 H                     0.238222
     43 H                     0.228194
     44 H                     0.222810
     45 C                    -0.655986
     46 H                     0.240641
     47 H                     0.228000
     48 H                     0.221753
     49 C                    -0.613288
     50 H                     0.240432
     51 H                     0.225809
     52 H                     0.226007
     53 B                     0.642454
     54 C                    -0.108913
     55 C                    -0.433153
     56 H                     0.252517
     57 C                     0.112998
     58 C                     0.107558
     59 C                    -0.428502
     60 H                     0.250926
     61 C                    -0.109959
     62 C                     0.120370
     63 C                    -0.407115
     64 H                     0.234303
     65 C                     0.130685
     66 C                    -0.275032
     67 H                     0.237338
     68 C                    -0.323852
     69 H                     0.232550
     70 C                     0.072468
     71 C                     0.115382
     72 C                     0.071065
     73 C                    -0.323924
     74 H                     0.231861
     75 C                    -0.273673
     76 H                     0.237600
     77 C                     0.129620
     78 C                    -0.405114
     79 H                     0.233641
     80 C                    -0.719348
     81 H                     0.244581
     82 H                     0.242269
     83 H                     0.240949
     84 C                    -0.722791
     85 H                     0.246999
     86 H                     0.243037
     87 H                     0.241251
     88 B                     0.633710
     89 C                    -0.108308
     90 C                    -0.431992
     91 H                     0.251737
     92 C                     0.107483
     93 C                     0.110747
     94 C                    -0.432321
     95 H                     0.253471
     96 C                    -0.111160
     97 C                     0.116244
     98 C                    -0.403754
     99 H                     0.232714
    100 C                     0.131864
    101 C                    -0.275427
    102 H                     0.237481
    103 C                    -0.324008
    104 H                     0.232478
    105 C                     0.074049
    106 C                     0.117391
    107 C                    -0.404252
    108 H                     0.232737
    109 C                     0.130319
    110 C                    -0.274269
    111 H                     0.237687
    112 C                    -0.324133
    113 H                     0.232109
    114 C                     0.072615
    115 C                    -0.722072
    116 H                     0.243891
    117 H                     0.241466
    118 H                     0.242940
    119 C                    -0.719402
    120 H                     0.242817
    121 H                     0.243239
    122 H                     0.241782
    123 C                    -0.213473
    124 C                     0.044288
    125 C                    -0.286000
    126 H                     0.243826
    127 C                     0.169081
    128 C                    -0.294107
    129 H                     0.244106
    130 C                     0.044321
    131 N                    -0.706257
    132 C                     0.306180
    133 C                     0.303879
    134 C                     0.130474
    135 C                    -0.307319
    136 H                     0.230100
    137 C                    -0.255713
    138 H                     0.226703
    139 C                    -0.250629
    140 H                     0.237276
    141 C                    -0.320811
    142 H                     0.263995
    143 C                     0.129208
    144 C                    -0.307103
    145 H                     0.229910
    146 C                    -0.255128
    147 H                     0.227044
    148 C                    -0.249207
    149 H                     0.233304
    150 C                    -0.319604
    151 H                     0.260982
    152 C                    -0.553099
    153 H                     0.254682
    154 H                     0.243166
    155 C                    -0.549304
    156 H                     0.254425
    157 H                     0.242268
    158 C                    -0.200063
    159 C                    -0.653261
    160 H                     0.237783
    161 H                     0.227334
    162 H                     0.223456
    163 C                    -0.656322
    164 H                     0.240833
    165 H                     0.227086
    166 H                     0.223991
    167 C                    -0.615591
    168 H                     0.225593
    169 H                     0.225312
    170 H                     0.234580
    171 C                    -0.612144
    172 H                     0.225030
    173 H                     0.224911
    174 H                     0.233378
  ----------------------------------------
  Sum of atomic charges =    -0.000000

                    Cartesian Multipole Moments
 -----------------------------------------------------------------
    Charge (ESU x 10^10)
                 0.0000
    Dipole Moment (Debye)
         X      -0.3241      Y      -1.1585      Z       0.1093
       Tot       1.2079
    Quadrupole Moments (Debye-Ang)
        XX    -502.0437     XY     -15.4592     YY    -551.9678
        XZ     -16.8612     YZ      10.8880     ZZ    -482.7005

 Total job time:  56330.01s(wall), 165016.63s(cpu)
        *  Thank you very much for using Q-Chem.  Have a nice day.  *
