 Q-Chem 5.1, Q-Chem, Inc., Pleasanton, CA (2018)
 Q-Chem 5.1.1 for Intel X86 EM64T Linux

User input:
--------------------------------------------------------------
$solvent
dielectric      2.03
dielectric_infi 2.02
$end

$rem
threads 8
jobtype	sp
method PBEh-3c
basis def2-mSVP
mem_static	1024
mem_total	14000
sym_ignore	true
cis_n_roots             2
cis_singlets            false
cis_triplets		true
rpa                     false
calc_soc 		true
cis_moments             true
cis_relaxed_density	true
solvent_method		pcm
$end

$pcm
StateSpecific   1
ChargeSeparation Excited
$end

$molecule
read ut1opt_chx.mol
$end

--------------------------------------------------------------

   14   -3629.2725218324      8.39e-09  Convergence criterion met
 Total energy in the final basis set =    -3629.2725218324
 Total job time:  30308.35s(wall), 71160.26s(cpu)
        *  Thank you very much for using Q-Chem.  Have a nice day.  *
 Q-Chem 5.1, Q-Chem, Inc., Pleasanton, CA (2018)
 Q-Chem 5.1.1 for Intel X86 EM64T Linux

User input:
--------------------------------------------------------------
$rem
threads 8
jobtype sp
method PBEh-3c
basis def2-mSVP
mem_static      1024
mem_total       14000
sym_ignore      true
cis_n_roots             6
cis_singlets            true
cis_triplets            true
rpa                     false
calc_soc                true
cis_moments             true
cis_relaxed_density     true
solvent_method          pcm
$end

$molecule
read
$end

$pcm
statespecific           Marcus
$end

$solvent
dielectric      2.03
dielectric_infi 2.02
$end

--------------------------------------------------------------

             Standard Nuclear Orientation (Angstroms)
    I     Atom           X                Y                Z
 ----------------------------------------------------------------
    1      N       0.0000000000     0.0000000000     0.0000000000
    2      C       0.0000000000     0.0000000000     1.3877840000
    3      C       1.1815503476     0.0000000000    -0.7295518756
    4      C       2.4231463431     0.0022922584    -0.0838847514
    5      C       3.5748424567    -0.0056820775    -0.8652033690
    6      H       4.5403976073     0.0008166848    -0.3741396497
    7      C       3.5379871163    -0.0153300279    -2.2473784270
    8      H       4.4553069314    -0.0235845527    -2.8206491153
    9      C       2.3032076146    -0.0098871557    -2.8762102844
   10      H       2.2373274461    -0.0158212749    -3.9566473447
   11      C       1.1403953039     0.0031773658    -2.1310648049
   12      H       0.1897523053     0.0122994010    -2.6447512346
   13      C       1.2014204490     0.0127379399     2.1062837244
   14      C       1.1394904644     0.0178680140     3.4963904449
   15      H       2.0644179484     0.0345696898     4.0604905729
   16      C      -0.0573324350     0.0100035392     4.1895431103
   17      H      -0.0643108539     0.0178622158     5.2712260535
   18      C      -1.2406108771    -0.0054536812     3.4678645943
   19      H      -2.1955969638    -0.0106946435     3.9780627711
   20      C      -1.2147881747    -0.0114443647     2.0871140340
   21      H      -2.1491800445    -0.0193814359     1.5441231148
   22      C      -1.2368531336     0.0961722185    -0.6977834669
   23      C      -1.8191025376     1.3358005674    -0.8888867527
   24      H      -1.3319307420     2.2163849865    -0.4830455086
   25      C      -1.8455125991    -1.0357753103    -1.2085761342
   26      H      -1.3794723256    -2.0037542889    -1.0582969734
   27      C      -3.0157199864     1.4573082599    -1.5858332879
   28      C      -3.0280631182    -0.9301677253    -1.9338581780
   29      C      -3.6337351171     0.3212621079    -2.1331641761
   30      C      -3.5897664682    -2.1768278914    -2.5639132828
   31      H      -4.6769133130    -2.1094364271    -2.6373294621
   32      H      -3.3762991165    -3.0381486674    -1.9251929322
   33      C      -3.6420712995     2.8244960351    -1.6826832875
   34      H      -4.2404953019     2.9085560483    -2.5915242346
   35      H      -2.8560216591     3.5807843306    -1.7614665417
   36      C       2.5624994581     0.0396127279     1.4291281062
   37      C      -4.5171587107     3.1323459400    -0.4690564863
   38      H      -5.3316731890     2.4128365242    -0.3822654076
   39      H      -4.9586442914     4.1268769926    -0.5467002273
   40      H      -3.9374296446     3.0944083382     0.4547209783
   41      C      -2.9974841691    -2.4161757394    -3.9517134657
   42      H      -3.2213934359    -1.5843582897    -4.6197160836
   43      H      -3.4013793052    -3.3240443537    -4.4022258325
   44      H      -1.9123845784    -2.5202703677    -3.9013049446
   45      C       3.3831909514    -1.1752260212     1.8944873687
   46      H       2.8869839018    -2.1066841618     1.6228458702
   47      H       3.5210073506    -1.1696332543     2.9760589339
   48      H       4.3768006830    -1.1794196144     1.4452596998
   49      C       3.2935894003     1.3337666893     1.8294403498
   50      H       2.7297864760     2.2113902173     1.5131592630
   51      H       3.4306095815     1.3929166570     2.9100723693
   52      H       4.2827259420     1.3870915657     1.3724321081
   53      B      -4.9686078867     0.4496819483    -2.9792032447
   54      C      -6.3401731805     0.1624788594    -2.3537577405
   55      C      -6.4545875953    -0.1896547794    -1.0110218845
   56      H      -5.5332731569    -0.2733460595    -0.4495755972
   57      C      -7.6677566895    -0.4185357058    -0.3707678232
   58      C      -8.8616042442    -0.2540783558    -1.1215266264
   59      C      -8.7542864417     0.0364812123    -2.4767285556
   60      H      -9.6548280339     0.1131242489    -3.0733374876
   61      C      -7.5377696971     0.2505159629    -3.1314225421
   62      C      -7.7355389533    -0.8173918470     1.0281908411
   63      C      -6.5712942444    -1.0513724341     1.7788837092
   64      H      -5.6018800301    -0.9278595102     1.3154835652
   65      C      -6.5987675459    -1.4458234145     3.0984744356
   66      C      -7.8475268141    -1.6297612552     3.7011759712
   67      H      -7.9073475252    -1.9505684496     4.7346592319
   68      C      -9.0029226764    -1.4086175480     2.9906783444
   69      H      -9.9440472069    -1.5703299337     3.4971303807
   70      C      -8.9829496034    -0.9921289699     1.6509151351
   71      C     -10.1501231413    -0.3629707938    -0.4493092145
   72      C     -11.3474159224    -0.0696508975    -1.1198150159
   73      H     -11.3119720780     0.2457346835    -2.1538494683
   74      C     -12.5815093254    -0.1348014976    -0.5116930625
   75      C     -12.6293309027    -0.5097851508     0.8342470123
   76      H     -13.5816875673    -0.5659917357     1.3484726645
   77      C     -11.4714267063    -0.7903544503     1.5189845087
   78      H     -11.5546329552    -1.0538408171     2.5638963807
   79      C     -10.2103541161    -0.7241813445     0.9079997634
   80      C     -13.8379374232     0.2023328831    -1.2589392676
   81      H     -13.6198592665     0.5097104911    -2.2820514932
   82      H     -14.3793426621     1.0186276656    -0.7777464301
   83      H     -14.5164588785    -0.6516208214    -1.3049768687
   84      C      -5.3324421390    -1.6732312566     3.8708046708
   85      H      -4.4508821206    -1.5562765367     3.2407244829
   86      H      -5.3006060325    -2.6764709312     4.2987709469
   87      H      -5.2428810085    -0.9679245288     4.6995107290
   88      B      -7.4691737269     0.5938741835    -4.6197571188
   89      C      -6.1158877244     0.9608604209    -5.2350771350
   90      C      -5.9938405246     1.3933797300    -6.5595604864
   91      H      -6.8979480375     1.4282161218    -7.1540085315
   92      C      -4.7935817028     1.7860196627    -7.1395205394
   93      C      -3.6079762003     1.6928095606    -6.3626879459
   94      C      -3.7166000385     1.2318875304    -5.0556420942
   95      H      -2.8239377328     1.1413291374    -4.4505950809
   96      C      -4.9222901302     0.8844011178    -4.4509393890
   97      C      -2.3252468216     2.0806369617    -6.9347339022
   98      C      -2.2552049775     2.5263312920    -8.2658181900
   99      C      -0.9989244227     2.8781933578    -8.7827731559
  100      H      -0.9047852318     3.2199199102    -9.8037608752
  101      C       0.1445995542     2.8134854435    -8.0238442392
  102      H       1.0940262276     3.1016571679    -8.4599571838
  103      C       0.0876967965     2.3911612427    -6.6920103626
  104      C      -1.1403192640     2.0318350927    -6.1803945056
  105      H      -1.1752012462     1.7125481111    -5.1475839563
  106      C      -4.7200360991     2.2987734148    -8.5030454796
  107      C      -5.8760177274     2.4853586128    -9.2783408654
  108      H      -6.8436476987     2.2573804038    -8.8517532880
  109      C      -5.8436293311     2.9754770531   -10.5654624532
  110      C      -4.5978526280     3.2890842349   -11.1162586366
  111      H      -4.5329248743     3.6740864551   -12.1273060968
  112      C      -3.4513427367     3.1271450523   -10.3769508547
  113      H      -2.5125053440     3.3972552176   -10.8390121009
  114      C      -3.4756558396     2.6427936941    -9.0602754435
  115      C       1.3306812012     2.3333072157    -5.8542832689
  116      H       1.1038278141     2.1244775194    -4.8093395179
  117      H       1.8788166378     3.2759325444    -5.8902357212
  118      H       2.0108711246     1.5547126688    -6.2067951088
  119      C      -7.1019229229     3.1892328052   -11.3539963984
  120      H      -7.9813731345     2.8499634019   -10.8065110708
  121      H      -7.2484179127     4.2458005400   -11.5861113759
  122      H      -7.0735444564     2.6547982241   -12.3055815174
  123      C      -8.7554238489     0.5356275229    -5.5502248788
  124      C      -9.4159339486     1.7081955170    -5.9559350978
  125      C     -10.4793143643     1.6436155365    -6.8500819257
  126      H     -10.9768798938     2.5499752189    -7.1774599303
  127      C     -10.8833347954     0.4147864644    -7.3358308635
  128      C     -10.2724566212    -0.7585194006    -6.9384573704
  129      H     -10.6082432173    -1.7110004247    -7.3331132562
  130      C      -9.2107609468    -0.7016133323    -6.0403287339
  131      N     -11.9429361895     0.3767567225    -8.3088682101
  132      C     -13.2461162557     0.4238104226    -7.8711326120
  133      C     -11.6022330810     0.3430079456    -9.6415703960
  134      C     -12.6036881800     0.3787218300   -10.6292062708
  135      C     -12.1987587262     0.3353094068   -11.9556251338
  136      H     -12.9419222018     0.3667458740   -12.7408019586
  137      C     -10.8608348345     0.2667502335   -12.3088371258
  138      H     -10.5823171322     0.2357884563   -13.3533109154
  139      C      -9.8773166073     0.2507748357   -11.3219466211
  140      H      -8.8303315378     0.2103765109   -11.5886398822
  141      C     -10.2376964260     0.2929984574    -9.9988354083
  142      H      -9.4719558367     0.2884429036    -9.2373083905
  143      C     -14.3018110120     0.5029372466    -8.7980632734
  144      C     -15.5909895522     0.5874915265    -8.2936937529
  145      H     -16.4262834231     0.6649975221    -8.9763541439
  146      C     -15.8433564289     0.5802294343    -6.9311673716
  147      H     -16.8618118110     0.6496938920    -6.5744525391
  148      C     -14.7900082326     0.4785346049    -6.0245345506
  149      H     -14.9811434835     0.4598539911    -4.9605616796
  150      C     -13.4996777112     0.4005733369    -6.4841885976
  151      H     -12.6815211803     0.3191578934    -5.7839244927
  152      C      -8.5172413364    -1.9871531712    -5.6767790943
  153      H      -8.1548394935    -1.9354441388    -4.6497457427
  154      H      -9.2342288280    -2.8117085196    -5.7131169347
  155      C      -9.0149528837     3.0560696794    -5.4173007003
  156      H      -7.9340457987     3.0933617401    -5.2760645394
  157      H      -9.2590327202     3.8305022918    -6.1497146272
  158      C     -14.0660183993     0.5177875024   -10.2877939291
  159      C      -9.7063222784     3.3737163678    -4.0932271225
  160      H      -9.4325280011     2.6516108744    -3.3242346673
  161      H      -9.4164302025     4.3613175247    -3.7336992046
  162      H     -10.7927427536     3.3616886332    -4.1984249513
  163      C      -7.3474874822    -2.2870771817    -6.6127546210
  164      H      -6.6002545535    -1.4949710028    -6.5728888300
  165      H      -6.8572638613    -3.2195495663    -6.3316349444
  166      H      -7.6818429928    -2.3832250871    -7.6474254865
  167      C     -14.8450803632    -0.6463526519   -10.9267226200
  168      H     -14.7114779470    -0.6610795022   -12.0073635498
  169      H     -15.9132784631    -0.5544105440   -10.7357442420
  170      H     -14.5095822291    -1.6039609636   -10.5299248522
  171      C     -14.5594844969     1.8683783474   -10.8479339862
  172      H     -15.6196789767     2.0116753528   -10.6418768940
  173      H     -14.4237851045     1.9128383218   -11.9280707839
  174      H     -14.0121196496     2.6997926756   -10.4038809721
 ----------------------------------------------------------------

   14   -3629.2724331206      8.40e-09  Convergence criterion met
 Total energy in the final basis set =    -3629.2724331206

         TDDFT/TDA Excitation Energies
 ---------------------------------------------------

 Excited state   1: excitation energy (eV) =    2.4890
 Total energy for state  1:                 -3629.18096548 au
    Multiplicity: Triplet
    Trans. Mom.:  0.0000 X   0.0000 Y   0.0000 Z
    Strength   :     0.0000000000
    D(317) --> V(  3) amplitude =  0.2239
    D(319) --> V(  1) amplitude =  0.8776

 Excited state   2: excitation energy (eV) =    2.6602
 Total energy for state  2:                 -3629.17467127 au
    Multiplicity: Triplet
    Trans. Mom.:  0.0000 X   0.0000 Y   0.0000 Z
    Strength   :     0.0000000000
    D(322) --> V(  1) amplitude =  0.9957

 Excited state   3: excitation energy (eV) =    2.6615
 Total energy for state  3:                 -3629.17462372 au
    Multiplicity: Singlet
    Trans. Mom.:  0.0973 X   0.0065 Y   0.0584 Z
    Strength   :     0.0008425158
    D(322) --> V(  1) amplitude =  0.9965

 Excited state   4: excitation energy (eV) =    2.8008
 Total energy for state  4:                 -3629.16950643 au
    Multiplicity: Triplet
    Trans. Mom.:  0.0000 X   0.0000 Y   0.0000 Z
    Strength   :     0.0000000000
    D(313) --> V(  1) amplitude =  0.3606
    D(320) --> V(  1) amplitude =  0.8311

 Excited state   5: excitation energy (eV) =    2.8207
 Total energy for state  5:                 -3629.16877473 au
    Multiplicity: Triplet
    Trans. Mom.:  0.0000 X   0.0000 Y   0.0000 Z
    Strength   :     0.0000000000
    D(321) --> V(  1) amplitude =  0.9960

 Excited state   6: excitation energy (eV) =    2.8216
 Total energy for state  6:                 -3629.16873974 au
    Multiplicity: Singlet
    Trans. Mom.: -0.0582 X   0.0056 Y  -0.0376 Z
    Strength   :     0.0003340866
    D(321) --> V(  1) amplitude =  0.9966

 Excited state   7: excitation energy (eV) =    2.9238
 Total energy for state  7:                 -3629.16498433 au
    Multiplicity: Triplet
    Trans. Mom.:  0.0000 X   0.0000 Y   0.0000 Z
    Strength   :     0.0000000000
    D(317) --> V(  1) amplitude = -0.6684
    D(318) --> V(  1) amplitude =  0.2860
    D(319) --> V(  3) amplitude = -0.3700

 Excited state   8: excitation energy (eV) =    2.9676
 Total energy for state  8:                 -3629.16337602 au
    Multiplicity: Triplet
    Trans. Mom.:  0.0000 X   0.0000 Y   0.0000 Z
    Strength   :     0.0000000000
    D(307) --> V(  1) amplitude = -0.3876
    D(317) --> V(  1) amplitude =  0.2518
    D(318) --> V(  1) amplitude =  0.7406

 Excited state   9: excitation energy (eV) =    3.1043
 Total energy for state  9:                 -3629.15835156 au
    Multiplicity: Singlet
    Trans. Mom.: -0.1585 X  -0.1137 Y   0.1628 Z
    Strength   :     0.0049094519
    D(319) --> V(  1) amplitude =  0.9526

 Excited state  10: excitation energy (eV) =    3.2177
 Total energy for state 10:                 -3629.15418487 au
    Multiplicity: Singlet
    Trans. Mom.:  1.6631 X   0.8587 Y  -2.4131 Z
    Strength   :     0.7352193474
    D(320) --> V(  1) amplitude =  0.9249

 Excited state  11: excitation energy (eV) =    3.4285
 Total energy for state 11:                 -3629.14643936 au
    Multiplicity: Singlet
    Trans. Mom.: -0.0888 X   0.0727 Y   0.2645 Z
    Strength   :     0.0069824500
    D(314) --> V(  1) amplitude =  0.2330
    D(318) --> V(  1) amplitude =  0.9022

 Excited state  12: excitation energy (eV) =    3.6234
 Total energy for state 12:                 -3629.13927500 au
    Multiplicity: Singlet
    Trans. Mom.:  0.2573 X  -0.0317 Y   0.2573 Z
    Strength   :     0.0118437768
    D(307) --> V(  1) amplitude =  0.2221
    D(313) --> V(  1) amplitude = -0.3619
    D(314) --> V(  1) amplitude =  0.6356
    D(316) --> V(  1) amplitude =  0.4148
    D(318) --> V(  1) amplitude = -0.2794

 ---------------------------------------------------

                    Orbital Energies (a.u.)
 --------------------------------------------------------------

 Alpha MOs
 -- Occupied --
-14.677 -14.675 -10.494 -10.493 -10.492 -10.492 -10.486 -10.486
-10.475 -10.475 -10.475 -10.474 -10.470 -10.470 -10.469 -10.469
-10.469 -10.469 -10.469 -10.468 -10.468 -10.466 -10.463 -10.463
-10.462 -10.462 -10.460 -10.459 -10.459 -10.459 -10.459 -10.459
-10.458 -10.457 -10.455 -10.454 -10.454 -10.454 -10.452 -10.452
-10.451 -10.451 -10.451 -10.451 -10.451 -10.451 -10.451 -10.450
-10.449 -10.449 -10.445 -10.445 -10.445 -10.445 -10.444 -10.444
-10.443 -10.443 -10.442 -10.442 -10.442 -10.442 -10.440 -10.440
-10.440 -10.440 -10.439 -10.439 -10.438 -10.438 -10.438 -10.438
-10.438 -10.437 -10.436 -10.436 -10.436 -10.436 -10.436 -10.436
-10.434 -10.434 -10.434 -10.433 -10.424 -10.424 -10.424 -10.423
-10.423 -10.423 -10.423 -10.422  -6.954  -6.954  -1.091  -1.090
 -1.005  -1.004  -0.973  -0.973  -0.966  -0.965  -0.962  -0.959
 -0.959  -0.957  -0.952  -0.951  -0.908  -0.908  -0.908  -0.905
 -0.896  -0.895  -0.884  -0.883  -0.882  -0.873  -0.871  -0.869
 -0.854  -0.853  -0.851  -0.849  -0.836  -0.835  -0.830  -0.827
 -0.824  -0.822  -0.821  -0.815  -0.815  -0.811  -0.808  -0.807
 -0.798  -0.797  -0.791  -0.787  -0.768  -0.767  -0.757  -0.756
 -0.737  -0.730  -0.723  -0.722  -0.719  -0.718  -0.717  -0.712
 -0.709  -0.709  -0.708  -0.706  -0.691  -0.688  -0.686  -0.684
 -0.672  -0.671  -0.669  -0.668  -0.668  -0.663  -0.642  -0.640
 -0.637  -0.636  -0.628  -0.619  -0.618  -0.615  -0.615  -0.614
 -0.614  -0.610  -0.587  -0.586  -0.584  -0.574  -0.570  -0.567
 -0.563  -0.562  -0.556  -0.547  -0.544  -0.543  -0.537  -0.536
 -0.534  -0.532  -0.531  -0.530  -0.528  -0.523  -0.523  -0.521
 -0.519  -0.516  -0.514  -0.511  -0.506  -0.505  -0.505  -0.503
 -0.502  -0.499  -0.499  -0.498  -0.493  -0.493  -0.493  -0.490
 -0.490  -0.489  -0.489  -0.489  -0.486  -0.482  -0.482  -0.482
 -0.481  -0.480  -0.478  -0.477  -0.476  -0.476  -0.474  -0.473
 -0.473  -0.472  -0.470  -0.467  -0.466  -0.460  -0.456  -0.451
 -0.451  -0.451  -0.450  -0.450  -0.447  -0.446  -0.446  -0.440
 -0.439  -0.438  -0.436  -0.436  -0.435  -0.432  -0.430  -0.430
 -0.428  -0.426  -0.425  -0.423  -0.423  -0.422  -0.420  -0.420
 -0.416  -0.414  -0.414  -0.413  -0.412  -0.411  -0.411  -0.407
 -0.407  -0.407  -0.406  -0.399  -0.398  -0.398  -0.396  -0.394
 -0.392  -0.391  -0.389  -0.388  -0.385  -0.384  -0.378  -0.378
 -0.373  -0.373  -0.371  -0.370  -0.368  -0.367  -0.364  -0.360
 -0.356  -0.354  -0.342  -0.335  -0.334  -0.332  -0.326  -0.324
 -0.300  -0.298  -0.291  -0.289  -0.288  -0.286  -0.284  -0.284
 -0.283  -0.282  -0.280  -0.279  -0.273  -0.258  -0.257  -0.254
 -0.223  -0.217

          Ground-State Mulliken Net Atomic Charges

     Atom                 Charge (a.u.)
  ----------------------------------------
      1 N                    -0.717977
      2 C                     0.312938
      3 C                     0.311144
      4 C                     0.131982
      5 C                    -0.305067
      6 H                     0.226329
      7 C                    -0.247586
      8 H                     0.227277
      9 C                    -0.250769
     10 H                     0.234913
     11 C                    -0.323471
     12 H                     0.259861
     13 C                     0.131300
     14 C                    -0.305249
     15 H                     0.226371
     16 C                    -0.246819
     17 H                     0.227489
     18 C                    -0.249511
     19 H                     0.231997
     20 C                    -0.322239
     21 H                     0.257101
     22 C                     0.192759
     23 C                    -0.293544
     24 H                     0.237951
     25 C                    -0.307918
     26 H                     0.238598
     27 C                     0.053445
     28 C                     0.052301
     29 C                    -0.219579
     30 C                    -0.552548
     31 H                     0.255472
     32 H                     0.241855
     33 C                    -0.549630
     34 H                     0.255427
     35 H                     0.241366
     36 C                    -0.203526
     37 C                    -0.651666
     38 H                     0.237148
     39 H                     0.226966
     40 H                     0.222564
     41 C                    -0.654230
     42 H                     0.240677
     43 H                     0.226680
     44 H                     0.222385
     45 C                    -0.613100
     46 H                     0.234320
     47 H                     0.224289
     48 H                     0.224133
     49 C                    -0.609163
     50 H                     0.232735
     51 H                     0.223833
     52 H                     0.223834
     53 B                     0.641845
     54 C                    -0.110277
     55 C                    -0.432194
     56 H                     0.250373
     57 C                     0.109213
     58 C                     0.112586
     59 C                    -0.429963
     60 H                     0.250478
     61 C                    -0.110116
     62 C                     0.122823
     63 C                    -0.404096
     64 H                     0.230530
     65 C                     0.134745
     66 C                    -0.273835
     67 H                     0.234762
     68 C                    -0.321135
     69 H                     0.229086
     70 C                     0.073201
     71 C                     0.113445
     72 C                    -0.399586
     73 H                     0.227668
     74 C                     0.131300
     75 C                    -0.271836
     76 H                     0.234677
     77 C                    -0.321130
     78 H                     0.228670
     79 C                     0.075137
     80 C                    -0.718412
     81 H                     0.239336
     82 H                     0.241564
     83 H                     0.242344
     84 C                    -0.720727
     85 H                     0.242735
     86 H                     0.242139
     87 H                     0.240778
     88 B                     0.636007
     89 C                    -0.112017
     90 C                    -0.425124
     91 H                     0.247865
     92 C                     0.115277
     93 C                     0.109376
     94 C                    -0.431358
     95 H                     0.249805
     96 C                    -0.108529
     97 C                     0.122634
     98 C                     0.071735
     99 C                    -0.321095
    100 H                     0.228851
    101 C                    -0.274045
    102 H                     0.234495
    103 C                     0.135471
    104 C                    -0.405934
    105 H                     0.231600
    106 C                     0.118049
    107 C                    -0.404746
    108 H                     0.230438
    109 C                     0.130589
    110 C                    -0.271916
    111 H                     0.234432
    112 C                    -0.321572
    113 H                     0.228608
    114 C                     0.073690
    115 C                    -0.724259
    116 H                     0.246835
    117 H                     0.241990
    118 H                     0.239733
    119 C                    -0.720398
    120 H                     0.246445
    121 H                     0.242480
    122 H                     0.238413
    123 C                    -0.205864
    124 C                     0.047228
    125 C                    -0.283414
    126 H                     0.240765
    127 C                     0.164522
    128 C                    -0.295313
    129 H                     0.242358
    130 C                     0.041712
    131 N                    -0.705816
    132 C                     0.304711
    133 C                     0.302855
    134 C                     0.132355
    135 C                    -0.305830
    136 H                     0.226795
    137 C                    -0.253267
    138 H                     0.224352
    139 C                    -0.248083
    140 H                     0.234539
    141 C                    -0.319076
    142 H                     0.263835
    143 C                     0.132454
    144 C                    -0.306555
    145 H                     0.226786
    146 C                    -0.252223
    147 H                     0.224542
    148 C                    -0.248135
    149 H                     0.231261
    150 C                    -0.315353
    151 H                     0.259914
    152 C                    -0.555091
    153 H                     0.257722
    154 H                     0.242579
    155 C                    -0.546356
    156 H                     0.254195
    157 H                     0.240597
    158 C                    -0.199528
    159 C                    -0.653793
    160 H                     0.238209
    161 H                     0.228045
    162 H                     0.221727
    163 C                    -0.656605
    164 H                     0.243833
    165 H                     0.225909
    166 H                     0.223245
    167 C                    -0.616011
    168 H                     0.224679
    169 H                     0.224520
    170 H                     0.235427
    171 C                    -0.609549
    172 H                     0.223760
    173 H                     0.223910
    174 H                     0.232725
  ----------------------------------------
  Sum of atomic charges =    -0.000000

                    Cartesian Multipole Moments
 -----------------------------------------------------------------
    Charge (ESU x 10^10)
                -0.0000
    Dipole Moment (Debye)
         X       0.0601      Y       1.1073      Z       0.7351
       Tot       1.3305
    Quadrupole Moments (Debye-Ang)
        XX    -499.8029     XY      -2.2920     YY    -552.0777
        XZ     -22.0212     YZ     -25.0297     ZZ    -495.0625

 Total job time:  52164.86s(wall), 150428.02s(cpu)
        *  Thank you very much for using Q-Chem.  Have a nice day.  *
