 Q-Chem 5.1, Q-Chem, Inc., Pleasanton, CA (2018)
 Q-Chem 5.1.1 for Intel X86 EM64T Linux

User input:
--------------------------------------------------------------
$solvent
dielectric      2.38
dielectric_infi 2.25
$end

$rem
threads 8
jobtype	sp
method PBEh-3c
basis def2-mSVP
mem_static	1024
mem_total	14000
sym_ignore	true
cis_n_roots             2
cis_singlets            false
cis_triplets		true
rpa                     false
calc_soc 		true
cis_moments             true
cis_relaxed_density	true
solvent_method		pcm
$end

$pcm
StateSpecific   1
ChargeSeparation Excited
$end

$molecule
read ut1opt_tol.mol
$end

--------------------------------------------------------------

   14   -3629.2760105868      8.17e-09  Convergence criterion met
 Total energy in the final basis set =    -3629.2760105868
 Total job time:  32022.30s(wall), 79713.03s(cpu)
        *  Thank you very much for using Q-Chem.  Have a nice day.  *
 Q-Chem 5.1, Q-Chem, Inc., Pleasanton, CA (2018)
 Q-Chem 5.1.1 for Intel X86 EM64T Linux

User input:
--------------------------------------------------------------
$rem
threads 8
jobtype sp
method PBEh-3c
basis def2-mSVP
mem_static      1024
mem_total       14000
sym_ignore      true
cis_n_roots             6
cis_singlets            true
cis_triplets            true
rpa                     false
calc_soc                true
cis_moments             true
cis_relaxed_density     true
solvent_method          pcm
$end

$molecule
read
$end

$pcm
statespecific           Marcus
$end

$solvent
dielectric      2.38
dielectric_infi 2.25
$end

--------------------------------------------------------------

             Standard Nuclear Orientation (Angstroms)
    I     Atom           X                Y                Z
 ----------------------------------------------------------------
    1      N       0.0000000000     0.0000000000     0.0000000000
    2      C       0.0000000000     0.0000000000     1.3878220000
    3      C       1.1816642437     0.0000000000    -0.7295311036
    4      C       2.4232787577     0.0019121664    -0.0837293013
    5      C       3.5751302182    -0.0062962070    -0.8649785893
    6      H       4.5406675829    -0.0001749472    -0.3738816673
    7      C       3.5383435400    -0.0156677309    -2.2472904285
    8      H       4.4557385076    -0.0240627715    -2.8204822115
    9      C       2.3035550271    -0.0096088180    -2.8762972631
   10      H       2.2377328927    -0.0150415835    -3.9567495145
   11      C       1.1406129419     0.0035861630    -2.1311174950
   12      H       0.1901645797     0.0132915154    -2.6451827091
   13      C       1.2015105893     0.0125858792     2.1063548804
   14      C       1.1396278612     0.0178051050     3.4965504603
   15      H       2.0645406884     0.0344470765     4.0606802255
   16      C      -0.0573188487     0.0100797691     4.1897662723
   17      H      -0.0642510931     0.0179864779     5.2714711634
   18      C      -1.2407126538    -0.0054144794     3.4680914036
   19      H      -2.1957215621    -0.0107896441     3.9782751771
   20      C      -1.2148428825    -0.0114411767     2.0872058560
   21      H      -2.1494201513    -0.0195834201     1.5444833718
   22      C      -1.2368171815     0.0960923279    -0.6979907603
   23      C      -1.8189167392     1.3357660602    -0.8895955832
   24      H      -1.3320078998     2.2165776861    -0.4838409237
   25      C      -1.8452900523    -1.0359932012    -1.2088109143
   26      H      -1.3795446478    -2.0040958465    -1.0581908299
   27      C      -3.0152026369     1.4571267677    -1.5872980586
   28      C      -3.0274442220    -0.9303925844    -1.9348682107
   29      C      -3.6330176402     0.3210405712    -2.1349615347
   30      C      -3.5886830957    -2.1773413779    -2.5647851737
   31      H      -4.6755502462    -2.1089397564    -2.6413269192
   32      H      -3.3776636635    -3.0381087884    -1.9245260960
   33      C      -3.6412082667     2.8244464366    -1.6847680524
   34      H      -4.2408458944     2.9076360890    -2.5928852741
   35      H      -2.8550976037     3.5804847412    -1.7651180527
   36      C       2.5626624192     0.0390241391     1.4292888847
   37      C      -4.5148149027     3.1338554357    -0.4704396581
   38      H      -5.3288429359     2.4140130448    -0.3814098893
   39      H      -4.9568626364     4.1280544361    -0.5491165303
   40      H      -3.9337748930     3.0976918685     0.4526063027
   41      C      -2.9929204002    -2.4190700926    -3.9506937969
   42      H      -3.2133699630    -1.5873619617    -4.6200422637
   43      H      -3.3972673374    -3.3265594707    -4.4015357793
   44      H      -1.9081524329    -2.5251367263    -3.8970587912
   45      C       3.3829813259    -1.1760872160     1.8946330139
   46      H       2.8866859345    -2.1075470603     1.6229501281
   47      H       3.5207179705    -1.1703182832     2.9762077648
   48      H       4.3766379628    -1.1802275630     1.4455183234
   49      C       3.2943743382     1.3327783232     1.8297992043
   50      H       2.7310705522     2.2108952562     1.5138191715
   51      H       3.4316263626     1.3913367366     2.9104309912
   52      H       4.2835263098     1.3854471646     1.3727554445
   53      B      -4.9673259621     0.4491477190    -2.9822972674
   54      C      -6.3395750608     0.1639549412    -2.3575916962
   55      C      -6.4555021316    -0.1860868803    -1.0141638960
   56      H      -5.5348002903    -0.2696375549    -0.4516580560
   57      C      -7.6693347828    -0.4131442498    -0.3745924214
   58      C      -8.8626940667    -0.2500277555    -1.1268063477
   59      C      -8.7538860114     0.0394459542    -2.4822295153
   60      H      -9.6536838467     0.1164974129    -3.0797802257
   61      C      -7.5367252515     0.2519786788    -3.1362175900
   62      C      -7.7384974944    -0.8081910680     1.0255851602
   63      C      -6.5749080102    -1.0393694435     1.7783426783
   64      H      -5.6049033050    -0.9171049579     1.3157872073
   65      C      -6.6037107719    -1.4292052859     3.0994197712
   66      C      -7.8531943343    -1.6108383737     3.7015323903
   67      H      -7.9141622837    -1.9275531527     4.7362112047
   68      C      -9.0079756820    -1.3924606635     2.9889704040
   69      H      -9.9495516272    -1.5519901943     3.4952756586
   70      C      -8.9866314449    -0.9811677028     1.6474913485
   71      C     -10.1521167910    -0.3597538884    -0.4562297645
   72      C     -11.3491945378    -0.0719703278    -1.1297587302
   73      H     -11.3134956674     0.2390991870    -2.1650847404
   74      C     -12.5841735436    -0.1384243900    -0.5232584594
   75      C     -12.6329887883    -0.5091998731     0.8239669743
   76      H     -13.5860237953    -0.5665258124     1.3367998833
   77      C     -11.4754368789    -0.7848885724     1.5114656062
   78      H     -11.5599111851    -1.0460684557     2.5568867357
   79      C     -10.2135563460    -0.7173158158     0.9020700436
   80      C     -13.8403998278     0.1923810000    -1.2735679587
   81      H     -13.6220897050     0.4958990893    -2.2977248854
   82      H     -14.3844027508     1.0090959143    -0.7960865068
   83      H     -14.5166003658    -0.6635232273    -1.3165535287
   84      C      -5.3381904445    -1.6541995152     3.8737738587
   85      H      -4.4559697761    -1.5354151856     3.2449618909
   86      H      -5.3053622694    -2.6574087877     4.3017517511
   87      H      -5.2514467689    -0.9488930119     4.7027494626
   88      B      -7.4678531800     0.5927677406    -4.6256165378
   89      C      -6.1130150103     0.9574881051    -5.2398278020
   90      C      -5.9901056692     1.3887263744    -6.5646649348
   91      H      -6.8940463082     1.4235040550    -7.1593391934
   92      C      -4.7894028817     1.7810767145    -7.1442373366
   93      C      -3.6043671126     1.6893735562    -6.3660208224
   94      C      -3.7137509834     1.2293920442    -5.0587474617
   95      H      -2.8214280381     1.1401431923    -4.4529645899
   96      C      -4.9199630450     0.8818395043    -4.4545226618
   97      C      -2.3213306877     2.0786229840    -6.9369742494
   98      C      -2.2507940873     2.5251368998    -8.2678305704
   99      C      -0.9945348258     2.8795718830    -8.7833953893
  100      H      -0.8999506961     3.2222684944    -9.8040210149
  101      C       0.1484630405     2.8162042587    -8.0233462181
  102      H       1.0977675249     3.1064090944    -8.4583806256
  103      C       0.0911064475     2.3925299645    -6.6918745591
  104      C      -1.1369437142     2.0308826240    -6.1815764305
  105      H      -1.1720619672     1.7105656426    -5.1490603968
  106      C      -4.7149906121     2.2924567791    -8.5083518955
  107      C      -5.8702938913     2.4746712415    -9.2858379805
  108      H      -6.8380070527     2.2428726042    -8.8615905822
  109      C      -5.8371136007     2.9639896113   -10.5733786063
  110      C      -4.5911954345     3.2814957336   -11.1219923441
  111      H      -4.5257362688     3.6661166372   -12.1331399453
  112      C      -3.4452886241     3.1232153894   -10.3807830830
  113      H      -2.5065250294     3.3957121458   -10.8416545782
  114      C      -3.4705543399     2.6391947499    -9.0639006327
  115      C       1.3334875272     2.3356431896    -5.8531921700
  116      H       1.1055604462     2.1279627809    -4.8082592707
  117      H       1.8817280588     3.2781520836    -5.8901556976
  118      H       2.0137899669     1.5565230942    -6.2042918982
  119      C      -7.0944444473     3.1714036812   -11.3650102021
  120      H      -7.9742436087     2.8343922902   -10.8168247607
  121      H      -7.2413824480     4.2262972579   -11.6042059551
  122      H      -7.0637022705     2.6308203207   -12.3129868051
  123      C      -8.7547703726     0.5353082513    -5.5553625379
  124      C      -9.4143635042     1.7082356916    -5.9613106886
  125      C     -10.4802270703     1.6439647518    -6.8526463392
  126      H     -10.9771947810     2.5505645465    -7.1801846851
  127      C     -10.8885818741     0.4151443870    -7.3344755366
  128      C     -10.2786795635    -0.7584031700    -6.9366923493
  129      H     -10.6177360889    -1.7109181751    -7.3283741321
  130      C      -9.2134623121    -0.7017307447    -6.0426178917
  131      N     -11.9519670340     0.3773066099    -8.3035828857
  132      C     -13.2534410120     0.4222644198    -7.8608934102
  133      C     -11.6159628787     0.3459534365    -9.6375710634
  134      C     -12.6210724982     0.3837655797   -10.6214219864
  135      C     -12.2211590945     0.3428565638   -11.9495259015
  136      H     -12.9671557900     0.3761096241   -12.7319086411
  137      C     -10.8846123812     0.2741430511   -12.3077837761
  138      H     -10.6100006376     0.2450171920   -13.3533513032
  139      C      -9.8973915680     0.2551710958   -11.3244774577
  140      H      -8.8515221141     0.2136669280   -11.5953775208
  141      C     -10.2528061220     0.2951824846    -9.9999686271
  142      H      -9.4840502992     0.2879169087    -9.2415593821
  143      C     -14.3124965260     0.5027358387    -8.7840048848
  144      C     -15.6000199524     0.5852433730    -8.2749937197
  145      H     -16.4377028198     0.6639897222    -8.9545588075
  146      C     -15.8476430754     0.5745661646    -6.9116125901
  147      H     -16.8649260636     0.6424499359    -6.5512545539
  148      C     -14.7909489830     0.4718914200    -6.0087610518
  149      H     -14.9784591622     0.4509410663    -4.9441733930
  150      C     -13.5021885883     0.3962721680    -6.4730654025
  151      H     -12.6818865442     0.3146024991    -5.7753641039
  152      C      -8.5203373472    -1.9880096008    -5.6807180394
  153      H      -8.1515465043    -1.9356351120    -4.6559516951
  154      H      -9.2389704906    -2.8112762132    -5.7115807920
  155      C      -9.0108716875     3.0565494610    -5.4254686188
  156      H      -7.9300553438     3.0922293871    -5.2829344523
  157      H      -9.2525998489     3.8296751059    -6.1599582027
  158      C     -14.0819930829     0.5218639968   -10.2744099383
  159      C      -9.7032021944     3.3790800818    -4.1030732026
  160      H      -9.4326180387     2.6577542877    -3.3321414901
  161      H      -9.4113049796     4.3667506860    -3.7452685424
  162      H     -10.7894486892     3.3694813573    -4.2099613366
  163      C      -7.3569033130    -2.2916789475    -6.6232809552
  164      H      -6.6084851762    -1.5003366232    -6.5896866249
  165      H      -6.8660768543    -3.2243053325    -6.3435997147
  166      H      -7.6980798022    -2.3890737841    -7.6555709494
  167      C     -14.8634384470    -0.6404592447   -10.9138874860
  168      H     -14.7332864132    -0.6520475033   -11.9949664513
  169      H     -15.9309165806    -0.5483745059   -10.7190426622
  170      H     -14.5267366558    -1.5991034179   -10.5205653067
  171      C     -14.5775338061     1.8741027124   -10.8289544987
  172      H     -15.6371843606     2.0159858818   -10.6191499714
  173      H     -14.4448783127     1.9213076925   -11.9093438334
  174      H     -14.0289360202     2.7041956173   -10.3839028404
 ----------------------------------------------------------------

   14   -3629.2750911100      8.23e-09  Convergence criterion met
 Total energy in the final basis set =    -3629.2750911100

         TDDFT/TDA Excitation Energies
 ---------------------------------------------------

 Excited state   1: excitation energy (eV) =    2.4904
 Total energy for state  1:                 -3629.18356956 au
    Multiplicity: Triplet
    Trans. Mom.:  0.0000 X   0.0000 Y   0.0000 Z
    Strength   :     0.0000000000
    D(317) --> V(  3) amplitude =  0.2237
    D(319) --> V(  1) amplitude =  0.8781

 Excited state   2: excitation energy (eV) =    2.6257
 Total energy for state  2:                 -3629.17859684 au
    Multiplicity: Triplet
    Trans. Mom.:  0.0000 X   0.0000 Y   0.0000 Z
    Strength   :     0.0000000000
    D(322) --> V(  1) amplitude =  0.9961

 Excited state   3: excitation energy (eV) =    2.6269
 Total energy for state  3:                 -3629.17855392 au
    Multiplicity: Singlet
    Trans. Mom.:  0.0936 X   0.0058 Y   0.0569 Z
    Strength   :     0.0007738228
    D(322) --> V(  1) amplitude =  0.9967

 Excited state   4: excitation energy (eV) =    2.8008
 Total energy for state  4:                 -3629.17216322 au
    Multiplicity: Triplet
    Trans. Mom.:  0.0000 X   0.0000 Y   0.0000 Z
    Strength   :     0.0000000000
    D(313) --> V(  1) amplitude =  0.3752
    D(320) --> V(  1) amplitude =  0.8318

 Excited state   5: excitation energy (eV) =    2.8258
 Total energy for state  5:                 -3629.17124500 au
    Multiplicity: Triplet
    Trans. Mom.:  0.0000 X   0.0000 Y   0.0000 Z
    Strength   :     0.0000000000
    D(321) --> V(  1) amplitude =  0.9961

 Excited state   6: excitation energy (eV) =    2.8267
 Total energy for state  6:                 -3629.17121012 au
    Multiplicity: Singlet
    Trans. Mom.: -0.0575 X   0.0055 Y  -0.0371 Z
    Strength   :     0.0003262782
    D(321) --> V(  1) amplitude =  0.9965

 Excited state   7: excitation energy (eV) =    2.9247
 Total energy for state  7:                 -3629.16761007 au
    Multiplicity: Triplet
    Trans. Mom.:  0.0000 X   0.0000 Y   0.0000 Z
    Strength   :     0.0000000000
    D(317) --> V(  1) amplitude = -0.6697
    D(318) --> V(  1) amplitude =  0.2823
    D(319) --> V(  3) amplitude = -0.3716

 Excited state   8: excitation energy (eV) =    2.9664
 Total energy for state  8:                 -3629.16607917 au
    Multiplicity: Triplet
    Trans. Mom.:  0.0000 X   0.0000 Y   0.0000 Z
    Strength   :     0.0000000000
    D(307) --> V(  1) amplitude = -0.3899
    D(317) --> V(  1) amplitude =  0.2475
    D(318) --> V(  1) amplitude =  0.7425
    D(320) --> V(  3) amplitude =  0.2125

 Excited state   9: excitation energy (eV) =    3.1042
 Total energy for state  9:                 -3629.16101211 au
    Multiplicity: Singlet
    Trans. Mom.: -0.1537 X  -0.1120 Y   0.1569 Z
    Strength   :     0.0046225274
    D(319) --> V(  1) amplitude =  0.9534

 Excited state  10: excitation energy (eV) =    3.2119
 Total energy for state 10:                 -3629.15705676 au
    Multiplicity: Singlet
    Trans. Mom.:  1.7044 X   0.8738 Y  -2.4677 Z
    Strength   :     0.7678793645
    D(320) --> V(  1) amplitude =  0.9260

 Excited state  11: excitation energy (eV) =    3.4224
 Total energy for state 11:                 -3629.14932106 au
    Multiplicity: Singlet
    Trans. Mom.: -0.0758 X   0.0753 Y   0.2749 Z
    Strength   :     0.0072952568
    D(314) --> V(  1) amplitude =  0.2510
    D(318) --> V(  1) amplitude =  0.8995

 Excited state  12: excitation energy (eV) =    3.6100
 Total energy for state 12:                 -3629.14242659 au
    Multiplicity: Singlet
    Trans. Mom.:  0.3026 X  -0.0383 Y   0.2904 Z
    Strength   :     0.0156889059
    D(313) --> V(  1) amplitude = -0.2632
    D(314) --> V(  1) amplitude =  0.6511
    D(316) --> V(  1) amplitude =  0.3660
    D(318) --> V(  1) amplitude = -0.2859
    D(322) --> V(  2) amplitude =  0.2485

 ---------------------------------------------------

                    Orbital Energies (a.u.)
 --------------------------------------------------------------

 Alpha MOs
 -- Occupied --
-14.678 -14.674 -10.495 -10.494 -10.491 -10.491 -10.487 -10.486
-10.476 -10.476 -10.476 -10.475 -10.471 -10.471 -10.470 -10.470
-10.470 -10.470 -10.470 -10.469 -10.468 -10.465 -10.464 -10.464
-10.463 -10.462 -10.461 -10.460 -10.459 -10.459 -10.459 -10.459
-10.459 -10.458 -10.455 -10.455 -10.454 -10.454 -10.453 -10.452
-10.452 -10.452 -10.452 -10.452 -10.452 -10.451 -10.451 -10.451
-10.448 -10.448 -10.446 -10.445 -10.445 -10.445 -10.445 -10.444
-10.444 -10.444 -10.442 -10.442 -10.442 -10.441 -10.441 -10.441
-10.441 -10.441 -10.440 -10.440 -10.439 -10.439 -10.438 -10.438
-10.438 -10.437 -10.437 -10.437 -10.437 -10.436 -10.436 -10.436
-10.434 -10.434 -10.434 -10.433 -10.424 -10.424 -10.424 -10.424
-10.424 -10.423 -10.422 -10.422  -6.955  -6.954  -1.091  -1.091
 -1.006  -1.004  -0.974  -0.973  -0.967  -0.966  -0.963  -0.960
 -0.959  -0.956  -0.953  -0.951  -0.909  -0.909  -0.907  -0.905
 -0.896  -0.895  -0.885  -0.884  -0.882  -0.874  -0.871  -0.869
 -0.854  -0.853  -0.852  -0.848  -0.836  -0.835  -0.831  -0.828
 -0.825  -0.823  -0.821  -0.816  -0.815  -0.812  -0.808  -0.807
 -0.798  -0.797  -0.792  -0.786  -0.768  -0.767  -0.757  -0.756
 -0.738  -0.730  -0.723  -0.722  -0.719  -0.718  -0.717  -0.712
 -0.710  -0.709  -0.708  -0.707  -0.692  -0.689  -0.686  -0.684
 -0.673  -0.671  -0.670  -0.668  -0.667  -0.664  -0.642  -0.639
 -0.637  -0.636  -0.628  -0.620  -0.618  -0.616  -0.616  -0.614
 -0.614  -0.610  -0.588  -0.586  -0.584  -0.575  -0.570  -0.568
 -0.563  -0.562  -0.557  -0.547  -0.544  -0.544  -0.537  -0.537
 -0.534  -0.533  -0.532  -0.531  -0.527  -0.524  -0.522  -0.522
 -0.519  -0.516  -0.514  -0.511  -0.506  -0.505  -0.505  -0.503
 -0.502  -0.500  -0.499  -0.498  -0.494  -0.494  -0.493  -0.491
 -0.491  -0.490  -0.489  -0.488  -0.486  -0.482  -0.482  -0.481
 -0.481  -0.481  -0.479  -0.477  -0.476  -0.476  -0.474  -0.474
 -0.473  -0.472  -0.470  -0.468  -0.466  -0.460  -0.457  -0.451
 -0.451  -0.451  -0.450  -0.449  -0.447  -0.447  -0.445  -0.441
 -0.439  -0.438  -0.437  -0.435  -0.435  -0.432  -0.431  -0.430
 -0.428  -0.426  -0.425  -0.424  -0.423  -0.422  -0.420  -0.419
 -0.416  -0.414  -0.414  -0.413  -0.413  -0.412  -0.412  -0.408
 -0.407  -0.407  -0.406  -0.399  -0.399  -0.398  -0.396  -0.394
 -0.393  -0.391  -0.389  -0.388  -0.386  -0.384  -0.379  -0.378
 -0.374  -0.372  -0.372  -0.370  -0.369  -0.367  -0.364  -0.360
 -0.356  -0.355  -0.343  -0.336  -0.334  -0.333  -0.327  -0.325
 -0.301  -0.298  -0.291  -0.290  -0.288  -0.287  -0.285  -0.284
 -0.283  -0.282  -0.281  -0.279  -0.274  -0.259  -0.258  -0.255
 -0.224  -0.216

          Ground-State Mulliken Net Atomic Charges

     Atom                 Charge (a.u.)
  ----------------------------------------
      1 N                    -0.717481
      2 C                     0.312288
      3 C                     0.310344
      4 C                     0.130422
      5 C                    -0.307381
      6 H                     0.229540
      7 C                    -0.250470
      8 H                     0.229986
      9 C                    -0.253074
     10 H                     0.237646
     11 C                    -0.325395
     12 H                     0.261343
     13 C                     0.129691
     14 C                    -0.307546
     15 H                     0.229594
     16 C                    -0.249683
     17 H                     0.230185
     18 C                    -0.252041
     19 H                     0.234927
     20 C                    -0.324476
     21 H                     0.258645
     22 C                     0.193154
     23 C                    -0.294970
     24 H                     0.239824
     25 C                    -0.309067
     26 H                     0.240431
     27 C                     0.052532
     28 C                     0.051388
     29 C                    -0.219400
     30 C                    -0.552745
     31 H                     0.255290
     32 H                     0.243117
     33 C                    -0.549687
     34 H                     0.255097
     35 H                     0.242558
     36 C                    -0.202317
     37 C                    -0.652750
     38 H                     0.236490
     39 H                     0.227850
     40 H                     0.223138
     41 C                    -0.655266
     42 H                     0.239886
     43 H                     0.227639
     44 H                     0.222983
     45 C                    -0.615173
     46 H                     0.234033
     47 H                     0.225751
     48 H                     0.225591
     49 C                    -0.611279
     50 H                     0.232564
     51 H                     0.225235
     52 H                     0.225237
     53 B                     0.640952
     54 C                    -0.110761
     55 C                    -0.432884
     56 H                     0.251797
     57 C                     0.107542
     58 C                     0.111091
     59 C                    -0.430854
     60 H                     0.252554
     61 C                    -0.110429
     62 C                     0.121153
     63 C                    -0.406025
     64 H                     0.233306
     65 C                     0.132898
     66 C                    -0.275454
     67 H                     0.237653
     68 C                    -0.323578
     69 H                     0.232573
     70 C                     0.071567
     71 C                     0.112400
     72 C                    -0.401943
     73 H                     0.231115
     74 C                     0.129655
     75 C                    -0.273518
     76 H                     0.237636
     77 C                    -0.323585
     78 H                     0.232093
     79 C                     0.073458
     80 C                    -0.719745
     81 H                     0.241323
     82 H                     0.242478
     83 H                     0.243331
     84 C                    -0.721610
     85 H                     0.243562
     86 H                     0.243068
     87 H                     0.241824
     88 B                     0.636157
     89 C                    -0.112078
     90 C                    -0.426361
     91 H                     0.250080
     92 C                     0.113586
     93 C                     0.107677
     94 C                    -0.432079
     95 H                     0.251213
     96 C                    -0.108991
     97 C                     0.120981
     98 C                     0.070088
     99 C                    -0.323498
    100 H                     0.232384
    101 C                    -0.275732
    102 H                     0.237400
    103 C                     0.133536
    104 C                    -0.407666
    105 H                     0.234275
    106 C                     0.116847
    107 C                    -0.406610
    108 H                     0.233619
    109 C                     0.128989
    110 C                    -0.273615
    111 H                     0.237410
    112 C                    -0.323977
    113 H                     0.232059
    114 C                     0.072052
    115 C                    -0.724761
    116 H                     0.246945
    117 H                     0.242893
    118 H                     0.241088
    119 C                    -0.721072
    120 H                     0.247160
    121 H                     0.243286
    122 H                     0.239878
    123 C                    -0.206476
    124 C                     0.046633
    125 C                    -0.284174
    126 H                     0.243020
    127 C                     0.164961
    128 C                    -0.295977
    129 H                     0.244484
    130 C                     0.040673
    131 N                    -0.705553
    132 C                     0.304821
    133 C                     0.302713
    134 C                     0.131172
    135 C                    -0.307857
    136 H                     0.229990
    137 C                    -0.255827
    138 H                     0.226768
    139 C                    -0.250128
    140 H                     0.236432
    141 C                    -0.320428
    142 H                     0.264660
    143 C                     0.131086
    144 C                    -0.308524
    145 H                     0.229970
    146 C                    -0.254855
    147 H                     0.226956
    148 C                    -0.250694
    149 H                     0.234099
    150 C                    -0.317371
    151 H                     0.260829
    152 C                    -0.555103
    153 H                     0.256920
    154 H                     0.244016
    155 C                    -0.546530
    156 H                     0.253357
    157 H                     0.242114
    158 C                    -0.198218
    159 C                    -0.654764
    160 H                     0.237265
    161 H                     0.228519
    162 H                     0.222853
    163 C                    -0.657505
    164 H                     0.242394
    165 H                     0.226587
    166 H                     0.224261
    167 C                    -0.618119
    168 H                     0.226063
    169 H                     0.225896
    170 H                     0.235222
    171 C                    -0.611557
    172 H                     0.225037
    173 H                     0.225171
    174 H                     0.232708
  ----------------------------------------
  Sum of atomic charges =    -0.000000

                    Cartesian Multipole Moments
 -----------------------------------------------------------------
    Charge (ESU x 10^10)
                -0.0000
    Dipole Moment (Debye)
         X      -0.0544      Y       1.1276      Z       0.6253
       Tot       1.2906
    Quadrupole Moments (Debye-Ang)
        XX    -495.1092     XY      -2.3552     YY    -551.8396
        XZ     -19.9860     YZ     -25.5593     ZZ    -491.5470

 Total job time:  62457.79s(wall), 171694.86s(cpu)
        *  Thank you very much for using Q-Chem.  Have a nice day.  *
