 Q-Chem 5.0, Q-Chem, Inc., Pleasanton, CA (2017)
 Q-Chem 5.0.1 for Intel X86 EM64T Linux

User input:
--------------------------------------------------------------
$rem
threads 4
jobtype	opt
method PBEh-3c
basis def2-mSVP
mem_static	1024
mem_total	4000
sym_ignore	true
scf_convergence	9
solvent_method	pcm
$end

$molecule
read gsopt.mol
$end

$solvent
dielectric	2.38
$end

$pcm
theory iefpcm
$end
--------------------------------------------------------------

   17   -2927.8864669670      4.03E-10 Convergence criterion met
 Total energy in the final basis set = -2927.88646697
   15   -2927.8863464995      4.43E-10 Convergence criterion met
 Total energy in the final basis set = -2927.88634650
   15   -2927.8857291131      5.45E-10 Convergence criterion met
 Total energy in the final basis set = -2927.88572911
   14   -2927.8850323750      8.87E-10 Convergence criterion met
 Total energy in the final basis set = -2927.88503238
   14   -2927.8850427810      7.94E-10 Convergence criterion met
 Total energy in the final basis set = -2927.88504278
   14   -2927.8851478594      7.31E-10 Convergence criterion met
 Total energy in the final basis set = -2927.88514786
   14   -2927.8850892322      5.68E-10 Convergence criterion met
 Total energy in the final basis set = -2927.88508923
   14   -2927.8850357615      5.48E-10 Convergence criterion met
   14   -2927.8849637872      6.01E-10 Convergence criterion met
 Total energy in the final basis set = -2927.88496379
   14   -2927.8849232839      6.20E-10 Convergence criterion met
 Total energy in the final basis set = -2927.88492328
   14   -2927.8849709992      5.05E-10 Convergence criterion met
 Total energy in the final basis set = -2927.88497100
   14   -2927.8850093848      5.11E-10 Convergence criterion met
 Total energy in the final basis set = -2927.88500938
   14   -2927.8850199126      5.18E-10 Convergence criterion met
 Total energy in the final basis set = -2927.88501991
   14   -2927.8850112619      5.07E-10 Convergence criterion met
 Total energy in the final basis set = -2927.88501126

             Standard Nuclear Orientation (Angstroms)
    I     Atom           X                Y                Z
 ----------------------------------------------------------------
    1      N      -0.1118909699     0.4404228588     0.2963191174
    2      C      -0.0962839271     0.4592393913     1.6974166949
    3      C       1.1143609940     0.4575854087     2.3920920794
    4      H       2.0483553480     0.4330712967     1.8456202718
    5      C       1.1247964847     0.4860582802     3.7768766771
    6      H       2.0734510526     0.4849985676     4.2982006290
    7      C      -0.0629875709     0.4976200833     4.4949395681
    8      H      -0.0503225734     0.5114871554     5.5765204182
    9      C      -1.2674741525     0.4925362929     3.8055358614
   10      H      -2.2039673772     0.5105903823     4.3483045565
   11      C      -1.2895196569     0.4845165210     2.4208895612
   12      H      -2.2373033167     0.4984765443     1.8982230418
   13      C      -1.1097108602    -0.2559409109    -0.4057436822
   14      C      -1.7142253332     0.3213290938    -1.5225238972
   15      H      -1.4247784519     1.3162779228    -1.8360509759
   16      C      -2.6803580395    -0.3727366961    -2.2324053475
   17      H      -3.1372339320     0.0892706549    -3.0983914236
   18      C      -3.0748973791    -1.6420650514    -1.8336150336
   19      H      -3.8335466169    -2.1791420071    -2.3873599608
   20      C      -2.4820226025    -2.2144819320    -0.7169484547
   21      H      -2.7717531466    -3.2077622645    -0.3986225625
   22      C      -1.5003192652    -1.5359137546    -0.0127650668
   23      H      -1.0323379262    -2.0018292993     0.8451191747
   24      C       0.8538335233     1.1582716651    -0.4385700558
   25      C       1.1503379139     2.4793352715    -0.1253291292
   26      H       0.6419146751     2.9598012353     0.7026268397
   27      C       2.0782530342     3.1907537971    -0.8752231395
   28      C       1.4986468942     0.5492507420    -1.5087215948
   29      H       1.2718402334    -0.4827682172    -1.7514288072
   30      C       2.4144823104     1.2524965577    -2.2785047862
   31      C       2.7124820579     2.5848805306    -1.9654669104
   32      C       3.0843976025     0.5812437383    -3.4454807119
   33      H       2.7450585663    -0.4469157835    -3.5677674761
   34      H       4.1698590846     0.5574800824    -3.3275088680
   35      H       2.8782331771     1.1067696046    -4.3806732129
   36      C       2.3742782975     4.6266425077    -0.5443946774
   37      H       1.8427878041     4.9537758681     0.3485383037
   38      H       3.4409750713     4.7830716053    -0.3698483663
   39      H       2.0830113642     5.2907890315    -1.3617390178
   40      B       3.7009116039     3.4013368128    -2.8689774708
   41      C       3.1526905171     4.1465405805    -4.1174028985
   42      C       1.8089220007     4.0161144991    -4.4718538822
   43      H       1.1375562866     3.4387891449    -3.8458206917
   44      C       1.3467756334     4.5946808622    -5.6383058685
   45      C       2.2169397550     5.3458761037    -6.4601711765
   46      C       3.5399340208     5.5161166991    -6.0930920861
   47      H       4.2089324486     6.1023866576    -6.7135507049
   48      C       4.0243084995     4.9056232710    -4.9325133052
   49      C       0.0342871506     4.5459703226    -6.2821413500
   50      C      -1.1703007777     3.9563771620    -5.9964568997
   51      H      -1.3242534091     3.3776512302    -5.0939384656
   52      C       0.1600474224     5.2718643823    -7.4798658787
   53      C      -0.8649713402     5.4273275204    -8.4088998117
   54      C       1.4616297713     5.7830948814    -7.6389424775
   55      C       1.7464299829     6.4883620203    -8.7801410907
   56      H       2.7299834627     6.9005663640    -8.9681613643
   57      C      -2.2343150745     4.1047909636    -6.9185487745
   58      H      -3.1838157413     3.6370345267    -6.6926868296
   59      C      -2.1003952955     4.8135855506    -8.0896953578
   60      H      -2.9386768384     4.8958588283    -8.7709865880
   61      C      -0.5456924981     6.1632289372    -9.5752061821
   62      H      -1.2962154513     6.3211169364   -10.3403537742
   63      C       0.7218867314     6.6707252169    -9.7407642159
   64      H       0.9517153688     7.2264361748   -10.6406037290
   65      C       5.2260662288     3.4011626838    -2.5824665901
   66      C       5.7394594418     2.5962919700    -1.5639483454
   67      H       5.0619754135     2.0304955933    -0.9335667937
   68      C       7.1077512589     2.4848428252    -1.3989473239
   69      C       7.9881867624     3.2072250800    -2.2335713710
   70      C       7.4849826322     4.0536970058    -3.2076936053
   71      H       8.1584713553     4.6211483139    -3.8406574856
   72      C       6.1042992931     4.1458082144    -3.4053561336
   73      C       7.9019771707     1.6332751470    -0.5174103408
   74      C       7.6132010916     0.6957897383     0.4386127710
   75      H       6.5951104290     0.4721283065     0.7330030053
   76      C       9.2464498627     1.8585637901    -0.8636544813
   77      C      10.3190374099     1.1728889894    -0.3062918175
   78      C       9.3557638366     2.8086150552    -1.8969643284
   79      C      10.6008851303     3.0967891312    -2.3883316753
   80      H      10.7487241813     3.8067138457    -3.1925759628
   81      C       8.6859864227    -0.0056908562     1.0371664263
   82      H       8.4610099493    -0.7492879070     1.7906169400
   83      C       9.9979607340     0.2134994331     0.6850913275
   84      H      10.7851314095    -0.3586083926     1.1605758177
   85      C      11.5959829531     1.4943846735    -0.8262613971
   86      H      12.4789757741     0.9992654802    -0.4414551149
   87      C      11.7163866706     2.4265714918    -1.8311611685
   88      H      12.7001982459     2.6525817727    -2.2209460465
   89      B       5.5278288674     5.0212379586    -4.5567445634
   90      C       6.4501049940     6.0204400140    -5.3360927268
   91      C       7.1610254032     5.6268479802    -6.4748100643
   92      C       7.9648861999     6.5425761920    -7.1408942876
   93      H       8.5033763315     6.2358109261    -8.0301884687
   94      C       8.0893441904     7.8489386191    -6.6797540760
   95      C       7.3766099162     8.2415729574    -5.5518002047
   96      H       7.4669806785     9.2581785232    -5.1878473979
   97      C       6.5517987508     7.3432248719    -4.8894414327
   98      N       8.9229832341     8.7627945706    -7.3510604854
   99      C       8.4691725487    10.0704232561    -7.5912484276
  100      C       9.3136124628    11.1626960325    -7.3963733340
  101      H      10.3289059131    11.0032597229    -7.0558245285
  102      C       8.8552506492    12.4485863317    -7.6335342342
  103      H       9.5221519891    13.2865176001    -7.4760994706
  104      C       7.5488448247    12.6680142334    -8.0476817632
  105      H       7.1918095371    13.6742155963    -8.2223669767
  106      C       6.7049482138    11.5817474222    -8.2337173516
  107      H       5.6849636794    11.7368921281    -8.5614430557
  108      C       7.1601912011    10.2914599677    -8.0180782090
  109      H       6.4983445733     9.4495981485    -8.1779930335
  110      C      10.1886652443     8.3554117022    -7.7978550737
  111      C      10.6686576678     8.7683765363    -9.0404784300
  112      H      10.0592406088     9.4060275679    -9.6680661035
  113      C      11.9195552455     8.3619386763    -9.4755847321
  114      H      12.2762114924     8.6913244522   -10.4431585137
  115      C      12.7034512797     7.5252095148    -8.6941816490
  116      H      13.6763100322     7.2039162203    -9.0416323189
  117      C      12.2229910792     7.1054890258    -7.4613968898
  118      H      12.8246724636     6.4578370835    -6.8365909331
  119      C      10.9819807821     7.5215964256    -7.0091300049
  120      H      10.6225607192     7.1979144303    -6.0406935530
  121      C       5.7657029434     7.7843947822    -3.6861026427
  122      H       5.9822767383     8.8174262899    -3.4163604894
  123      H       5.9831900530     7.1643695421    -2.8133100268
  124      H       4.6911215162     7.7115538990    -3.8698014645
  125      C       7.0203605778     4.2249621122    -7.0023397502
  126      H       7.7123294754     4.0291244494    -7.8208654663
  127      H       7.2097550282     3.4794534101    -6.2268955469
  128      H       6.0102657627     4.0406324621    -7.3765590866
 ----------------------------------------------------------------

   14   -2927.8850041737      5.00E-10 Convergence criterion met
 Total energy in the final basis set = -2927.88500417
 Final energy is   -2927.88500417368
 **  OPTIMIZATION CONVERGED  **

                    Orbital Energies (a.u.)
 --------------------------------------------------------------

 Alpha MOs
 -- Occupied --
-14.669 -14.669 -10.490 -10.490 -10.490 -10.490 -10.484 -10.483
-10.465 -10.465 -10.465 -10.465 -10.465 -10.465 -10.464 -10.464
-10.464 -10.463 -10.462 -10.462 -10.461 -10.461 -10.461 -10.461
-10.461 -10.461 -10.459 -10.459 -10.459 -10.458 -10.455 -10.455
-10.454 -10.454 -10.454 -10.454 -10.454 -10.453 -10.448 -10.448
-10.447 -10.447 -10.447 -10.447 -10.447 -10.447 -10.446 -10.446
-10.445 -10.445 -10.444 -10.444 -10.444 -10.443 -10.443 -10.443
-10.442 -10.442 -10.441 -10.440 -10.436 -10.436 -10.436 -10.435
-10.435 -10.435 -10.434 -10.434 -10.427 -10.427 -10.426 -10.426
-10.421 -10.420  -6.950  -6.949  -1.079  -1.079  -1.017  -1.017
 -0.965  -0.961  -0.960  -0.960  -0.960  -0.959  -0.939  -0.939
 -0.933  -0.933  -0.910  -0.902  -0.873  -0.873  -0.864  -0.859
 -0.855  -0.853  -0.850  -0.850  -0.847  -0.846  -0.838  -0.837
 -0.837  -0.836  -0.823  -0.814  -0.813  -0.805  -0.799  -0.799
 -0.768  -0.768  -0.764  -0.764  -0.735  -0.730  -0.727  -0.721
 -0.708  -0.708  -0.703  -0.703  -0.689  -0.682  -0.681  -0.680
 -0.680  -0.675  -0.668  -0.666  -0.650  -0.648  -0.645  -0.644
 -0.639  -0.637  -0.606  -0.606  -0.595  -0.595  -0.591  -0.588
 -0.587  -0.586  -0.584  -0.575  -0.574  -0.562  -0.561  -0.551
 -0.551  -0.544  -0.544  -0.541  -0.541  -0.538  -0.528  -0.524
 -0.521  -0.520  -0.516  -0.510  -0.509  -0.509  -0.503  -0.499
 -0.498  -0.496  -0.496  -0.495  -0.494  -0.490  -0.486  -0.485
 -0.485  -0.483  -0.483  -0.482  -0.481  -0.480  -0.479  -0.477
 -0.472  -0.471  -0.470  -0.467  -0.466  -0.465  -0.462  -0.460
 -0.460  -0.454  -0.445  -0.441  -0.440  -0.440  -0.439  -0.438
 -0.433  -0.427  -0.427  -0.425  -0.425  -0.424  -0.422  -0.421
 -0.418  -0.411  -0.411  -0.410  -0.406  -0.404  -0.400  -0.400
 -0.398  -0.396  -0.396  -0.395  -0.395  -0.394  -0.391  -0.390
 -0.387  -0.386  -0.381  -0.370  -0.359  -0.358  -0.354  -0.353
 -0.345  -0.342  -0.320  -0.315  -0.303  -0.303  -0.300  -0.299
 -0.296  -0.295  -0.295  -0.294  -0.286  -0.283  -0.282  -0.276
 -0.276  -0.263  -0.258  -0.256  -0.221  -0.220

          Ground-State Mulliken Net Atomic Charges

     Atom                 Charge (a.u.)
  ----------------------------------------
      1 N                    -0.673924
      2 C                     0.310827
      3 C                    -0.293390
      4 H                     0.250248
      5 C                    -0.227136
      6 H                     0.233293
      7 C                    -0.255974
      8 H                     0.230883
      9 C                    -0.227581
     10 H                     0.234378
     11 C                    -0.297496
     12 H                     0.255039
     13 C                     0.290160
     14 C                    -0.283235
     15 H                     0.248304
     16 C                    -0.227260
     17 H                     0.231888
     18 C                    -0.252306
     19 H                     0.232451
     20 C                    -0.229748
     21 H                     0.235571
     22 C                    -0.284656
     23 H                     0.254416
     24 C                     0.290388
     25 C                    -0.362193
     26 H                     0.241353
     27 C                     0.053749
     28 C                    -0.362727
     29 H                     0.240729
     30 C                     0.053784
     31 C                    -0.221581
     32 C                    -0.766580
     33 H                     0.246922
     34 H                     0.247674
     35 H                     0.248956
     36 C                    -0.769522
     37 H                     0.248050
     38 H                     0.247653
     39 H                     0.247352
     40 B                     0.700893
     41 C                    -0.153182
     42 C                    -0.387209
     43 H                     0.240116
     44 C                     0.085979
     45 C                     0.093290
     46 C                    -0.392811
     47 H                     0.238444
     48 C                    -0.153193
     49 C                     0.188916
     50 C                    -0.385283
     51 H                     0.233551
     52 C                    -0.063226
     53 C                     0.235480
     54 C                     0.188273
     55 C                    -0.389867
     56 H                     0.235277
     57 C                    -0.219332
     58 H                     0.242325
     59 C                    -0.340737
     60 H                     0.238479
     61 C                    -0.341925
     62 H                     0.238636
     63 C                    -0.218425
     64 H                     0.242983
     65 C                    -0.153209
     66 C                    -0.389128
     67 H                     0.239463
     68 C                     0.084050
     69 C                     0.097491
     70 C                    -0.393563
     71 H                     0.237937
     72 C                    -0.152659
     73 C                     0.184380
     74 C                    -0.383497
     75 H                     0.236027
     76 C                    -0.061495
     77 C                     0.237215
     78 C                     0.184765
     79 C                    -0.386896
     80 H                     0.235115
     81 C                    -0.220102
     82 H                     0.243237
     83 C                    -0.341072
     84 H                     0.238271
     85 C                    -0.343163
     86 H                     0.238458
     87 C                    -0.218744
     88 H                     0.242445
     89 B                     0.700867
     90 C                    -0.213324
     91 C                     0.055227
     92 C                    -0.364566
     93 H                     0.242251
     94 C                     0.301662
     95 C                    -0.372363
     96 H                     0.242307
     97 C                     0.049266
     98 N                    -0.672939
     99 C                     0.289757
    100 C                    -0.285018
    101 H                     0.253641
    102 C                    -0.229835
    103 H                     0.235594
    104 C                    -0.251800
    105 H                     0.232683
    106 C                    -0.228826
    107 H                     0.234757
    108 C                    -0.283185
    109 H                     0.249671
    110 C                     0.298522
    111 C                    -0.291764
    112 H                     0.253973
    113 C                    -0.228612
    114 H                     0.234851
    115 C                    -0.253935
    116 H                     0.231556
    117 C                    -0.228045
    118 H                     0.232543
    119 C                    -0.287346
    120 H                     0.251511
    121 C                    -0.773599
    122 H                     0.249013
    123 H                     0.249786
    124 H                     0.248899
    125 C                    -0.763067
    126 H                     0.246108
    127 H                     0.246829
    128 H                     0.245411
  ----------------------------------------
  Sum of atomic charges =    -0.000000

                    Cartesian Multipole Moments
 -----------------------------------------------------------------
    Charge (ESU x 10^10)
                -0.0000
    Dipole Moment (Debye)
         X       0.0852      Y      -0.9403      Z      -1.1355
       Tot       1.4768
    Quadrupole Moments (Debye-Ang)
        XX    -379.7326     XY     -10.7007     YY    -425.7422
        XZ      13.7018     YZ     -22.1942     ZZ    -395.1784

 Total job time:  58633.11s(wall), 143547.58s(cpu)
        *  Thank you very much for using Q-Chem.  Have a nice day.  *
