 Q-Chem 5.0, Q-Chem, Inc., Pleasanton, CA (2017)
 Q-Chem 5.0.1 for Intel X86 EM64T Linux

User input:
--------------------------------------------------------------
$rem
threads 4
jobtype	opt
method PBEh-3c
basis def2-mSVP
mem_static	1024
mem_total	4000
sym_ignore	true
scf_convergence	9
solvent_method	pcm
$end

$molecule
read gsopt.mol
$end

$solvent
dielectric	4.33
$end

$pcm
theory iefpcm
$end
--------------------------------------------------------------

   17   -2927.8953158794      3.65E-10 Convergence criterion met
 Total energy in the final basis set = -2927.89531588
   15   -2927.8952756442      4.35E-10 Convergence criterion met
 Total energy in the final basis set = -2927.89527564
   15   -2927.8946843838      5.47E-10 Convergence criterion met
 Total energy in the final basis set = -2927.89468438
   15   -2927.8939547596      4.07E-10 Convergence criterion met
 Total energy in the final basis set = -2927.89395476
   15   -2927.8939282750      3.83E-10 Convergence criterion met
 Total energy in the final basis set = -2927.89392828
   14   -2927.8940380091      9.20E-10 Convergence criterion met
 Total energy in the final basis set = -2927.89403801
   14   -2927.8939876343      7.35E-10 Convergence criterion met
 Total energy in the final basis set = -2927.89398763
   14   -2927.8939303054      7.29E-10 Convergence criterion met
   14   -2927.8938430512      6.98E-10 Convergence criterion met
 Total energy in the final basis set = -2927.89384305
   14   -2927.8938996382      6.77E-10 Convergence criterion met
 Total energy in the final basis set = -2927.89389964
   14   -2927.8939151911      6.78E-10 Convergence criterion met
 Total energy in the final basis set = -2927.89391519
   14   -2927.8939186217      6.77E-10 Convergence criterion met
 Total energy in the final basis set = -2927.89391862
   14   -2927.8939153361      6.73E-10 Convergence criterion met
 Total energy in the final basis set = -2927.89391534
   14   -2927.8939116619      6.72E-10 Convergence criterion met
 Total energy in the final basis set = -2927.89391166

             Standard Nuclear Orientation (Angstroms)
    I     Atom           X                Y                Z
 ----------------------------------------------------------------
    1      N      -0.1142051041     0.4523415100     0.3031951008
    2      C      -0.0971814233     0.4754534902     1.7042774920
    3      C       1.1146207979     0.4681626531     2.3974358306
    4      H       2.0482550676     0.4348776473     1.8506200699
    5      C       1.1273142805     0.5013951261     3.7824341894
    6      H       2.0768036375     0.4955349022     4.3023108572
    7      C      -0.0596904817     0.5235697193     4.5022549409
    8      H      -0.0454367940     0.5410968030     5.5838393944
    9      C      -1.2654553696     0.5241565230     3.8143528626
   10      H      -2.2011493537     0.5505519691     4.3582736887
   11      C      -1.2893866586     0.5113056080     2.4294199993
   12      H      -2.2382765520     0.5300730719     1.9087973198
   13      C      -1.1183535606    -0.2375351560    -0.3966251446
   14      C      -1.7206561222     0.3425740921    -1.5134155761
   15      H      -1.4256895442     1.3350129274    -1.8300536659
   16      C      -2.6937341054    -0.3454315922    -2.2204582238
   17      H      -3.1487046333     0.1190032216    -3.0862130354
   18      C      -3.0971534377    -1.6114113816    -1.8187499583
   19      H      -3.8611088651    -2.1435876906    -2.3700656067
   20      C      -2.5060670871    -2.1867582640    -0.7021804782
   21      H      -2.8024975385    -3.1774043781    -0.3816252161
   22      C      -1.5177096982    -1.5142359356    -0.0009358018
   23      H      -1.0518424391    -1.9833764554     0.8564320298
   24      C       0.8536558060     1.1653863053    -0.4340819379
   25      C       1.1510987519     2.4878021598    -0.1271894688
   26      H       0.6422432392     2.9739704954     0.6972710680
   27      C       2.0805818820     3.1946554930    -0.8799077734
   28      C       1.4992347174     0.5498473334    -1.5001386890
   29      H       1.2724364299    -0.4833977069    -1.7379395065
   30      C       2.4169677929     1.2482710426    -2.2725200852
   31      C       2.7155164968     2.5822275270    -1.9662792533
   32      C       3.0872525837     0.5697675298    -3.4351225114
   33      H       2.7462339304    -0.4584281161    -3.5522699475
   34      H       4.1725272753     0.5448237824    -3.3156203547
   35      H       2.8831196706     1.0908035876    -4.3733110934
   36      C       2.3769337443     4.6320238303    -0.5556632449
   37      H       1.8429464211     4.9638693186     0.3340398175
   38      H       3.4432541001     4.7886041996    -0.3788603129
   39      H       2.0885766096     5.2922605171    -1.3772159792
   40      B       3.7041145295     3.3937761948    -2.8741161681
   41      C       3.1547975051     4.1339201614    -4.1254396132
   42      C       1.8112122447     3.9997500905    -4.4798338781
   43      H       1.1395636155     3.4230833865    -3.8535452962
   44      C       1.3481250081     4.5744656594    -5.6481395858
   45      C       2.2170506823     5.3256910934    -6.4718261609
   46      C       3.5398731100     5.4996338170    -6.1049073559
   47      H       4.2067411049     6.0856580428    -6.7278454280
   48      C       4.0251417360     4.8927974964    -4.9426189158
   49      C       0.0356599229     4.5218389887    -6.2917515942
   50      C      -1.1682560463     3.9308549941    -6.0042736685
   51      H      -1.3213908098     3.3538353871    -5.1004679399
   52      C       0.1603747223     5.2455759974    -7.4911004780
   53      C      -0.8653322240     5.3978561630    -8.4203194601
   54      C       1.4610666149     5.7590969198    -7.6515423861
   55      C       1.7447451794     6.4633161528    -8.7941241236
   56      H       2.7274469681     6.8773213150    -8.9828262675
   57      C      -2.2327174934     4.0759526508    -6.9268217883
   58      H      -3.1814292595     3.6071470251    -6.6997372325
   59      C      -2.1000814953     4.7828370487    -8.0997623282
   60      H      -2.9384605373     4.8626725579    -8.7812628211
   61      C      -0.5476990379     6.1324887583    -9.5881945276
   62      H      -1.2989057246     6.2877402940   -10.3532496337
   63      C       0.7193382888     6.6421151017    -9.7548903843
   64      H       0.9480098961     7.1968534305   -10.6556512615
   65      C       5.2299981872     3.3929650097    -2.5906207191
   66      C       5.7451838372     2.5890670750    -1.5719874599
   67      H       5.0700013229     2.0248558541    -0.9377624545
   68      C       7.1140749326     2.4756387077    -1.4111149180
   69      C       7.9932347512     3.1950540742    -2.2501613615
   70      C       7.4883641249     4.0415530933    -3.2237361811
   71      H       8.1620675778     4.6060185898    -3.8590896682
   72      C       6.1070582814     4.1356387406    -3.4170409107
   73      C       7.9096634286     1.6238569107    -0.5309560587
   74      C       7.6221743036     0.6882226353     0.4277880945
   75      H       6.6047352695     0.4672912254     0.7266049172
   76      C       9.2534202752     1.8458349972    -0.8828455256
   77      C      10.3268254216     1.1582362494    -0.3287393577
   78      C       9.3612235705     2.7940873359    -1.9181792235
   79      C      10.6052388915     3.0786595329    -2.4154816898
   80      H      10.7515640117     3.7868986817    -3.2215468118
   81      C       8.6960756889    -0.0148673388     1.0231281170
   82      H       8.4722740633    -0.7568533952     1.7785429669
   83      C      10.0075672010     0.2007518236     0.6654570627
   84      H      10.7955135976    -0.3724349548     1.1384018482
   85      C      11.6027678855     1.4756893430    -0.8544109208
   86      H      12.4858978054     0.9786809719    -0.4722975861
   87      C      11.7214128122     2.4062641530    -1.8615908827
   88      H      12.7041567896     2.6291519959    -2.2558921337
   89      B       5.5283068027     5.0124531399    -4.5665694603
   90      C       6.4482593591     6.0176060516    -5.3411932018
   91      C       7.1629891459     5.6308509229    -6.4800260514
   92      C       7.9671822422     6.5514690259    -7.1394102460
   93      H       8.5078976853     6.2491634290    -8.0289508048
   94      C       8.0881580982     7.8558432666    -6.6714102272
   95      C       7.3710306149     8.2419641076    -5.5438187876
   96      H       7.4583481611     9.2567029063    -5.1737507479
   97      C       6.5457122907     7.3387216027    -4.8881120286
   98      N       8.9227858815     8.7743765214    -7.3352987550
   99      C       8.4664400998    10.0818658498    -7.5726970479
  100      C       9.3059353299    11.1759800611    -7.3659138770
  101      H      10.3191278887    11.0190804939    -7.0177578762
  102      C       8.8452941932    12.4618837550    -7.6004683998
  103      H       9.5083638395    13.3011299749    -7.4337474677
  104      C       7.5411272214    12.6791278293    -8.0239529169
  105      H       7.1822467164    13.6850543260    -8.1968426309
  106      C       6.7019375276    11.5908313100    -8.2216928844
  107      H       5.6840337233    11.7440956045    -8.5568610568
  108      C       7.1598305200    10.3006900925    -8.0084848272
  109      H       6.5012405078     9.4580561457    -8.1783024212
  110      C      10.1913161084     8.3715332348    -7.7785614510
  111      C      10.6753951114     8.7904421299    -9.0178448714
  112      H      10.0675527529     9.4289195129    -9.6462439937
  113      C      11.9291117326     8.3881827074    -9.4498413072
  114      H      12.2887686858     8.7220856155   -10.4148190643
  115      C      12.7118001169     7.5497566166    -8.6684066096
  116      H      13.6867005491     7.2316730027    -9.0133020964
  117      C      12.2272837194     7.1242002530    -7.4388015814
  118      H      12.8276620343     6.4752935573    -6.8139582961
  119      C      10.9833482313     7.5362028080    -6.9897729634
  120      H      10.6218749801     7.2075396338    -6.0236854728
  121      C       5.7551031014     7.7737082613    -3.6853447656
  122      H       5.9709793699     8.8052934662    -3.4095863038
  123      H       5.9686632190     7.1492285339    -2.8147161139
  124      H       4.6812057075     7.7020028861    -3.8735422373
  125      C       7.0270670507     4.2314097452    -7.0151951792
  126      H       7.7221644916     4.0416082301    -7.8324653792
  127      H       7.2155960026     3.4824713394    -6.2428171720
  128      H       6.0185453346     4.0471917440    -7.3936977649
 ----------------------------------------------------------------

   14   -2927.8939067972      6.71E-10 Convergence criterion met
 Total energy in the final basis set = -2927.89390680
 Final energy is   -2927.89390679721
 **  OPTIMIZATION CONVERGED  **

                    Orbital Energies (a.u.)
 --------------------------------------------------------------

 Alpha MOs
 -- Occupied --
-14.670 -14.670 -10.492 -10.492 -10.492 -10.491 -10.486 -10.485
-10.467 -10.466 -10.466 -10.466 -10.465 -10.465 -10.465 -10.465
-10.465 -10.464 -10.463 -10.463 -10.462 -10.462 -10.462 -10.462
-10.462 -10.461 -10.459 -10.459 -10.459 -10.458 -10.457 -10.457
-10.456 -10.455 -10.455 -10.455 -10.455 -10.455 -10.449 -10.449
-10.448 -10.448 -10.448 -10.448 -10.448 -10.448 -10.447 -10.447
-10.446 -10.446 -10.446 -10.446 -10.445 -10.445 -10.444 -10.444
-10.443 -10.443 -10.442 -10.441 -10.438 -10.437 -10.437 -10.437
-10.437 -10.436 -10.436 -10.436 -10.428 -10.427 -10.427 -10.427
-10.423 -10.422  -6.952  -6.951  -1.081  -1.080  -1.018  -1.018
 -0.966  -0.962  -0.961  -0.961  -0.961  -0.960  -0.940  -0.940
 -0.934  -0.933  -0.911  -0.903  -0.874  -0.874  -0.865  -0.860
 -0.856  -0.854  -0.851  -0.851  -0.847  -0.847  -0.839  -0.839
 -0.838  -0.837  -0.824  -0.815  -0.813  -0.807  -0.800  -0.800
 -0.769  -0.769  -0.765  -0.765  -0.736  -0.730  -0.727  -0.721
 -0.709  -0.709  -0.704  -0.704  -0.689  -0.683  -0.682  -0.681
 -0.680  -0.676  -0.669  -0.667  -0.651  -0.649  -0.646  -0.645
 -0.640  -0.638  -0.607  -0.606  -0.596  -0.595  -0.591  -0.588
 -0.588  -0.587  -0.584  -0.576  -0.574  -0.562  -0.561  -0.552
 -0.552  -0.545  -0.544  -0.542  -0.542  -0.538  -0.528  -0.525
 -0.522  -0.521  -0.517  -0.511  -0.510  -0.509  -0.503  -0.499
 -0.499  -0.497  -0.497  -0.495  -0.495  -0.491  -0.487  -0.487
 -0.486  -0.484  -0.483  -0.482  -0.481  -0.481  -0.479  -0.478
 -0.472  -0.472  -0.471  -0.467  -0.466  -0.466  -0.462  -0.461
 -0.461  -0.454  -0.446  -0.443  -0.440  -0.440  -0.440  -0.440
 -0.435  -0.428  -0.428  -0.426  -0.425  -0.425  -0.423  -0.422
 -0.419  -0.412  -0.412  -0.411  -0.407  -0.405  -0.401  -0.401
 -0.398  -0.397  -0.396  -0.396  -0.396  -0.394  -0.392  -0.391
 -0.388  -0.387  -0.382  -0.371  -0.361  -0.359  -0.355  -0.354
 -0.347  -0.343  -0.322  -0.316  -0.305  -0.304  -0.301  -0.301
 -0.297  -0.297  -0.296  -0.296  -0.287  -0.285  -0.283  -0.278
 -0.277  -0.264  -0.260  -0.258  -0.223  -0.222

          Ground-State Mulliken Net Atomic Charges

     Atom                 Charge (a.u.)
  ----------------------------------------
      1 N                    -0.673548
      2 C                     0.310550
      3 C                    -0.298921
      4 H                     0.254979
      5 C                    -0.234455
      6 H                     0.241308
      7 C                    -0.263617
      8 H                     0.238439
      9 C                    -0.234783
     10 H                     0.242066
     11 C                    -0.302147
     12 H                     0.258763
     13 C                     0.290547
     14 C                    -0.289544
     15 H                     0.253563
     16 C                    -0.234817
     17 H                     0.240497
     18 C                    -0.259785
     19 H                     0.240054
     20 C                    -0.236818
     21 H                     0.243189
     22 C                    -0.289219
     23 H                     0.258364
     24 C                     0.290710
     25 C                    -0.366009
     26 H                     0.245456
     27 C                     0.049955
     28 C                    -0.366873
     29 H                     0.244866
     30 C                     0.051452
     31 C                    -0.220766
     32 C                    -0.769619
     33 H                     0.250941
     34 H                     0.248530
     35 H                     0.249515
     36 C                    -0.772466
     37 H                     0.252021
     38 H                     0.248648
     39 H                     0.248412
     40 B                     0.699629
     41 C                    -0.153608
     42 C                    -0.388398
     43 H                     0.244458
     44 C                     0.081027
     45 C                     0.088032
     46 C                    -0.393814
     47 H                     0.242745
     48 C                    -0.154094
     49 C                     0.183809
     50 C                    -0.388422
     51 H                     0.242892
     52 C                    -0.064300
     53 C                     0.226645
     54 C                     0.183098
     55 C                    -0.392479
     56 H                     0.244244
     57 C                    -0.227075
     58 H                     0.250814
     59 C                    -0.344050
     60 H                     0.247754
     61 C                    -0.345172
     62 H                     0.247909
     63 C                    -0.226123
     64 H                     0.251273
     65 C                    -0.153992
     66 C                    -0.390233
     67 H                     0.243835
     68 C                     0.078984
     69 C                     0.092285
     70 C                    -0.395076
     71 H                     0.242504
     72 C                    -0.153015
     73 C                     0.179270
     74 C                    -0.386300
     75 H                     0.244953
     76 C                    -0.062535
     77 C                     0.228363
     78 C                     0.179503
     79 C                    -0.389631
     80 H                     0.244277
     81 C                    -0.227702
     82 H                     0.251500
     83 C                    -0.344407
     84 H                     0.247495
     85 C                    -0.346385
     86 H                     0.247699
     87 C                    -0.226512
     88 H                     0.250841
     89 B                     0.699142
     90 C                    -0.212712
     91 C                     0.053791
     92 C                    -0.368333
     93 H                     0.246190
     94 C                     0.302409
     95 C                    -0.376913
     96 H                     0.246327
     97 C                     0.044481
     98 N                    -0.672556
     99 C                     0.289425
    100 C                    -0.289614
    101 H                     0.257663
    102 C                    -0.236963
    103 H                     0.243279
    104 C                    -0.259091
    105 H                     0.240301
    106 C                    -0.236074
    107 H                     0.242700
    108 C                    -0.288615
    109 H                     0.254619
    110 C                     0.298565
    111 C                    -0.296671
    112 H                     0.257848
    113 C                    -0.235784
    114 H                     0.242522
    115 C                    -0.261472
    116 H                     0.239173
    117 C                    -0.235401
    118 H                     0.240937
    119 C                    -0.292788
    120 H                     0.256200
    121 C                    -0.776349
    122 H                     0.253091
    123 H                     0.250703
    124 H                     0.249651
    125 C                    -0.766066
    126 H                     0.249927
    127 H                     0.247717
    128 H                     0.246791
  ----------------------------------------
  Sum of atomic charges =     0.000000

                    Cartesian Multipole Moments
 -----------------------------------------------------------------
    Charge (ESU x 10^10)
                 0.0000
    Dipole Moment (Debye)
         X       0.0787      Y      -1.0297      Z      -1.2494
       Tot       1.6209
    Quadrupole Moments (Debye-Ang)
        XX    -374.7342     XY     -11.5399     YY    -424.3853
        XZ      14.2602     YZ     -23.6899     ZZ    -391.0995

 Total job time:  63089.78s(wall), 155004.31s(cpu)
        *  Thank you very much for using Q-Chem.  Have a nice day.  *
