 Q-Chem 5.0, Q-Chem, Inc., Pleasanton, CA (2017)
 Q-Chem 5.0.1 for Intel X86 EM64T Linux

User input:
--------------------------------------------------------------
$rem
threads 4
jobtype	opt
method PBEh-3c
basis def2-mSVP
mem_static	1024
mem_total	4000
sym_ignore	true
scf_convergence	9
solvent_method	pcm
$end

$molecule
read gsopt.mol
$end

$solvent
dielectric	1.0001
$end

$pcm
theory iefpcm
$end
--------------------------------------------------------------

   17   -2927.8693198147      7.42E-10 Convergence criterion met
 Total energy in the final basis set = -2927.86931981
   15   -2927.8691143517      4.67E-10 Convergence criterion met
 Total energy in the final basis set = -2927.86911435
   15   -2927.8684685985      5.81E-10 Convergence criterion met
 Total energy in the final basis set = -2927.86846860
   14   -2927.8677959126      6.45E-10 Convergence criterion met
 Total energy in the final basis set = -2927.86779591
   13   -2927.8678769508      9.26E-10 Convergence criterion met
 Total energy in the final basis set = -2927.86787695
   13   -2927.8679704065      9.35E-10 Convergence criterion met
 Total energy in the final basis set = -2927.86797041
   13   -2927.8679041943      4.51E-10 Convergence criterion met
 Total energy in the final basis set = -2927.86790419
   12   -2927.8678631780      5.76E-10 Convergence criterion met
   12   -2927.8678208650      7.95E-10 Convergence criterion met
 Total energy in the final basis set = -2927.86782087
   13   -2927.8677741016      5.84E-10 Convergence criterion met
 Total energy in the final basis set = -2927.86777410
   11   -2927.8678117111      7.79E-10 Convergence criterion met
 Total energy in the final basis set = -2927.86781171
   11   -2927.8678376948      7.83E-10 Convergence criterion met
 Total energy in the final basis set = -2927.86783769
   12   -2927.8678433054      5.11E-10 Convergence criterion met
 Total energy in the final basis set = -2927.86784331
   10   -2927.8678364645      9.06E-10 Convergence criterion met
 Total energy in the final basis set = -2927.86783646

             Standard Nuclear Orientation (Angstroms)
    I     Atom           X                Y                Z
 ----------------------------------------------------------------
    1      N      -0.1079584558     0.4211889398     0.2835227162
    2      C      -0.0927039443     0.4336409011     1.6848074694
    3      C       1.1172747875     0.4343473140     2.3795549549
    4      H       2.0503484248     0.4177022038     1.8315893643
    5      C       1.1268650253     0.4561676177     3.7638246882
    6      H       2.0749423694     0.4572723852     4.2858837566
    7      C      -0.0607021871     0.4583730978     4.4809639448
    8      H      -0.0485336943     0.4669426048     5.5624164134
    9      C      -1.2643470148     0.4509209025     3.7915258560
   10      H      -2.2007943448     0.4616410099     4.3342429897
   11      C      -1.2859929493     0.4497223438     2.4074934553
   12      H      -2.2326012711     0.4613141587     1.8829519496
   13      C      -1.0998249474    -0.2801247250    -0.4211067553
   14      C      -1.7035170426     0.2934576401    -1.5398225985
   15      H      -1.4158593639     1.2892141239    -1.8517340771
   16      C      -2.6636360757    -0.4052254862    -2.2519905088
   17      H      -3.1199579335     0.0538507876    -3.1196550327
   18      C      -3.0536246928    -1.6754886618    -1.8540347071
   19      H      -3.8078841526    -2.2162468541    -2.4098184603
   20      C      -2.4620513580    -2.2441906786    -0.7356480919
   21      H      -2.7485820208    -3.2383804825    -0.4177707183
   22      C      -1.4861216703    -1.5612419130    -0.0288594847
   23      H      -1.0185794817    -2.0228398346     0.8313658936
   24      C       0.8545368289     1.1462145474    -0.4474454789
   25      C       1.1505189313     2.4645947313    -0.1235224348
   26      H       0.6429471330     2.9355131564     0.7102238678
   27      C       2.0762725919     3.1830042839    -0.8683788882
   28      C       1.4979259356     0.5475925650    -1.5240427039
   29      H       1.2705011241    -0.4823044853    -1.7743471967
   30      C       2.4111791409     1.2582055193    -2.2890922253
   31      C       2.7089244233     2.5876910756    -1.9649078974
   32      C       3.0804888224     0.5989578893    -3.4631451060
   33      H       2.7447712375    -0.4293779277    -3.5934434817
   34      H       4.1662621620     0.5779326250    -3.3478507549
   35      H       2.8701135853     1.1313301800    -4.3934576082
   36      C       2.3727902049     4.6161249901    -0.5266397846
   37      H       1.8467993193     4.9354679533     0.3723168360
   38      H       3.4403340813     4.7718982519    -0.3570506789
   39      H       2.0759285644     5.2870314744    -1.3363491787
   40      B       3.6964293295     3.4119566627    -2.8618471873
   41      C       3.1487880695     4.1637942450    -4.1059512767
   42      C       1.8048598134     4.0371030782    -4.4600080188
   43      H       1.1350137162     3.4580302764    -3.8338484696
   44      C       1.3431971199     4.6204698085    -5.6237121762
   45      C       2.2138415210     5.3729981163    -6.4429866365
   46      C       3.5369249495     5.5396400125    -6.0760681240
   47      H       4.2085038579     6.1269525745    -6.6928613166
   48      C       4.0210178512     4.9242033371    -4.9182888396
   49      C       0.0307549583     4.5752250846    -6.2677425061
   50      C      -1.1738583418     3.9860453938    -5.9844907950
   51      H      -1.3280855374     3.4048145306    -5.0837551201
   52      C       0.1566257534     5.3043051120    -7.4631928409
   53      C      -0.8677768484     5.4629463308    -8.3916964939
   54      C       1.4586027590     5.8144476591    -7.6202354362
   55      C       1.7433743766     6.5220627891    -8.7591738739
   56      H       2.7273426385     6.9335298455    -8.9460699686
   57      C      -2.2374861868     4.1374930107    -6.9057079184
   58      H      -3.1872894284     3.6697350146    -6.6814783247
   59      C      -2.1030167858     4.8490912011    -8.0741802690
   60      H      -2.9413065804     4.9335789344    -8.7550482797
   61      C      -0.5475239409     6.2014972977    -9.5554584219
   62      H      -1.2974025287     6.3621369640   -10.3205201112
   63      C       0.7198105312     6.7081002158    -9.7193460003
   64      H       0.9501994538     7.2658867502   -10.6176564114
   65      C       5.2205327152     3.4134217491    -2.5718064886
   66      C       5.7323144311     2.6075840408    -1.5537109703
   67      H       5.0517276628     2.0394202388    -0.9287099831
   68      C       7.0998204744     2.4999368295    -1.3834281479
   69      C       7.9810056417     3.2269398694    -2.2124303459
   70      C       7.4792415089     4.0728347987    -3.1872098177
   71      H       8.1513508472     4.6449306490    -3.8175534373
   72      C       6.0993479197     4.1612928657    -3.3902400032
   73      C       7.8933718419     1.6496738192    -0.5000409433
   74      C       7.6044987948     0.7097884647     0.4527142133
   75      H       6.5859333761     0.4814132043     0.7414139552
   76      C       9.2384667077     1.8806565181    -0.8389162030
   77      C      10.3108029974     1.1990701928    -0.2772053571
   78      C       9.3483911682     2.8328727737    -1.8698234734
   79      C      10.5944172545     3.1269433123    -2.3534861048
   80      H      10.7430978899     3.8389120865    -3.1556067556
   81      C       8.6765408544     0.0120322277     1.0556527088
   82      H       8.4510949699    -0.7335814931     1.8068556901
   83      C       9.9886204843     0.2372767539     0.7107787455
   84      H      10.7754273545    -0.3321990250     1.1898149930
   85      C      11.5883630779     1.5273642075    -0.7899539869
   86      H      12.4717589768     1.0360299969    -0.4014694472
   87      C      11.7098344299     2.4613125920    -1.7920148297
   88      H      12.6946751554     2.6924595198    -2.1759222327
   89      B       5.5250307064     5.0346979600    -4.5437748265
   90      C       6.4503860178     6.0255854021    -5.3295029129
   91      C       7.1569099135     5.6223774065    -6.4672223051
   92      C       7.9613801718     6.5307721111    -7.1414550298
   93      H       8.4976331621     6.2181124713    -8.0298627631
   94      C       8.0909810421     7.8395806046    -6.6895841164
   95      C       7.3833592298     8.2414374958    -5.5619966021
   96      H       7.4786798282     9.2603656107    -5.2063220840
   97      C       6.5581030099     7.3504556579    -4.8916537817
   98      N       8.9247017301     8.7462398119    -7.3698002733
   99      C       8.4760580649    10.0543198865    -7.6143504122
  100      C       9.3292584390    11.1426813054    -7.4390808847
  101      H      10.3476770176    10.9779222711    -7.1111817568
  102      C       8.8757363744    12.4288309755    -7.6802660403
  103      H       9.5495394874    13.2637819048    -7.5381585267
  104      C       7.5661049323    12.6531816761    -8.0790045638
  105      H       7.2130532651    13.6600589448    -8.2567160564
  106      C       6.7138366106    11.5712446910    -8.2459005763
  107      H       5.6908616213    11.7304094487    -8.5617172657
  108      C       7.1635842825    10.2803870727    -8.0264835029
  109      H       6.4959308355     9.4405398438    -8.1705556434
  110      C      10.1862166254     8.3307552519    -7.8205704999
  111      C      10.6617088447     8.7342532000    -9.0675245240
  112      H      10.0510495399     9.3712916631    -9.6942366661
  113      C      11.9083114486     8.3203334869    -9.5058605732
  114      H      12.2619396187     8.6425647421   -10.4767661884
  115      C      12.6920918278     7.4852789898    -8.7237215014
  116      H      13.6618322796     7.1581165447    -9.0738046775
  117      C      12.2159689822     7.0746859859    -7.4869766727
  118      H      12.8181550144     6.4281243970    -6.8617794421
  119      C      10.9794766978     7.4982693462    -7.0312134578
  120      H      10.6213150298     7.1822129296    -6.0599949001
  121      C       5.7771094547     7.8001013535    -3.6883554660
  122      H       5.9949020938     8.8347648523    -3.4260285628
  123      H       5.9984616459     7.1857775097    -2.8125798458
  124      H       4.7018153236     7.7263954134    -3.8671685960
  125      C       7.0093394399     4.2172683934    -6.9840413435
  126      H       7.6963049613     4.0129330642    -7.8046834207
  127      H       7.2008341334     3.4766532935    -6.2044817843
  128      H       5.9968752953     4.0329978112    -7.3517009160
 ----------------------------------------------------------------

   10   -2927.8678313681      6.23E-10 Convergence criterion met
 Total energy in the final basis set = -2927.86783137
 Final energy is   -2927.86783136809
 **  OPTIMIZATION CONVERGED  **

                    Orbital Energies (a.u.)
 --------------------------------------------------------------

 Alpha MOs
 -- Occupied --
-14.667 -14.667 -10.489 -10.488 -10.488 -10.488 -10.482 -10.482
-10.466 -10.466 -10.465 -10.465 -10.465 -10.465 -10.464 -10.464
-10.463 -10.463 -10.463 -10.463 -10.463 -10.462 -10.462 -10.462
-10.461 -10.461 -10.461 -10.460 -10.460 -10.460 -10.455 -10.454
-10.454 -10.453 -10.453 -10.452 -10.452 -10.451 -10.447 -10.447
-10.447 -10.447 -10.447 -10.447 -10.446 -10.446 -10.445 -10.445
-10.443 -10.443 -10.443 -10.443 -10.442 -10.442 -10.442 -10.441
-10.441 -10.441 -10.441 -10.439 -10.435 -10.435 -10.434 -10.434
-10.434 -10.434 -10.433 -10.433 -10.428 -10.428 -10.427 -10.426
-10.420 -10.418  -6.949  -6.948  -1.078  -1.077  -1.017  -1.016
 -0.964  -0.960  -0.959  -0.959  -0.958  -0.958  -0.938  -0.938
 -0.934  -0.934  -0.910  -0.902  -0.873  -0.872  -0.863  -0.858
 -0.855  -0.852  -0.849  -0.849  -0.848  -0.847  -0.837  -0.836
 -0.836  -0.834  -0.822  -0.815  -0.813  -0.805  -0.798  -0.798
 -0.768  -0.768  -0.764  -0.763  -0.736  -0.731  -0.728  -0.721
 -0.708  -0.707  -0.702  -0.702  -0.690  -0.682  -0.680  -0.680
 -0.679  -0.674  -0.667  -0.666  -0.650  -0.649  -0.644  -0.644
 -0.638  -0.637  -0.605  -0.605  -0.596  -0.595  -0.594  -0.590
 -0.586  -0.586  -0.585  -0.577  -0.575  -0.561  -0.560  -0.551
 -0.550  -0.545  -0.544  -0.540  -0.540  -0.538  -0.529  -0.526
 -0.520  -0.519  -0.516  -0.509  -0.509  -0.508  -0.504  -0.499
 -0.497  -0.497  -0.496  -0.494  -0.494  -0.490  -0.486  -0.485
 -0.485  -0.483  -0.483  -0.482  -0.481  -0.480  -0.480  -0.477
 -0.473  -0.471  -0.470  -0.469  -0.466  -0.465  -0.463  -0.459
 -0.459  -0.455  -0.446  -0.442  -0.441  -0.440  -0.440  -0.437
 -0.432  -0.426  -0.425  -0.424  -0.424  -0.423  -0.422  -0.421
 -0.418  -0.411  -0.411  -0.410  -0.405  -0.404  -0.400  -0.400
 -0.399  -0.396  -0.396  -0.396  -0.395  -0.394  -0.392  -0.391
 -0.386  -0.385  -0.380  -0.369  -0.358  -0.357  -0.352  -0.352
 -0.344  -0.341  -0.319  -0.314  -0.301  -0.301  -0.297  -0.297
 -0.296  -0.295  -0.293  -0.292  -0.284  -0.282  -0.281  -0.275
 -0.274  -0.263  -0.257  -0.256  -0.219  -0.218

          Ground-State Mulliken Net Atomic Charges

     Atom                 Charge (a.u.)
  ----------------------------------------
      1 N                    -0.674754
      2 C                     0.310294
      3 C                    -0.282042
      4 H                     0.240393
      5 C                    -0.212199
      6 H                     0.217588
      7 C                    -0.240252
      8 H                     0.216188
      9 C                    -0.212823
     10 H                     0.219254
     11 C                    -0.287611
     12 H                     0.246564
     13 C                     0.290144
     14 C                    -0.271731
     15 H                     0.237802
     16 C                    -0.211898
     17 H                     0.215407
     18 C                    -0.237117
     19 H                     0.217441
     20 C                    -0.215008
     21 H                     0.220335
     22 C                    -0.275631
     23 H                     0.245421
     24 C                     0.289905
     25 C                    -0.353190
     26 H                     0.232202
     27 C                     0.061258
     28 C                    -0.353036
     29 H                     0.231658
     30 C                     0.059053
     31 C                    -0.223099
     32 C                    -0.759940
     33 H                     0.239400
     34 H                     0.244976
     35 H                     0.246590
     36 C                    -0.762820
     37 H                     0.240563
     38 H                     0.244662
     39 H                     0.244118
     40 B                     0.702189
     41 C                    -0.152363
     42 C                    -0.384355
     43 H                     0.232516
     44 C                     0.094255
     45 C                     0.102231
     46 C                    -0.390391
     47 H                     0.230709
     48 C                    -0.151659
     49 C                     0.197756
     50 C                    -0.378505
     51 H                     0.215984
     52 C                    -0.062393
     53 C                     0.250641
     54 C                     0.197098
     55 C                    -0.383671
     56 H                     0.217922
     57 C                    -0.203973
     58 H                     0.226044
     59 C                    -0.333022
     60 H                     0.220839
     61 C                    -0.334366
     62 H                     0.221003
     63 C                    -0.203120
     64 H                     0.226842
     65 C                    -0.151763
     66 C                    -0.386411
     67 H                     0.231519
     68 C                     0.092685
     69 C                     0.106237
     70 C                    -0.390167
     71 H                     0.229873
     72 C                    -0.151969
     73 C                     0.193057
     74 C                    -0.377069
     75 H                     0.218673
     76 C                    -0.060699
     77 C                     0.252430
     78 C                     0.193683
     79 C                    -0.380521
     80 H                     0.217590
     81 C                    -0.204936
     82 H                     0.227129
     83 C                    -0.333408
     84 H                     0.220749
     85 C                    -0.335608
     86 H                     0.220887
     87 C                    -0.203322
     88 H                     0.226246
     89 B                     0.702758
     90 C                    -0.214573
     91 C                     0.059529
     92 C                    -0.355447
     93 H                     0.233678
     94 C                     0.300814
     95 C                    -0.362858
     96 H                     0.233456
     97 C                     0.057890
     98 N                    -0.673747
     99 C                     0.290320
    100 C                    -0.275665
    101 H                     0.244531
    102 C                    -0.215045
    103 H                     0.220338
    104 C                    -0.236792
    105 H                     0.217720
    106 C                    -0.213894
    107 H                     0.219056
    108 C                    -0.272811
    109 H                     0.239589
    110 C                     0.297828
    111 C                    -0.281528
    112 H                     0.245138
    113 C                    -0.213922
    114 H                     0.219686
    115 C                    -0.238422
    116 H                     0.216715
    117 C                    -0.212883
    118 H                     0.216363
    119 C                    -0.276323
    120 H                     0.241575
    121 C                    -0.767123
    122 H                     0.241340
    123 H                     0.246771
    124 H                     0.246277
    125 C                    -0.756455
    126 H                     0.238892
    127 H                     0.244090
    128 H                     0.241974
  ----------------------------------------
  Sum of atomic charges =    -0.000000

                    Cartesian Multipole Moments
 -----------------------------------------------------------------
    Charge (ESU x 10^10)
                -0.0000
    Dipole Moment (Debye)
         X       0.1016      Y      -0.7882      Z      -0.9471
       Tot       1.2364
    Quadrupole Moments (Debye-Ang)
        XX    -387.6963     XY      -9.0020     YY    -428.2479
        XZ      12.1760     YZ     -19.8935     ZZ    -401.7612

 Total job time:  54127.10s(wall), 129107.60s(cpu)
        *  Thank you very much for using Q-Chem.  Have a nice day.  *
