 Q-Chem 5.0, Q-Chem, Inc., Pleasanton, CA (2017)
 Q-Chem 5.0.1 for Intel X86 EM64T Linux

User input:
--------------------------------------------------------------
$rem
threads 4
jobtype	opt
method PBEh-3c
basis def2-mSVP
mem_static	1024
mem_total	4000
sym_ignore	true
scf_convergence	9
solvent_method	pcm
$end

$molecule
read gsopt.mol
$end

$solvent
dielectric	8.93
$end

$pcm
theory iefpcm
$end
--------------------------------------------------------------

   16   -2927.9023702267      8.98E-10 Convergence criterion met
 Total energy in the final basis set = -2927.90237023
   15   -2927.9024148031      4.16E-10 Convergence criterion met
 Total energy in the final basis set = -2927.90241480
   15   -2927.9018546252      5.34E-10 Convergence criterion met
 Total energy in the final basis set = -2927.90185463
   15   -2927.9010785828      4.11E-10 Convergence criterion met
 Total energy in the final basis set = -2927.90107858
   15   -2927.9010198607      3.95E-10 Convergence criterion met
 Total energy in the final basis set = -2927.90101986
   15   -2927.9011383998      3.95E-10 Convergence criterion met
 Total energy in the final basis set = -2927.90113840
   14   -2927.9011003456      8.95E-10 Convergence criterion met
 Total energy in the final basis set = -2927.90110035
   14   -2927.9010377244      9.03E-10 Convergence criterion met
   14   -2927.9010346950      8.43E-10 Convergence criterion met
 Total energy in the final basis set = -2927.90103470
   14   -2927.9010372013      8.48E-10 Convergence criterion met
 Total energy in the final basis set = -2927.90103720
   14   -2927.9010400470      8.38E-10 Convergence criterion met
 Total energy in the final basis set = -2927.90104005
   14   -2927.9010368160      8.34E-10 Convergence criterion met
 Total energy in the final basis set = -2927.90103682
   14   -2927.9010277285      8.43E-10 Convergence criterion met
 Total energy in the final basis set = -2927.90102773
   14   -2927.9010263463      8.78E-10 Convergence criterion met
 Total energy in the final basis set = -2927.90102635

             Standard Nuclear Orientation (Angstroms)
    I     Atom           X                Y                Z
 ----------------------------------------------------------------
    1      N      -0.1174539543     0.4639270449     0.3082366814
    2      C      -0.0998678144     0.4883681934     1.7092654109
    3      C       1.1124430304     0.4764257961     2.4019699067
    4      H       2.0461494618     0.4376869297     1.8554819179
    5      C       1.1260849241     0.5110909984     3.7872105817
    6      H       2.0759181231     0.5012226842     4.3064700518
    7      C      -0.0606703190     0.5394454727     4.5077896989
    8      H      -0.0457748145     0.5579666179     5.5893961124
    9      C      -1.2670261088     0.5446835716     3.8203406684
   10      H      -2.2023878044     0.5758941429     4.3646528945
   11      C      -1.2916528562     0.5303458369     2.4351707874
   12      H      -2.2411435210     0.5530083046     1.9157180034
   13      C      -1.1261862086    -0.2197708401    -0.3914350898
   14      C      -1.7261372417     0.3645402008    -1.5075296699
   15      H      -1.4267652674     1.3555804701    -1.8247008641
   16      C      -2.7041039463    -0.3175616933    -2.2141718944
   17      H      -3.1571044819     0.1502564565    -3.0791765351
   18      C      -3.1144855952    -1.5816606040    -1.8126415882
   19      H      -3.8822066148    -2.1090342177    -2.3634355828
   20      C      -2.5254073479    -2.1612858007    -0.6968515498
   21      H      -2.8271235492    -3.1504534116    -0.3765402781
   22      C      -1.5323809834    -1.4946231478     0.0038760487
   23      H      -1.0685791370    -1.9677485522     0.8602436572
   24      C       0.8533746964     1.1724753342    -0.4298524883
   25      C       1.1519279503     2.4958469199    -0.1279571078
   26      H       0.6422281088     2.9869107795     0.6931527921
   27      C       2.0832719234     3.1985971281    -0.8825528697
   28      C       1.4999790635     0.5513381229    -1.4920743547
   29      H       1.2730270385    -0.4828488811    -1.7258686874
   30      C       2.4198785825     1.2454372142    -2.2661048372
   31      C       2.7190377878     2.5806006360    -1.9654289261
   32      C       3.0909680669     0.5606033487    -3.4245586306
   33      H       2.7486739576    -0.4676499472    -3.5372506907
   34      H       4.1760150794     0.5346877558    -3.3031390445
   35      H       2.8888799150     1.0775610983    -4.3654754766
   36      C       2.3801365212     4.6371376820    -0.5638292088
   37      H       1.8433425363     4.9733911289     0.3225174206
   38      H       3.4460437044     4.7934510061    -0.3841912179
   39      H       2.0952541415     5.2940089847    -1.3893088745
   40      B       3.7075512839     3.3878027591    -2.8772245265
   41      C       3.1568023078     4.1236826177    -4.1307232801
   42      C       1.8131844443     3.9864222428    -4.4843250697
   43      H       1.1415138931     3.4106373080    -3.8572834653
   44      C       1.3488971540     4.5574793862    -5.6542136547
   45      C       2.2164882846     5.3082483832    -6.4801838877
   46      C       3.5393906309     5.4853208117    -6.1141195024
   47      H       4.2042848890     6.0706494201    -6.7397920724
   48      C       4.0258249818     4.8819934443    -4.9503248281
   49      C       0.0361568276     4.5013504242    -6.2969477803
   50      C      -1.1670342362     3.9092457413    -6.0071906160
   51      H      -1.3190834394     3.3340976956    -5.1019617512
   52      C       0.1594615203     5.2227595196    -7.4980299931
   53      C      -0.8672631443     5.3720604773    -8.4269762722
   54      C       1.4593846815     5.7380174630    -7.6604796361
   55      C       1.7415508348     6.4409578311    -8.8046092906
   56      H       2.7234816200     6.8563039346    -8.9944873339
   57      C      -2.2322593928     4.0511790611    -6.9297202481
   58      H      -3.1801616634     3.5815024772    -6.7010289281
   59      C      -2.1012678339     4.7560410575    -8.1044692767
   60      H      -2.9400154174     4.8336203134    -8.7857977611
   61      C      -0.5515619503     6.1052420071    -9.5965595488
   62      H      -1.3037442067     6.2580390759   -10.3611661069
   63      C       0.7149528241     6.6165427784    -9.7650096250
   64      H       0.9422199137     7.1701719263   -10.6668181765
   65      C       5.2341428118     3.3865550221    -2.5968059255
   66      C       5.7511386238     2.5835785906    -1.5781494570
   67      H       5.0780740562     2.0206256590    -0.9405870238
   68      C       7.1205989876     2.4686454651    -1.4210461158
   69      C       7.9983554172     3.1856038755    -2.2641094780
   70      C       7.4917883255     4.0318039007    -3.2373650379
   71      H       8.1655264758     4.5934560711    -3.8751613526
   72      C       6.1099307981     4.1274631933    -3.4266372797
   73      C       7.9176730888     1.6170433323    -0.5419979002
   74      C       7.6317342010     0.6831104025     0.4193249449
   75      H       6.6149476903     0.4642173101     0.7219347053
   76      C       9.2607101754     1.8366036270    -0.8988283192
   77      C      10.3350985530     1.1479873455    -0.3472813014
   78      C       9.3668275303     2.7831397277    -1.9360932254
   79      C      10.6097704791     3.0650579243    -2.4384545339
   80      H      10.7544596264     3.7717940668    -3.2461767240
   81      C       8.7068724031    -0.0207212442     1.0121046315
   82      H       8.4844338078    -0.7611947400     1.7694154259
   83      C      10.0178275969     0.1922850388     0.6495818461
   84      H      10.8067083759    -0.3813012690     1.1205050663
   85      C      11.6100218182     1.4624507841    -0.8778442573
   86      H      12.4934349336     0.9643231241    -0.4978114489
   87      C      11.7267830646     2.3914680156    -1.8871546761
   88      H      12.7084985653     2.6120381563    -2.2853191368
   89      B       5.5288346913     5.0051188601    -4.5747017676
   90      C       6.4465950362     6.0152422179    -5.3454848969
   91      C       7.1647800310     5.6341204820    -6.4841721983
   92      C       7.9693842346     6.5586683125    -7.1378368878
   93      H       8.5121670207     6.2599362253    -8.0273629279
   94      C       8.0873845443     7.8614177480    -6.6643140460
   95      C       7.3661391192     8.2422467783    -5.5373719930
   96      H       7.4508195979     9.2554154216    -5.1622520075
   97      C       6.5402569494     7.3350395933    -4.8873492480
   98      N       8.9231237907     8.7835862737    -7.3217064372
   99      C       8.4649296713    10.0909661029    -7.5573616414
  100      C       9.3004767302    11.1864125024    -7.3409702144
  101      H      10.3117706269    11.0314185177    -6.9863120218
  102      C       8.8382814522    12.4723438986    -7.5739086935
  103      H       9.4982426566    13.3125599148    -7.3996851528
  104      C       7.5361963165    12.6879390063    -8.0054895243
  105      H       7.1760729483    13.6936499109    -8.1773321603
  106      C       6.7008117776    11.5981476205    -8.2128384448
  107      H       5.6848908692    11.7500029133    -8.5546976507
  108      C       7.1605562323    10.3081010813    -8.0011038270
  109      H       6.5047057992     9.4649308227    -8.1792696380
  110      C      10.1936447325     8.3839195772    -7.7626722838
  111      C      10.6804762354     8.8071195880    -8.9995937514
  112      H      10.0737135462     9.4461800333    -9.6285387217
  113      C      11.9361357451     8.4077699725    -9.4295645255
  114      H      12.2978154920     8.7448791097   -10.3927102846
  115      C      12.7180127145     7.5680178574    -8.6482278449
  116      H      13.6942964121     7.2521903339    -8.9914274726
  117      C      12.2307458397     7.1381902049    -7.4208646798
  118      H      12.8301691595     6.4882272254    -6.7961564771
  119      C      10.9847909017     7.5473593557    -6.9739757288
  120      H      10.6220292337     7.2149213257    -6.0095878259
  121      C       5.7452571383     7.7651436261    -3.6856104068
  122      H       5.9616321077     8.7950060699    -3.4038939263
  123      H       5.9537639744     7.1360928495    -2.8170164333
  124      H       4.6720268881     7.6959826286    -3.8786411371
  125      C       7.0328802090     4.2367525009    -7.0256521108
  126      H       7.7310083475     4.0517664133    -7.8414087892
  127      H       7.2201623596     3.4850223389    -6.2556687979
  128      H       6.0258727546     4.0530259282    -7.4084170829
 ----------------------------------------------------------------

   14   -2927.9010263690      8.65E-10 Convergence criterion met
 Total energy in the final basis set = -2927.90102637
 Final energy is   -2927.90102636903
 **  OPTIMIZATION CONVERGED  **

                    Orbital Energies (a.u.)
 --------------------------------------------------------------

 Alpha MOs
 -- Occupied --
-14.671 -14.671 -10.494 -10.493 -10.493 -10.493 -10.487 -10.487
-10.468 -10.468 -10.467 -10.466 -10.466 -10.466 -10.466 -10.466
-10.465 -10.465 -10.464 -10.464 -10.463 -10.463 -10.462 -10.462
-10.462 -10.462 -10.459 -10.459 -10.459 -10.459 -10.458 -10.458
-10.457 -10.457 -10.457 -10.457 -10.457 -10.456 -10.450 -10.449
-10.449 -10.449 -10.449 -10.449 -10.449 -10.449 -10.449 -10.448
-10.447 -10.447 -10.447 -10.447 -10.446 -10.446 -10.445 -10.445
-10.444 -10.444 -10.443 -10.442 -10.439 -10.439 -10.439 -10.438
-10.438 -10.438 -10.438 -10.438 -10.428 -10.428 -10.428 -10.428
-10.424 -10.423  -6.953  -6.952  -1.082  -1.082  -1.019  -1.019
 -0.967  -0.963  -0.962  -0.962  -0.962  -0.962  -0.941  -0.941
 -0.934  -0.934  -0.912  -0.904  -0.875  -0.875  -0.866  -0.861
 -0.857  -0.855  -0.852  -0.852  -0.848  -0.847  -0.840  -0.839
 -0.839  -0.838  -0.825  -0.816  -0.814  -0.808  -0.801  -0.801
 -0.771  -0.770  -0.766  -0.766  -0.737  -0.731  -0.728  -0.722
 -0.710  -0.710  -0.705  -0.705  -0.690  -0.684  -0.683  -0.682
 -0.681  -0.676  -0.670  -0.668  -0.652  -0.650  -0.647  -0.647
 -0.641  -0.639  -0.608  -0.607  -0.597  -0.596  -0.591  -0.589
 -0.589  -0.588  -0.584  -0.576  -0.575  -0.563  -0.562  -0.553
 -0.553  -0.546  -0.545  -0.543  -0.543  -0.539  -0.529  -0.525
 -0.523  -0.522  -0.518  -0.511  -0.511  -0.510  -0.504  -0.500
 -0.499  -0.498  -0.498  -0.496  -0.496  -0.492  -0.489  -0.488
 -0.487  -0.484  -0.484  -0.483  -0.482  -0.482  -0.480  -0.479
 -0.473  -0.472  -0.472  -0.468  -0.467  -0.466  -0.463  -0.462
 -0.462  -0.455  -0.447  -0.444  -0.441  -0.441  -0.441  -0.440
 -0.436  -0.430  -0.429  -0.427  -0.426  -0.426  -0.424  -0.422
 -0.420  -0.413  -0.412  -0.412  -0.408  -0.407  -0.402  -0.402
 -0.398  -0.398  -0.397  -0.397  -0.397  -0.394  -0.393  -0.391
 -0.389  -0.388  -0.383  -0.373  -0.362  -0.361  -0.356  -0.355
 -0.348  -0.345  -0.323  -0.318  -0.306  -0.306  -0.302  -0.302
 -0.298  -0.298  -0.297  -0.297  -0.289  -0.286  -0.285  -0.279
 -0.279  -0.265  -0.261  -0.259  -0.224  -0.223

          Ground-State Mulliken Net Atomic Charges

     Atom                 Charge (a.u.)
  ----------------------------------------
      1 N                    -0.673256
      2 C                     0.310448
      3 C                    -0.303519
      4 H                     0.258660
      5 C                    -0.240055
      6 H                     0.247587
      7 C                    -0.269553
      8 H                     0.244364
      9 C                    -0.240247
     10 H                     0.248066
     11 C                    -0.305829
     12 H                     0.261447
     13 C                     0.290491
     14 C                    -0.294456
     15 H                     0.257758
     16 C                    -0.240688
     17 H                     0.247415
     18 C                    -0.265432
     19 H                     0.246022
     20 C                    -0.242229
     21 H                     0.249117
     22 C                    -0.292616
     23 H                     0.261164
     24 C                     0.291123
     25 C                    -0.368594
     26 H                     0.248424
     27 C                     0.046994
     28 C                    -0.369843
     29 H                     0.247902
     30 C                     0.049968
     31 C                    -0.220086
     32 C                    -0.771878
     33 H                     0.254245
     34 H                     0.248916
     35 H                     0.249591
     36 C                    -0.774530
     37 H                     0.255218
     38 H                     0.249134
     39 H                     0.248953
     40 B                     0.698138
     41 C                    -0.153965
     42 C                    -0.389225
     43 H                     0.248304
     44 C                     0.076683
     45 C                     0.083514
     46 C                    -0.394531
     47 H                     0.246506
     48 C                    -0.154977
     49 C                     0.179416
     50 C                    -0.390705
     51 H                     0.250552
     52 C                    -0.065500
     53 C                     0.219077
     54 C                     0.178610
     55 C                    -0.394259
     56 H                     0.251445
     57 C                    -0.233142
     58 H                     0.257596
     59 C                    -0.346303
     60 H                     0.255201
     61 C                    -0.347387
     62 H                     0.255363
     63 C                    -0.232131
     64 H                     0.257835
     65 C                    -0.154722
     66 C                    -0.390997
     67 H                     0.247589
     68 C                     0.074558
     69 C                     0.087779
     70 C                    -0.396273
     71 H                     0.246492
     72 C                    -0.153319
     73 C                     0.174849
     74 C                    -0.388242
     75 H                     0.252104
     76 C                    -0.063733
     77 C                     0.220836
     78 C                     0.175007
     79 C                    -0.391522
     80 H                     0.251689
     81 C                    -0.233632
     82 H                     0.258035
     83 C                    -0.346705
     84 H                     0.254909
     85 C                    -0.348589
     86 H                     0.255119
     87 C                    -0.232569
     88 H                     0.257524
     89 B                     0.697195
     90 C                    -0.212248
     91 C                     0.053194
     92 C                    -0.370883
     93 H                     0.249139
     94 C                     0.303263
     95 C                    -0.380450
     96 H                     0.249230
     97 C                     0.040483
     98 N                    -0.672260
     99 C                     0.289024
    100 C                    -0.293130
    101 H                     0.260529
    102 C                    -0.242387
    103 H                     0.249275
    104 C                    -0.264591
    105 H                     0.246281
    106 C                    -0.241643
    107 H                     0.248916
    108 C                    -0.292933
    109 H                     0.258489
    110 C                     0.298368
    111 C                    -0.300396
    112 H                     0.260615
    113 C                    -0.241263
    114 H                     0.248505
    115 C                    -0.267189
    116 H                     0.245166
    117 C                    -0.241003
    118 H                     0.247604
    119 C                    -0.296945
    120 H                     0.259746
    121 C                    -0.778204
    122 H                     0.256382
    123 H                     0.251097
    124 H                     0.249930
    125 C                    -0.768298
    126 H                     0.253046
    127 H                     0.248144
    128 H                     0.247703
  ----------------------------------------
  Sum of atomic charges =     0.000000

                    Cartesian Multipole Moments
 -----------------------------------------------------------------
    Charge (ESU x 10^10)
                 0.0000
    Dipole Moment (Debye)
         X       0.0731      Y      -1.1108      Z      -1.3627
       Tot       1.7595
    Quadrupole Moments (Debye-Ang)
        XX    -370.2965     XY     -12.2001     YY    -423.2810
        XZ      14.5955     YZ     -25.0737     ZZ    -387.4919

 Total job time:  86134.47s(wall), 196397.76s(cpu)
        *  Thank you very much for using Q-Chem.  Have a nice day.  *
