 Q-Chem 5.1, Q-Chem, Inc., Pleasanton, CA (2018)
 Q-Chem 5.1.1 for Intel X86 EM64T Linux

User input:
--------------------------------------------------------------
$rem
threads 8
jobtype	opt
method PBEh-3c
basis def2-mSVP
mem_static	512
mem_total	6096
sym_ignore	true
$end

$molecule
read gsopt5.mol
$end

--------------------------------------------------------------

   15   -2280.7104089204      6.05e-09  Convergence criterion met
 Total energy in the final basis set =    -2280.7104089204
   12   -2280.7119560690      6.71e-09  Convergence criterion met
 Total energy in the final basis set =    -2280.7119560690
   12   -2280.7125949485      6.12e-09  Convergence criterion met
 Total energy in the final basis set =    -2280.7125949485
   12   -2280.7130603725      4.88e-09  Convergence criterion met
 Total energy in the final basis set =    -2280.7130603725
   12   -2280.7130707330      4.95e-09  Convergence criterion met
 Total energy in the final basis set =    -2280.7130707330
   12   -2280.7129580089      5.80e-09  Convergence criterion met
 Total energy in the final basis set =    -2280.7129580089
   11   -2280.7136250432      8.84e-09  Convergence criterion met
 Total energy in the final basis set =    -2280.7136250432
   10   -2280.7137513508      5.79e-09  Convergence criterion met
   10   -2280.7137222991      7.38e-09  Convergence criterion met
 Total energy in the final basis set =    -2280.7137222991
    9   -2280.7137333161      6.33e-09  Convergence criterion met
 Total energy in the final basis set =    -2280.7137333161
    9   -2280.7137109887      9.43e-09  Convergence criterion met
 Total energy in the final basis set =    -2280.7137109887
    9   -2280.7137217826      5.60e-09  Convergence criterion met
 Total energy in the final basis set =    -2280.7137217826
    8   -2280.7137155934      8.84e-09  Convergence criterion met
 Total energy in the final basis set =    -2280.7137155934
    8   -2280.7137073163      9.22e-09  Convergence criterion met
 Total energy in the final basis set =    -2280.7137073163

             Standard Nuclear Orientation (Angstroms)
    I     Atom           X                Y                Z
 ----------------------------------------------------------------
    1      C       0.0426110761     0.5513107090     0.0841671675
    2      C       0.0415449899     0.4065559333     1.4774458958
    3      H       0.9782536289     0.2338488312     1.9960473896
    4      C      -1.1485302670     0.4699204325     2.1826577496
    5      C      -2.3574251487     0.6940077282     1.4899719396
    6      C      -2.3698379974     0.8332622475     0.1157309159
    7      H      -3.3045345980     0.9911329620    -0.4118257175
    8      C      -1.1774093501     0.7566237788    -0.6036593055
    9      C      -3.4525354294     0.6997540797     2.4524255628
   10      C      -4.8111469853     0.8514085112     2.3672309880
   11      H      -5.3095959442     1.0275902573     1.4217866003
   12      C      -2.8697536198     0.4690362655     3.7096471966
   13      C      -3.5936185390     0.3753317202     4.8918865321
   14      C      -1.4728331262     0.3220390271     3.6052732193
   15      C      -0.7657872440     0.0697554046     4.7495150766
   16      H       0.3089263253    -0.0607237635     4.7403018105
   17      C      -5.5730975184     0.7683761884     3.5551784165
   18      H      -6.6469206077     0.8875329611     3.4913579244
   19      C      -4.9965524297     0.5375338932     4.7821618953
   20      H      -5.6199268011     0.4766098265     5.6657512512
   21      C      -2.8364095545     0.1173557935     6.0583870326
   22      H      -3.3300897233     0.0298370357     7.0183156914
   23      C      -1.4716853606    -0.0277852421     5.9732352124
   24      H      -0.9099049539    -0.2279739471     6.8759591173
   25      B      -1.2034513480     0.8613204242    -2.1549860215
   26      B       1.3770908679     0.4681021288    -0.7144941834
   27      C       0.1365440255     0.7951236660    -2.9413682535
   28      C       0.1241997241     0.8942584783    -4.3323852175
   29      H      -0.8141091422     1.0383824170    -4.8556965705
   30      C       1.3048538740     0.7944917720    -5.0391542933
   31      C       2.5323116074     0.5906164878    -4.3735241508
   32      C       2.5547853522     0.4995078510    -2.9927478715
   33      H       3.4896256930     0.3401765808    -2.4672475514
   34      C       1.3628116319     0.5992047195    -2.2649713548
   35      C       1.5543681846     0.8287246076    -6.4772535741
   36      C       0.7725366962     0.9758201212    -7.5928898868
   37      H      -0.2983223839     1.1234176940    -7.5255270086
   38      C       2.9370609435     0.6368385795    -6.6381064453
   39      C       3.5722597667     0.5792427835    -7.8742212229
   40      C       3.5816946432     0.4885277209    -5.3953459154
   41      C       4.9344833009     0.2756177963    -5.3950904602
   42      H       5.4924750758     0.1475038075    -4.4762711502
   43      C       1.3921808971     0.9266997256    -8.8635181920
   44      H       0.7757258975     1.0415338523    -9.7456815387
   45      C       2.7452338982     0.7341902407    -9.0133655179
   46      H       3.1779063594     0.6984668906   -10.0057822886
   47      C       5.6133545164     0.2170121735    -6.6364531045
   48      H       6.6821275166     0.0478041233    -6.6303914179
   49      C       4.9693547793     0.3606749465    -7.8424844746
   50      H       5.5316780782     0.3026724413    -8.7664245405
   51      C       2.7296032840     0.2472388756     0.0457305764
   52      C       3.4545990265     1.3377801397     0.5230573766
   53      C       4.6485819518     1.1444801347     1.2157800451
   54      H       5.1918822269     2.0141760667     1.5651454620
   55      C       5.1288095363    -0.1398073966     1.4334372905
   56      O       6.2716716969    -0.4254394749     2.0934912974
   57      C       4.4173853187    -1.2300924741     0.9397361533
   58      H       4.8127670869    -2.2276067789     1.0962047885
   59      C       3.2303695130    -1.0469166071     0.2510737783
   60      C       7.0130746407     0.6345463419     2.6324256679
   61      H       7.8724229101     0.1918754336     3.1320002640
   62      H       6.4417990520     1.2095562379     3.3689326484
   63      H       7.3771270850     1.3233731308     1.8629019452
   64      C       2.4803978870    -2.2545261526    -0.2567315539
   65      H       3.1949395097    -2.9987767019    -0.6183634536
   66      H       1.8753717881    -1.9849905013    -1.1277898659
   67      C       2.9589355088     2.7463353559     0.3079325595
   68      H       3.8011349050     3.3905126939     0.0402862057
   69      H       2.2838137332     2.7817267993    -0.5528041677
   70      C       1.5826804082    -2.8946707619     0.7993728956
   71      H       0.8089860090    -2.2047725858     1.1352805567
   72      H       1.0844604041    -3.7787799094     0.3998419376
   73      H       2.1583370261    -3.2018886469     1.6730238896
   74      C       2.2490131368     3.3282899581     1.5276356586
   75      H       1.3560748539     2.7559936585     1.7765910069
   76      H       2.9000424494     3.3269493041     2.4027159911
   77      H       1.9398084187     4.3576995513     1.3432295693
   78      C      -2.5579008206     0.9771604251    -2.9499402204
   79      C      -3.2598452624    -0.1761477030    -3.3039717247
   80      C      -4.4196071425    -0.0958836404    -4.0736617150
   81      H      -4.9267601944    -1.0154751183    -4.3405577263
   82      C      -4.8953941844     1.1344749556    -4.5001892700
   83      O      -6.0020997598     1.3068080805    -5.2540223225
   84      C      -4.2005653334     2.2889896095    -4.1523867429
   85      H      -4.5715285528     3.2484391656    -4.4950244661
   86      C      -3.0471971286     2.2174161240    -3.3906915070
   87      C      -6.7371377765     0.1731979520    -5.6299297125
   88      H      -7.5788755813     0.5294910294    -6.2203142202
   89      H      -6.1515974188    -0.5188874821    -6.2443143344
   90      H      -7.1267742675    -0.3757695613    -4.7662254963
   91      C      -2.7979301173    -1.5464665841    -2.8727651723
   92      H      -2.8086917003    -2.2194327527    -3.7349512120
   93      H      -1.7565361886    -1.5162446838    -2.5413540713
   94      C      -2.3531912679     3.4988358008    -3.0080151142
   95      H      -2.4050877434     4.2075952237    -3.8385141136
   96      H      -1.2875274763     3.3183799016    -2.8392936484
   97      C      -2.9654134442     4.1344132663    -1.7623458437
   98      H      -2.8892695951     3.4690422644    -0.9023747113
   99      H      -4.0216956764     4.3574224442    -1.9165040845
  100      H      -2.4586178510     5.0655525800    -1.5073583642
  101      C      -3.6604700039    -2.1387874551    -1.7613156562
  102      H      -3.6265002337    -1.5204006760    -0.8644539477
  103      H      -3.3168948518    -3.1371701909    -1.4889394653
  104      H      -4.7037719126    -2.2185497757    -2.0693934003
 ----------------------------------------------------------------

    8   -2280.7137097811      5.28e-09  Convergence criterion met
 Total energy in the final basis set =    -2280.7137097811
 Final energy is   -2280.71370978107
 **  OPTIMIZATION CONVERGED  **

                    Orbital Energies (a.u.)
 --------------------------------------------------------------

 Alpha MOs
 -- Occupied --
-19.523 -19.522 -10.499 -10.498 -10.489 -10.488 -10.463 -10.463
-10.463 -10.461 -10.461 -10.461 -10.461 -10.461 -10.460 -10.460
-10.459 -10.459 -10.459 -10.458 -10.458 -10.458 -10.458 -10.458
-10.456 -10.456 -10.456 -10.455 -10.452 -10.450 -10.449 -10.447
-10.446 -10.446 -10.446 -10.445 -10.444 -10.442 -10.434 -10.433
-10.432 -10.431 -10.431 -10.430 -10.430 -10.430 -10.428 -10.427
-10.426 -10.426 -10.420 -10.418 -10.418 -10.416 -10.414 -10.411
 -6.945  -6.943  -1.180  -1.179  -1.014  -1.012  -0.960  -0.956
 -0.952  -0.951  -0.932  -0.930  -0.906  -0.897  -0.886  -0.885
 -0.864  -0.861  -0.852  -0.850  -0.846  -0.843  -0.822  -0.820
 -0.816  -0.811  -0.809  -0.801  -0.798  -0.798  -0.773  -0.772
 -0.732  -0.727  -0.723  -0.717  -0.710  -0.709  -0.699  -0.699
 -0.687  -0.678  -0.677  -0.662  -0.656  -0.645  -0.645  -0.642
 -0.627  -0.627  -0.593  -0.590  -0.590  -0.586  -0.583  -0.582
 -0.581  -0.572  -0.572  -0.560  -0.559  -0.541  -0.541  -0.534
 -0.533  -0.533  -0.525  -0.521  -0.511  -0.507  -0.502  -0.502
 -0.500  -0.499  -0.497  -0.491  -0.488  -0.487  -0.486  -0.484
 -0.481  -0.480  -0.479  -0.478  -0.478  -0.477  -0.476  -0.465
 -0.461  -0.459  -0.458  -0.452  -0.452  -0.447  -0.444  -0.443
 -0.437  -0.437  -0.429  -0.424  -0.422  -0.420  -0.418  -0.417
 -0.413  -0.411  -0.407  -0.404  -0.398  -0.397  -0.396  -0.393
 -0.391  -0.391  -0.389  -0.389  -0.388  -0.385  -0.382  -0.380
 -0.375  -0.366  -0.360  -0.360  -0.357  -0.352  -0.351  -0.347
 -0.336  -0.334  -0.314  -0.309  -0.293  -0.291  -0.277  -0.271
 -0.271  -0.259  -0.254  -0.252  -0.248  -0.245

          Ground-State Mulliken Net Atomic Charges

     Atom                 Charge (a.u.)
  ----------------------------------------
      1 C                    -0.139716
      2 C                    -0.414424
      3 H                     0.247358
      4 C                     0.113475
      5 C                     0.094102
      6 C                    -0.408692
      7 H                     0.237283
      8 C                    -0.135840
      9 C                     0.193236
     10 C                    -0.379435
     11 H                     0.220667
     12 C                    -0.063291
     13 C                     0.253773
     14 C                     0.195751
     15 C                    -0.390940
     16 H                     0.220973
     17 C                    -0.205375
     18 H                     0.226433
     19 C                    -0.333177
     20 H                     0.219735
     21 C                    -0.338126
     22 H                     0.220037
     23 C                    -0.202157
     24 H                     0.225951
     25 B                     0.660771
     26 B                     0.662196
     27 C                    -0.155205
     28 C                    -0.378656
     29 H                     0.233140
     30 C                     0.088370
     31 C                     0.109525
     32 C                    -0.387698
     33 H                     0.231919
     34 C                    -0.158942
     35 C                     0.195187
     36 C                    -0.379069
     37 H                     0.220876
     38 C                    -0.062817
     39 C                     0.252223
     40 C                     0.196120
     41 C                    -0.387753
     42 H                     0.220242
     43 C                    -0.205535
     44 H                     0.225487
     45 C                    -0.332943
     46 H                     0.218854
     47 C                    -0.202488
     48 H                     0.225132
     49 C                    -0.337551
     50 H                     0.219280
     51 C                    -0.227716
     52 C                     0.088153
     53 C                    -0.431738
     54 H                     0.221898
     55 C                     0.402171
     56 O                    -0.453924
     57 C                    -0.380102
     58 H                     0.219117
     59 C                     0.083709
     60 C                    -0.405839
     61 H                     0.238649
     62 H                     0.202911
     63 H                     0.202698
     64 C                    -0.553471
     65 H                     0.232400
     66 H                     0.252364
     67 C                    -0.555394
     68 H                     0.229855
     69 H                     0.255117
     70 C                    -0.643823
     71 H                     0.242055
     72 H                     0.217058
     73 H                     0.216001
     74 C                    -0.642437
     75 H                     0.244447
     76 H                     0.210908
     77 H                     0.218314
     78 C                    -0.229255
     79 C                     0.077792
     80 C                    -0.427296
     81 H                     0.222439
     82 C                     0.402922
     83 O                    -0.454069
     84 C                    -0.373007
     85 H                     0.219035
     86 C                     0.081806
     87 C                    -0.405983
     88 H                     0.238994
     89 H                     0.203230
     90 H                     0.203194
     91 C                    -0.551054
     92 H                     0.231221
     93 H                     0.256075
     94 C                    -0.548317
     95 H                     0.230919
     96 H                     0.251142
     97 C                    -0.639757
     98 H                     0.235150
     99 H                     0.216989
    100 H                     0.217936
    101 C                    -0.636558
    102 H                     0.235581
    103 H                     0.219195
    104 H                     0.210030
  ----------------------------------------
  Sum of atomic charges =    -0.000000

                    Cartesian Multipole Moments
 -----------------------------------------------------------------
    Charge (ESU x 10^10)
                -0.0000
    Dipole Moment (Debye)
         X      -0.3563      Y      -0.3583      Z       0.3345
       Tot       0.6060
    Quadrupole Moments (Debye-Ang)
        XX    -291.0008     XY      11.7064     YY    -339.9937
        XZ       1.9292     YZ       6.8154     ZZ    -290.9713

 Total job time:  15072.13s(wall), 116051.73s(cpu)
        *  Thank you very much for using Q-Chem.  Have a nice day.  *
