 Q-Chem 5.1, Q-Chem, Inc., Pleasanton, CA (2018)
 Q-Chem 5.1.1 for Intel X86 EM64T Linux

User input:
--------------------------------------------------------------
$rem
threads 8
jobtype	opt
method PBEh-3c
basis def2-mSVP
mem_static	512
mem_total	6096
sym_ignore	true
$end

$molecule
read gsopt7.mol
$end

--------------------------------------------------------------

   15   -2280.7080764442      6.71e-09  Convergence criterion met
 Total energy in the final basis set =    -2280.7080764442
   12   -2280.7099883634      6.52e-09  Convergence criterion met
 Total energy in the final basis set =    -2280.7099883634
   12   -2280.7105799266      6.28e-09  Convergence criterion met
 Total energy in the final basis set =    -2280.7105799266
   12   -2280.7104269345      5.36e-09  Convergence criterion met
 Total energy in the final basis set =    -2280.7104269345
   12   -2280.7109211947      5.19e-09  Convergence criterion met
 Total energy in the final basis set =    -2280.7109211947
   11   -2280.7111458549      9.04e-09  Convergence criterion met
 Total energy in the final basis set =    -2280.7111458549
   10   -2280.7112856538      7.02e-09  Convergence criterion met
 Total energy in the final basis set =    -2280.7112856538
    9   -2280.7112760342      9.65e-09  Convergence criterion met
 Total energy in the final basis set =    -2280.7112760342
    9   -2280.7112927432      6.84e-09  Convergence criterion met
 Total energy in the final basis set =    -2280.7112927432
    9   -2280.7113019730      5.51e-09  Convergence criterion met
 Total energy in the final basis set =    -2280.7113019730

             Standard Nuclear Orientation (Angstroms)
    I     Atom           X                Y                Z
 ----------------------------------------------------------------
    1      C       0.0356521585    -0.4311249002     0.0841860902
    2      C       0.0343552053    -0.4327630654     1.4849165675
    3      H       0.9781474147    -0.4579805777     2.0188513647
    4      C      -1.1635421458    -0.4048718905     2.1795296153
    5      C      -2.3819273560    -0.3757848787     1.4662889479
    6      C      -2.3939651919    -0.3762550676     0.0853435885
    7      H      -3.3342475620    -0.3588807684    -0.4556852290
    8      C      -1.1917244302    -0.4012044375    -0.6207619748
    9      C      -1.4854385715    -0.4046421748     3.6109482068
   10      C      -0.7686897260    -0.4288167399     4.7770349006
   11      H       0.3137439774    -0.4540202699     4.7832592372
   12      C      -2.8914728960    -0.3742810008     3.6975698556
   13      C      -3.6142204330    -0.3664751983     4.8840674835
   14      C      -3.4828469617    -0.3550175259     2.4223220354
   15      C      -4.8487351994    -0.3247850367     2.3216846478
   16      H      -5.3521378957    -0.3082163054     1.3626507821
   17      C      -1.4746021438    -0.4215197381     6.0046559251
   18      H      -0.9054843112    -0.4411446013     6.9246526797
   19      C      -2.8476348661    -0.3912714925     6.0728152748
   20      H      -3.3401929296    -0.3871345419     7.0372964524
   21      C      -5.0248379414    -0.3355174850     4.7580164850
   22      H      -5.6476492682    -0.3277299189     5.6440790571
   23      C      -5.6097749364    -0.3152563068     3.5133513876
   24      H      -6.6892541902    -0.2913503693     3.4389929781
   25      B       1.3768455753    -0.4747885000    -0.7057723827
   26      B      -1.2140469653    -0.4038216492    -2.1757590775
   27      C       0.1307585660    -0.3937432736    -2.9539609593
   28      C       0.1187709220    -0.3681407033    -4.3482487455
   29      H      -0.8266789239    -0.3460548228    -4.8794388340
   30      C       1.3090951220    -0.3765573053    -5.0462773802
   31      C       2.5449889715    -0.4186052620    -4.3652892142
   32      C       2.5651176028    -0.4484915529    -2.9818230039
   33      H       3.5080375623    -0.4884946175    -2.4483061864
   34      C       1.3639947311    -0.4314340663    -2.2626784196
   35      C       3.6107246806    -0.4328301500    -5.3749448630
   36      C       4.9794101560    -0.4763795534    -5.3577702105
   37      H       5.5392393605    -0.5080687935    -4.4315765179
   38      C       2.9654031876    -0.3976638204    -6.6268111812
   39      C       3.6169564818    -0.4041475154    -7.8555686810
   40      C       1.5673010196    -0.3619937033    -6.4836678765
   41      C       0.7864777507    -0.3294828106    -7.6096368511
   42      H      -0.2950330491    -0.3016609913    -7.5563363829
   43      C       5.6736336311    -0.4824841414    -6.5922100303
   44      H       6.7549886700    -0.5171301015    -6.5739168344
   45      C       5.0298475595    -0.4480414195    -7.8065583577
   46      H       5.6054356650    -0.4559283288    -8.7240878260
   47      C       1.4229170652    -0.3335225747    -8.8728976507
   48      H       0.8076942311    -0.3078606512    -9.7630214436
   49      C       2.7908781833    -0.3699442666    -9.0056808749
   50      H       3.2361814236    -0.3731518684    -9.9931227967
   51      C      -2.5748954263    -0.4397908936    -2.9645688098
   52      C      -3.1443659399    -1.6642060567    -3.3211180055
   53      C      -4.3335464606    -1.7052399265    -4.0455455166
   54      H      -4.7587773891    -2.6628423045    -4.3111362566
   55      C      -4.9607479416    -0.5256451326    -4.4194985004
   56      O      -6.1134047909    -0.4668517395    -5.1218410057
   57      C      -4.3992828633     0.6977681544    -4.0677805262
   58      H      -4.9091503954     1.6022042491    -4.3732612402
   59      C      -3.2184038933     0.7480269502    -3.3473796991
   60      C      -6.7256528555    -1.6677897806    -5.5071106770
   61      H      -7.6264624431    -1.3968164491    -6.0541009237
   62      H      -6.0887669027    -2.2690127448    -6.1647627434
   63      H      -7.0137121291    -2.2834830297    -4.6484120423
   64      C      -2.5884164867     2.0649459135    -2.9607866269
   65      H      -1.5747920601     2.0991637303    -3.3748877221
   66      H      -2.4562489298     2.0799861396    -1.8737255150
   67      C      -2.4407608104    -2.9381335344    -2.9097280926
   68      H      -1.4217010168    -2.9155313628    -3.3105889040
   69      H      -2.3237094479    -2.9333707272    -1.8209799118
   70      C      -3.3321809541     3.3209063063    -3.3836207599
   71      H      -2.7926225284     4.2076209629    -3.0523216487
   72      H      -3.4330895023     3.3867914802    -4.4675501756
   73      H      -4.3320879203     3.3657772755    -2.9503096366
   74      C      -3.0948953233    -4.2463323508    -3.3244219265
   75      H      -2.5000763428    -5.0898176200    -2.9751166939
   76      H      -3.1770978768    -4.3347998841    -4.4085001822
   77      H      -4.0937512258    -4.3561603991    -2.8997215790
   78      C       2.7374519309    -0.5918938423     0.0625821964
   79      C       3.4835495037     0.5401874455     0.3901447408
   80      C       4.6864004936     0.4166856805     1.0829611102
   81      H       5.2434312433     1.3156353317     1.3179678276
   82      C       5.1572395505    -0.8379567357     1.4475223485
   83      O       6.3099798003    -1.0559090674     2.1161026849
   84      C       4.4254910883    -1.9706177482     1.1032568397
   85      H       4.8146555943    -2.9470647033     1.3697132127
   86      C       3.2280698069    -1.8567233155     0.4176666053
   87      C       7.0935428217     0.0502603503     2.4720363883
   88      H       7.9654365993    -0.3400568708     2.9930284665
   89      H       7.4353895171     0.6164520911     1.5993194432
   90      H       6.5661688399     0.7352616070     3.1442513911
   91      C       2.9915944016     1.9177647219     0.0234228209
   92      H       3.8443191329     2.5543924233    -0.2275086223
   93      H       2.3843915061     1.8712585710    -0.8856767436
   94      C       2.4660789586    -3.1105049373     0.0597338842
   95      H       3.1664012148    -3.8633259383    -0.3123509903
   96      H       1.7839362551    -2.9148286793    -0.7733449227
   97      C       1.6747457872    -3.6954552880     1.2261283632
   98      H       0.9107350704    -3.0015636212     1.5750941085
   99      H       2.3258176233    -3.9270818690     2.0696375928
  100      H       1.1722333411    -4.6168004056     0.9295204267
  101      C       2.1813938425     2.5779373305     1.1366018442
  102      H       1.2778612206     2.0111453949     1.3592500764
  103      H       1.8760160627     3.5853154651     0.8515372322
  104      H       2.7627533083     2.6511230403     2.0562734848
 ----------------------------------------------------------------

    9   -2280.7113029296      5.04e-09  Convergence criterion met
 Total energy in the final basis set =    -2280.7113029296
 Final energy is   -2280.71130292958
 **  OPTIMIZATION CONVERGED  **

                    Orbital Energies (a.u.)
 --------------------------------------------------------------

 Alpha MOs
 -- Occupied --
-19.522 -19.521 -10.498 -10.496 -10.488 -10.487 -10.463 -10.462
-10.462 -10.462 -10.462 -10.461 -10.461 -10.460 -10.460 -10.460
-10.459 -10.459 -10.459 -10.459 -10.458 -10.458 -10.458 -10.457
-10.457 -10.457 -10.457 -10.456 -10.451 -10.449 -10.449 -10.447
-10.447 -10.446 -10.446 -10.445 -10.444 -10.443 -10.433 -10.433
-10.432 -10.431 -10.431 -10.430 -10.429 -10.429 -10.429 -10.428
-10.426 -10.424 -10.424 -10.420 -10.418 -10.416 -10.411 -10.410
 -6.944  -6.944  -1.179  -1.178  -1.014  -1.012  -0.960  -0.956
 -0.951  -0.950  -0.931  -0.930  -0.906  -0.897  -0.886  -0.885
 -0.863  -0.861  -0.851  -0.850  -0.845  -0.844  -0.824  -0.820
 -0.816  -0.811  -0.809  -0.801  -0.798  -0.797  -0.774  -0.772
 -0.732  -0.726  -0.724  -0.723  -0.718  -0.710  -0.699  -0.690
 -0.687  -0.679  -0.677  -0.662  -0.657  -0.646  -0.645  -0.643
 -0.627  -0.621  -0.593  -0.591  -0.590  -0.586  -0.584  -0.582
 -0.581  -0.573  -0.572  -0.560  -0.545  -0.541  -0.541  -0.534
 -0.533  -0.532  -0.526  -0.521  -0.510  -0.509  -0.504  -0.503
 -0.502  -0.500  -0.498  -0.498  -0.491  -0.488  -0.487  -0.485
 -0.482  -0.482  -0.480  -0.479  -0.478  -0.477  -0.476  -0.472
 -0.465  -0.462  -0.457  -0.453  -0.450  -0.444  -0.442  -0.438
 -0.434  -0.429  -0.427  -0.425  -0.424  -0.422  -0.418  -0.417
 -0.412  -0.406  -0.403  -0.402  -0.400  -0.398  -0.397  -0.396
 -0.393  -0.392  -0.391  -0.391  -0.389  -0.388  -0.386  -0.380
 -0.375  -0.368  -0.362  -0.358  -0.357  -0.352  -0.349  -0.347
 -0.336  -0.334  -0.315  -0.309  -0.293  -0.292  -0.277  -0.272
 -0.271  -0.259  -0.253  -0.252  -0.246  -0.243

          Ground-State Mulliken Net Atomic Charges

     Atom                 Charge (a.u.)
  ----------------------------------------
      1 C                    -0.141097
      2 C                    -0.413761
      3 H                     0.246287
      4 C                     0.109358
      5 C                     0.090959
      6 C                    -0.389706
      7 H                     0.233984
      8 C                    -0.152696
      9 C                     0.197188
     10 C                    -0.389956
     11 H                     0.220764
     12 C                    -0.063856
     13 C                     0.252953
     14 C                     0.194343
     15 C                    -0.377135
     16 H                     0.220843
     17 C                    -0.202444
     18 H                     0.225806
     19 C                    -0.337592
     20 H                     0.219827
     21 C                    -0.332856
     22 H                     0.219514
     23 C                    -0.206257
     24 H                     0.226270
     25 B                     0.665774
     26 B                     0.703523
     27 C                    -0.154340
     28 C                    -0.384012
     29 H                     0.235784
     30 C                     0.085883
     31 C                     0.109889
     32 C                    -0.388334
     33 H                     0.231895
     34 C                    -0.160643
     35 C                     0.198252
     36 C                    -0.387351
     37 H                     0.220235
     38 C                    -0.064420
     39 C                     0.251414
     40 C                     0.196064
     41 C                    -0.378662
     42 H                     0.220660
     43 C                    -0.202807
     44 H                     0.225219
     45 C                    -0.337239
     46 H                     0.219489
     47 C                    -0.205779
     48 H                     0.225853
     49 C                    -0.332260
     50 H                     0.219096
     51 C                    -0.235424
     52 C                     0.075785
     53 C                    -0.467109
     54 H                     0.232295
     55 C                     0.437718
     56 O                    -0.455818
     57 C                    -0.405164
     58 H                     0.226616
     59 C                     0.076531
     60 C                    -0.406012
     61 H                     0.238514
     62 H                     0.202590
     63 H                     0.202708
     64 C                    -0.523382
     65 H                     0.243706
     66 H                     0.243201
     67 C                    -0.525645
     68 H                     0.246633
     69 H                     0.245410
     70 C                    -0.666150
     71 H                     0.230593
     72 H                     0.218432
     73 H                     0.218808
     74 C                    -0.667457
     75 H                     0.233409
     76 H                     0.215738
     77 H                     0.215382
     78 C                    -0.226188
     79 C                     0.089127
     80 C                    -0.430594
     81 H                     0.221355
     82 C                     0.402542
     83 O                    -0.453931
     84 C                    -0.380621
     85 H                     0.219420
     86 C                     0.080728
     87 C                    -0.405557
     88 H                     0.238684
     89 H                     0.202674
     90 H                     0.202715
     91 C                    -0.552096
     92 H                     0.227021
     93 H                     0.252954
     94 C                    -0.555682
     95 H                     0.234363
     96 H                     0.253835
     97 C                    -0.641798
     98 H                     0.242006
     99 H                     0.215521
    100 H                     0.216655
    101 C                    -0.643983
    102 H                     0.244415
    103 H                     0.218182
    104 H                     0.212426
  ----------------------------------------
  Sum of atomic charges =    -0.000000

                    Cartesian Multipole Moments
 -----------------------------------------------------------------
    Charge (ESU x 10^10)
                -0.0000
    Dipole Moment (Debye)
         X       0.1145      Y      -0.1091      Z       0.1321
       Tot       0.2061
    Quadrupole Moments (Debye-Ang)
        XX    -292.5405     XY      16.1315     YY    -337.0697
        XZ      -1.4617     YZ       9.4361     ZZ    -291.9099

 Total job time:  8186.29s(wall), 63070.26s(cpu)
        *  Thank you very much for using Q-Chem.  Have a nice day.  *
