 Q-Chem 5.0, Q-Chem, Inc., Pleasanton, CA (2017)
 Q-Chem 5.0.1 for Intel X86 EM64T Linux

User input:
--------------------------------------------------------------
$rem
threads 8
jobtype	opt
method PBEh-3c
basis def2-mSVP
mem_static	512
mem_total	6096
sym_ignore	true
$end

$molecule
read incoords7.mol
$end

--------------------------------------------------------------

   15   -2280.6510261200      6.91E-09 Convergence criterion met
 Total energy in the final basis set = -2280.65102612
   12   -2280.6853238064      9.25E-09 Convergence criterion met
 Total energy in the final basis set = -2280.68532381
   12   -2280.6938360665      9.01E-09 Convergence criterion met
 Total energy in the final basis set = -2280.69383607
   13   -2280.6944660211      5.91E-09 Convergence criterion met
 Total energy in the final basis set = -2280.69446602
   13   -2280.6927911693      5.94E-09 Convergence criterion met
 Total energy in the final basis set = -2280.69279117
   12   -2280.6935313794      5.67E-09 Convergence criterion met
 Total energy in the final basis set = -2280.69353138
   12   -2280.6932824130      7.72E-09 Convergence criterion met
 Total energy in the final basis set = -2280.69328241
   12   -2280.6941796332      7.42E-09 Convergence criterion met
   11   -2280.7081741189      6.52E-09 Convergence criterion met
 Total energy in the final basis set = -2280.70817412
   10   -2280.7082371063      4.66E-09 Convergence criterion met
 Total energy in the final basis set = -2280.70823711
   10   -2280.7082738742      6.34E-09 Convergence criterion met
 Total energy in the final basis set = -2280.70827387
   10   -2280.7082461540      5.67E-09 Convergence criterion met
 Total energy in the final basis set = -2280.70824615
    9   -2280.7082236602      9.91E-09 Convergence criterion met
 Total energy in the final basis set = -2280.70822366
    9   -2280.7081993324      5.64E-09 Convergence criterion met
 Total energy in the final basis set = -2280.70819933

             Standard Nuclear Orientation (Angstroms)
    I     Atom           X                Y                Z
 ----------------------------------------------------------------
    1      C       2.0338841118    -0.5691647647    -1.1528707605
    2      C       2.6587747452    -0.3293782657    -2.4003721046
    3      B       3.3735323295    -1.4967068489    -3.1425666524
    4      C       3.5953234036    -2.8504254008    -2.4114219729
    5      C       2.9651714538    -3.0944316595    -1.1704550774
    6      B       2.1153563449    -1.9789632129    -0.4980330044
    7      C       4.3204347885    -3.8687490623    -3.0335661337
    8      C       4.4112113971    -5.1119501468    -2.4394854431
    9      C       3.7521732142    -5.3685176052    -1.2172293108
   10      C       3.0420905767    -4.3635116884    -0.5885015546
   11      C       1.2572775133     0.4305801842    -0.5607839352
   12      C       1.1081804511     1.6531353931    -1.1898563047
   13      C       1.7612003392     1.9035599384    -2.4165788654
   14      C       2.5180578862     0.9149693769    -3.0184439534
   15      C       5.7334415566    -6.7414795401    -4.0083587978
   16      C       6.1097580967    -8.0995999813    -4.1342369305
   17      C       5.7756657496    -9.0466908439    -3.1954577416
   18      C       5.0319120916    -8.6783792205    -2.0491214640
   19      C       4.6934738591    -7.3333903637    -1.9426798851
   20      C       5.0214147631    -6.3588860150    -2.9022987838
   21      C       4.5616582208    -9.5252191523    -1.0175780129
   22      C       3.8076285453    -9.0049310858     0.0072444779
   23      C       3.4723269941    -7.6317903577     0.0829959373
   24      C       3.9219809190    -6.7893685737    -0.8996831614
   25      C       0.9422612184     5.2172743050    -4.1487614405
   26      C       1.6100082127     3.9786824720    -4.0032756302
   27      C       1.3593552816     3.2295175769    -2.8847999237
   28      C       0.4510615318     3.7241727336    -1.9314178926
   29      C      -0.2426477562     4.9211039182    -2.0615176021
   30      C       0.0404866723     5.6823213605    -3.2209733150
   31      C       0.2627481418     2.8062035648    -0.8810366654
   32      C      -0.6561698240     3.1035057897     0.0893371987
   33      C      -1.3690803177     4.3221564233    -0.0076143526
   34      C      -1.1799260458     5.2094189487    -1.0409571623
   35      C       5.1942750547    -0.7371703028    -6.4925785093
   36      C       4.9218765431    -0.8178444520    -5.1269972102
   37      C       3.7315765309    -1.3808726553    -4.6691821210
   38      C       2.8115603870    -1.8683386743    -5.6135787461
   39      C       3.0881292034    -1.7808644611    -6.9664011978
   40      C       4.2775823284    -1.2174747612    -7.4167522148
   41      C       5.9710715104    -0.3331649879    -4.1600094501
   42      C       1.5067124913    -2.5004836522    -5.1911788515
   43      O       4.4438273902    -1.1769589494    -8.7559591870
   44      C       5.6198762110    -0.6135745540    -9.2691232225
   45      C       1.1613817118    -2.4858517773     3.2068361106
   46      C       1.8819796136    -2.1576193657     2.0711561966
   47      C       1.3034567440    -2.3124968838     0.8026046136
   48      C       0.0024951197    -2.8082183803     0.6991196634
   49      C      -0.7159781924    -3.1338068792     1.8473258018
   50      C      -0.1386875723    -2.9716878303     3.0990267619
   51      C       3.2958266427    -1.6326580059     2.1483634733
   52      C      -0.5955624117    -3.0024198864    -0.6775200227
   53      O      -0.7613508292    -3.2597258717     4.2630457096
   54      C      -2.0749151186    -3.7463042706     4.2173200758
   55      H       4.7713732124    -3.6918363793    -4.0036485094
   56      H       2.5179284091    -4.5606637658     0.3403280957
   57      H       0.7434399879     0.2209959861     0.3711613788
   58      H       2.9663077019     1.0832261426    -3.9916924107
   59      H       6.0015106245    -6.0395269401    -4.7880944364
   60      H       6.6702960251    -8.4021961072    -5.0091573493
   61      H       6.0717655754   -10.0785530209    -3.3408715449
   62      H       4.7847320839   -10.5850106866    -1.0411423394
   63      H       3.4470951317    -9.6676820167     0.7831044884
   64      H       2.8612583284    -7.2785815505     0.9041097953
   65      H       1.1378580255     5.8087292654    -5.0337196148
   66      H       2.2860087471     3.6398471267    -4.7786115759
   67      H      -0.4630320502     6.6268265930    -3.3864158323
   68      H      -0.8592530938     2.4274615005     0.9105503919
   69      H      -2.0986003641     4.5552683377     0.7568338944
   70      H      -1.7605095037     6.1228091331    -1.0803432624
   71      H       6.1279554928    -0.2878569490    -6.8091377662
   72      H       2.3723454079    -2.1420976934    -7.6967978930
   73      H       6.4160249590     0.5932216450    -4.5337095405
   74      C       7.0724378082    -1.3665291553    -3.9354652917
   75      H       5.5146684249    -0.0764162698    -3.1995349982
   76      H       1.2872409927    -2.2684967442    -4.1452908518
   77      C       1.4857358693    -4.0146702394    -5.3813361779
   78      H       0.6899245985    -2.0530737397    -5.7643407251
   79      H       5.5497095886    -0.6795356057   -10.3530203698
   80      H       6.5161749373    -1.1539152418    -8.9466138013
   81      H       5.7325973287     0.4401123811    -8.9929243894
   82      H       1.5882376197    -2.3726277126     4.1949096251
   83      H      -1.7237362189    -3.5128147381     1.7507009668
   84      H       3.3309632098    -0.6554104939     1.6545433780
   85      H       3.9398954075    -2.2822867943     1.5456320896
   86      C       3.8947214075    -1.5042740752     3.5386718170
   87      H       0.0137189607    -3.7329015091    -1.2213619974
   88      H      -0.4937086761    -2.0678577230    -1.2393517912
   89      C      -2.0497413825    -3.4425945493    -0.7355138023
   90      H      -2.3837829121    -3.9067714490     5.2483232688
   91      H      -2.7671951614    -3.0348711472     3.7546880457
   92      H      -2.1492241764    -4.6985293627     3.6813065640
   93      H       2.2606125885    -4.4988976051    -4.7876137533
   94      H       1.6487156113    -4.2864873583    -6.4248320434
   95      H       0.5249151910    -4.4309790597    -5.0764133547
   96      H      -2.3763850913    -3.5193866842    -1.7722173221
   97      H      -2.2008677738    -4.4206547909    -0.2767773030
   98      H      -2.7089057029    -2.7300974196    -0.2379233155
   99      H       3.9329290400    -2.4659137276     4.0517663077
  100      H       3.3269033726    -0.8131170218     4.1625579549
  101      H       4.9145909026    -1.1260644252     3.4765260880
  102      H       6.6716147689    -2.2803244398    -3.4968686543
  103      H       7.8393998393    -0.9850040924    -3.2607063486
  104      H       7.5562751029    -1.6353814213    -4.8752972369
 ----------------------------------------------------------------

    8   -2280.7082008824      6.48E-09 Convergence criterion met
 Total energy in the final basis set = -2280.70820088
 Final energy is   -2280.70820088241
 **  OPTIMIZATION CONVERGED  **

                    Orbital Energies (a.u.)
 --------------------------------------------------------------

 Alpha MOs
 -- Occupied --
-19.522 -19.520 -10.499 -10.496 -10.489 -10.487 -10.462 -10.462
-10.462 -10.462 -10.461 -10.461 -10.460 -10.460 -10.459 -10.459
-10.459 -10.459 -10.459 -10.458 -10.458 -10.458 -10.457 -10.457
-10.457 -10.457 -10.457 -10.457 -10.449 -10.449 -10.449 -10.449
-10.447 -10.447 -10.446 -10.446 -10.444 -10.443 -10.435 -10.434
-10.432 -10.431 -10.431 -10.429 -10.429 -10.429 -10.429 -10.429
-10.426 -10.424 -10.424 -10.421 -10.420 -10.416 -10.414 -10.409
 -6.945  -6.943  -1.180  -1.178  -1.013  -1.013  -0.960  -0.956
 -0.952  -0.950  -0.931  -0.931  -0.906  -0.897  -0.886  -0.886
 -0.863  -0.861  -0.851  -0.850  -0.844  -0.844  -0.824  -0.821
 -0.817  -0.811  -0.809  -0.801  -0.798  -0.797  -0.774  -0.772
 -0.732  -0.726  -0.724  -0.723  -0.718  -0.711  -0.699  -0.690
 -0.687  -0.679  -0.677  -0.662  -0.658  -0.647  -0.644  -0.643
 -0.627  -0.621  -0.592  -0.591  -0.590  -0.587  -0.584  -0.583
 -0.581  -0.573  -0.572  -0.560  -0.545  -0.541  -0.541  -0.534
 -0.533  -0.532  -0.525  -0.521  -0.510  -0.508  -0.505  -0.503
 -0.502  -0.500  -0.499  -0.498  -0.491  -0.488  -0.487  -0.486
 -0.483  -0.482  -0.481  -0.479  -0.479  -0.478  -0.476  -0.472
 -0.465  -0.462  -0.458  -0.453  -0.450  -0.444  -0.442  -0.438
 -0.435  -0.429  -0.427  -0.425  -0.423  -0.422  -0.419  -0.417
 -0.412  -0.407  -0.403  -0.402  -0.399  -0.398  -0.397  -0.396
 -0.392  -0.392  -0.392  -0.391  -0.389  -0.387  -0.386  -0.382
 -0.375  -0.367  -0.362  -0.359  -0.358  -0.352  -0.349  -0.348
 -0.336  -0.334  -0.314  -0.309  -0.292  -0.292  -0.276  -0.272
 -0.271  -0.259  -0.253  -0.253  -0.247  -0.242

          Ground-State Mulliken Net Atomic Charges

     Atom                 Charge (a.u.)
  ----------------------------------------
      1 C                    -0.161078
      2 C                    -0.153394
      3 B                     0.655260
      4 C                    -0.142484
      5 C                    -0.153104
      6 B                     0.698478
      7 C                    -0.400650
      8 C                     0.092673
      9 C                     0.102472
     10 C                    -0.392061
     11 C                    -0.387456
     12 C                     0.096862
     13 C                     0.094604
     14 C                    -0.381329
     15 C                    -0.382688
     16 C                    -0.204108
     17 C                    -0.333312
     18 C                     0.249002
     19 C                    -0.060957
     20 C                     0.191995
     21 C                    -0.334332
     22 C                    -0.203810
     23 C                    -0.383405
     24 C                     0.195131
     25 C                    -0.204458
     26 C                    -0.377596
     27 C                     0.189849
     28 C                    -0.059470
     29 C                     0.249606
     30 C                    -0.333709
     31 C                     0.191425
     32 C                    -0.380851
     33 C                    -0.204215
     34 C                    -0.334285
     35 C                    -0.421081
     36 C                     0.096002
     37 C                    -0.226361
     38 C                     0.069673
     39 C                    -0.375506
     40 C                     0.404106
     41 C                    -0.544885
     42 C                    -0.551528
     43 O                    -0.453617
     44 C                    -0.404859
     45 C                    -0.404474
     46 C                     0.087649
     47 C                    -0.233808
     48 C                     0.072255
     49 C                    -0.470163
     50 C                     0.437036
     51 C                    -0.524872
     52 C                    -0.525876
     53 O                    -0.455596
     54 C                    -0.405935
     55 H                     0.237856
     56 H                     0.236545
     57 H                     0.234120
     58 H                     0.228018
     59 H                     0.220091
     60 H                     0.225795
     61 H                     0.219456
     62 H                     0.219650
     63 H                     0.225873
     64 H                     0.220889
     65 H                     0.225469
     66 H                     0.219388
     67 H                     0.219338
     68 H                     0.220581
     69 H                     0.225499
     70 H                     0.219335
     71 H                     0.220979
     72 H                     0.220039
     73 H                     0.226437
     74 C                    -0.639414
     75 H                     0.248600
     76 H                     0.256404
     77 C                    -0.638329
     78 H                     0.235938
     79 H                     0.238817
     80 H                     0.202129
     81 H                     0.202561
     82 H                     0.226497
     83 H                     0.231876
     84 H                     0.243200
     85 H                     0.244593
     86 C                    -0.666054
     87 H                     0.245416
     88 H                     0.247297
     89 C                    -0.666160
     90 H                     0.238545
     91 H                     0.202670
     92 H                     0.202094
     93 H                     0.241307
     94 H                     0.214917
     95 H                     0.215568
     96 H                     0.232825
     97 H                     0.213990
     98 H                     0.217276
     99 H                     0.218744
    100 H                     0.218456
    101 H                     0.230594
    102 H                     0.234738
    103 H                     0.219974
    104 H                     0.212810
  ----------------------------------------
  Sum of atomic charges =    -0.000000

                    Cartesian Multipole Moments
 -----------------------------------------------------------------
    Charge (ESU x 10^10)
                -0.0000
    Dipole Moment (Debye)
         X      -0.6040      Y      -0.2966      Z      -1.2059
       Tot       1.3809
    Quadrupole Moments (Debye-Ang)
        XX    -312.2113     XY      -5.7912     YY    -294.0794
        XZ     -29.9830     YZ      -9.1270     ZZ    -313.1504

 Total job time:  32737.09s(wall), 128060.74s(cpu)
        *  Thank you very much for using Q-Chem.  Have a nice day.  *
