 Q-Chem 5.1, Q-Chem, Inc., Pleasanton, CA (2018)
 Q-Chem 5.1.1 for Intel X86 EM64T Linux

User input:
--------------------------------------------------------------
$rem
threads 8
jobtype	opt
method PBEh-3c
basis def2-mSVP
mem_static	512
mem_total	6096
sym_ignore	true
$end

$molecule
read gsopt2.mol
$end

--------------------------------------------------------------

   15   -2280.7119826506      6.38e-09  Convergence criterion met
 Total energy in the final basis set =    -2280.7119826506
   12   -2280.7138952137      6.37e-09  Convergence criterion met
 Total energy in the final basis set =    -2280.7138952137
   12   -2280.7146559903      6.37e-09  Convergence criterion met
 Total energy in the final basis set =    -2280.7146559903
   12   -2280.7147544653      6.60e-09  Convergence criterion met
 Total energy in the final basis set =    -2280.7147544653
   12   -2280.7147342563      5.38e-09  Convergence criterion met
 Total energy in the final basis set =    -2280.7147342563
   11   -2280.7148494053      6.98e-09  Convergence criterion met
 Total energy in the final basis set =    -2280.7148494053
   11   -2280.7152038444      7.45e-09  Convergence criterion met
 Total energy in the final basis set =    -2280.7152038444
   10   -2280.7151439090      5.76e-09  Convergence criterion met
 Total energy in the final basis set =    -2280.7151439090
    9   -2280.7151452376      7.95e-09  Convergence criterion met
 Total energy in the final basis set =    -2280.7151452376
    9   -2280.7151547461      5.65e-09  Convergence criterion met
 Total energy in the final basis set =    -2280.7151547461
    8   -2280.7151510937      9.92e-09  Convergence criterion met
 Total energy in the final basis set =    -2280.7151510937
    9   -2280.7151332724      5.21e-09  Convergence criterion met
 Total energy in the final basis set =    -2280.7151332724
    7   -2280.7151271322      9.90e-09  Convergence criterion met
 Total energy in the final basis set =    -2280.7151271322

             Standard Nuclear Orientation (Angstroms)
    I     Atom           X                Y                Z
 ----------------------------------------------------------------
    1      C       0.0453481724     0.5304690652     0.1133674833
    2      C       0.0428672665     0.4292612312     1.5109749346
    3      H       0.9838909939     0.3224477629     2.0395872261
    4      C      -1.1530354121     0.4605515801     2.2081508456
    5      C      -2.3673759338     0.6002919372     1.5012189832
    6      C      -2.3772749653     0.7082904317     0.1250702653
    7      H      -3.3150553028     0.8153315990    -0.4095775852
    8      C      -1.1771915479     0.6746970790    -0.5854073877
    9      C      -1.4789631566     0.3613738305     3.6356386171
   10      C      -0.7682363473     0.2076235330     4.7954293547
   11      H       0.3118934563     0.1328240874     4.7992566391
   12      C      -2.8827448974     0.4461059377     3.7253639875
   13      C      -3.6086953065     0.3843361311     4.9083615960
   14      C      -3.4688287823     0.5938173310     2.4563550708
   15      C      -4.8319112532     0.6884973623     2.3588559146
   16      H      -5.3314381795     0.8037316889     1.4045660006
   17      C      -5.5956891346     0.6318490866     3.5473922850
   18      H      -6.6730116840     0.7065054774     3.4752873283
   19      C      -5.0164194672     0.4841042827     4.7859182747
   20      H      -5.6412031910     0.4436848036     5.6697096067
   21      C      -1.4774520148     0.1425034225     6.0194480076
   22      H      -0.9129857190     0.0201714254     6.9343774197
   23      C      -2.8481197361     0.2262760785     6.0903531614
   24      H      -3.3435676867     0.1696409702     7.0516915736
   25      B       1.3858276681     0.4805323571    -0.6800812497
   26      B      -1.1981108674     0.8047090393    -2.1358776228
   27      C       0.1475653492     0.7927755166    -2.9143107573
   28      C       0.1400075967     0.8956563252    -4.3060731613
   29      H      -0.8006908413     1.0120422344    -4.8327442975
   30      C       1.3257264507     0.8333497610    -5.0083036105
   31      C       2.5544931375     0.6630077509    -4.3345636999
   32      C       2.5709996349     0.5619884634    -2.9555248161
   33      H       3.5075138715     0.4176675761    -2.4286024515
   34      C       1.3740050306     0.6293537321    -2.2311158556
   35      C       3.6147488676     0.5973236614    -5.3470725359
   36      C       4.9735731810     0.4274034942    -5.3355422208
   37      H       5.5278380614     0.3133241007    -4.4124929953
   38      C       2.9740109175     0.7297968396    -6.5943818353
   39      C       3.6208366251     0.6965041823    -7.8252405673
   40      C       1.5837690725     0.8780519109    -6.4453819516
   41      C       0.8067831187     1.0029041690    -7.5675553722
   42      H      -0.2688754603     1.1164433901    -7.5098396470
   43      C       5.6632698736     0.3949515006    -6.5719285956
   44      H       6.7367647806     0.2595821200    -6.5586122130
   45      C       5.0240102521     0.5224552192    -7.7823947113
   46      H       5.5952505642     0.4856668815    -8.7019324990
   47      C       2.7988119544     0.8283859911    -8.9710520418
   48      H       3.2406711342     0.8094275186    -9.9598593426
   49      C       1.4389497666     0.9769129277    -8.8327424778
   50      H       0.8268333218     1.0744176079    -9.7200228516
   51      C      -2.5561783088     0.9230554732    -2.9230704759
   52      C      -3.2982062917    -0.2187309902    -3.2347148045
   53      C      -4.4825577547    -0.1229628829    -3.9634184554
   54      H      -5.0257469745    -1.0338313437    -4.1854007536
   55      C      -4.9427544687     1.1113619221    -4.3968333670
   56      O      -6.0748190747     1.2988534485    -5.1076620862
   57      C      -4.2089755095     2.2536814010    -4.0930916763
   58      H      -4.5738250952     3.2173247522    -4.4304115311
   59      C      -3.0334151813     2.1674356146    -3.3673200604
   60      C      -6.8525651293     0.1783329736    -5.4334118216
   61      H      -7.7081783648     0.5462428172    -5.9960738670
   62      H      -7.2209321649    -0.3455377562    -4.5451899092
   63      H      -6.3098800095    -0.5389026618    -6.0581360883
   64      C      -2.8086527355    -1.5964646988    -2.8670982291
   65      H      -3.6577745457    -2.2241788689    -2.5829997681
   66      H      -2.1656735960    -1.5537819102    -1.9840963231
   67      C      -2.3168931214     3.4422483513    -3.0050267270
   68      H      -1.2469656463     3.2560970297    -2.8771731735
   69      H      -2.3979270047     4.1573637769    -3.8276129163
   70      C      -2.0507129478    -2.2615227572    -4.0147577967
   71      H      -1.1697872947    -1.6824533128    -4.2919866892
   72      H      -1.7175429767    -3.2622322288    -3.7375437113
   73      H      -2.6797069116    -2.3508261872    -4.9013092321
   74      C      -2.8794133242     4.0690831900    -1.7313314886
   75      H      -2.7823613246     3.3915918253    -0.8828020423
   76      H      -3.9376985055     4.3053715844    -1.8469267061
   77      H      -2.3535990457     4.9912631962    -1.4822286827
   78      C       2.7449932812     0.2638130115     0.0679398844
   79      C       3.6045333037     1.3375291628     0.3118183310
   80      C       4.8185364559     1.1390429676     0.9664851014
   81      H       5.4559093760     1.9964067352     1.1453110583
   82      C       5.1915202761    -0.1333799344     1.3776533192
   83      O       6.3457848223    -0.4217551928     2.0150362144
   84      C       4.3410586759    -1.2072867785     1.1327153488
   85      H       4.6422772933    -2.1982127123     1.4531384638
   86      C       3.1294771383    -1.0200831897     0.4894837120
   87      C       7.2346126895     0.6262245449     2.2914693258
   88      H       8.0866343453     0.1851907078     2.8047055696
   89      H       6.7920680025     1.3861565224     2.9439628380
   90      H       7.5938956755     1.1179031391     1.3814608853
   91      C       2.2699317736    -2.2242764118     0.1948643207
   92      H       2.4286099914    -2.9820755328     0.9660673589
   93      H       1.2103959123    -1.9609789201     0.2520267355
   94      C       3.2070459029     2.7425079820    -0.0644845681
   95      H       2.6327143245     2.7390884871    -0.9948760868
   96      H       4.1022444967     3.3345557246    -0.2716481536
   97      C       2.5631549415    -2.8341122965    -1.1752407501
   98      H       2.3686883858    -2.1236495439    -1.9786227237
   99      H       3.6060582597    -3.1430118529    -1.2523404690
  100      H       1.9395326820    -3.7111746754    -1.3531059928
  101      C       2.3878237745     3.4284725358     1.0271187897
  102      H       1.4590712819     2.8921588713     1.2221044391
  103      H       2.9442423901     3.4772820926     1.9635698615
  104      H       2.1260107157     4.4466926000     0.7373190502
 ----------------------------------------------------------------

    7   -2280.7151270919      8.90e-09  Convergence criterion met
 Total energy in the final basis set =    -2280.7151270919
 Final energy is   -2280.71512709192
 **  OPTIMIZATION CONVERGED  **

                    Orbital Energies (a.u.)
 --------------------------------------------------------------

 Alpha MOs
 -- Occupied --
-19.523 -19.523 -10.499 -10.499 -10.489 -10.488 -10.462 -10.462
-10.462 -10.462 -10.462 -10.461 -10.460 -10.460 -10.460 -10.460
-10.460 -10.459 -10.459 -10.459 -10.458 -10.458 -10.457 -10.457
-10.457 -10.457 -10.457 -10.457 -10.451 -10.450 -10.448 -10.448
-10.447 -10.447 -10.446 -10.446 -10.444 -10.444 -10.432 -10.432
-10.431 -10.431 -10.431 -10.430 -10.430 -10.430 -10.429 -10.428
-10.426 -10.426 -10.418 -10.417 -10.417 -10.415 -10.414 -10.412
 -6.945  -6.944  -1.180  -1.180  -1.013  -1.013  -0.960  -0.956
 -0.952  -0.951  -0.931  -0.931  -0.906  -0.897  -0.886  -0.885
 -0.864  -0.861  -0.851  -0.850  -0.845  -0.844  -0.821  -0.819
 -0.816  -0.811  -0.809  -0.801  -0.798  -0.798  -0.773  -0.772
 -0.732  -0.726  -0.724  -0.718  -0.709  -0.708  -0.700  -0.699
 -0.686  -0.678  -0.677  -0.662  -0.655  -0.645  -0.644  -0.643
 -0.628  -0.628  -0.592  -0.590  -0.590  -0.586  -0.583  -0.581
 -0.581  -0.573  -0.572  -0.561  -0.560  -0.542  -0.541  -0.534
 -0.533  -0.533  -0.525  -0.521  -0.510  -0.504  -0.502  -0.501
 -0.500  -0.498  -0.498  -0.493  -0.492  -0.487  -0.486  -0.482
 -0.482  -0.481  -0.480  -0.479  -0.478  -0.477  -0.475  -0.465
 -0.462  -0.457  -0.457  -0.453  -0.452  -0.449  -0.440  -0.438
 -0.433  -0.433  -0.429  -0.427  -0.426  -0.422  -0.422  -0.415
 -0.411  -0.410  -0.406  -0.404  -0.399  -0.397  -0.396  -0.393
 -0.392  -0.392  -0.390  -0.389  -0.388  -0.385  -0.380  -0.378
 -0.375  -0.368  -0.361  -0.359  -0.357  -0.352  -0.351  -0.347
 -0.336  -0.334  -0.314  -0.309  -0.293  -0.292  -0.277  -0.272
 -0.272  -0.259  -0.253  -0.252  -0.248  -0.245

          Ground-State Mulliken Net Atomic Charges

     Atom                 Charge (a.u.)
  ----------------------------------------
      1 C                    -0.152449
      2 C                    -0.397515
      3 H                     0.237255
      4 C                     0.114381
      5 C                     0.086001
      6 C                    -0.388959
      7 H                     0.235171
      8 C                    -0.151734
      9 C                     0.196736
     10 C                    -0.388004
     11 H                     0.220796
     12 C                    -0.063888
     13 C                     0.253048
     14 C                     0.195278
     15 C                    -0.377413
     16 H                     0.220315
     17 C                    -0.206160
     18 H                     0.225905
     19 C                    -0.332740
     20 H                     0.219332
     21 C                    -0.202774
     22 H                     0.225721
     23 C                    -0.337797
     24 H                     0.219705
     25 B                     0.656608
     26 B                     0.657742
     27 C                    -0.150902
     28 C                    -0.387485
     29 H                     0.237309
     30 C                     0.087688
     31 C                     0.111427
     32 C                    -0.393546
     33 H                     0.237435
     34 C                    -0.153477
     35 C                     0.198091
     36 C                    -0.386941
     37 H                     0.220213
     38 C                    -0.064692
     39 C                     0.251071
     40 C                     0.196133
     41 C                    -0.379344
     42 H                     0.221092
     43 C                    -0.202926
     44 H                     0.225317
     45 C                    -0.336819
     46 H                     0.219599
     47 C                    -0.332376
     48 H                     0.219214
     49 C                    -0.205582
     50 H                     0.226025
     51 C                    -0.230466
     52 C                     0.079396
     53 C                    -0.425276
     54 H                     0.221840
     55 C                     0.402296
     56 O                    -0.453761
     57 C                    -0.373584
     58 H                     0.219270
     59 C                     0.080997
     60 C                    -0.405915
     61 H                     0.239045
     62 H                     0.203526
     63 H                     0.203143
     64 C                    -0.554008
     65 H                     0.227095
     66 H                     0.256573
     67 C                    -0.550500
     68 H                     0.252997
     69 H                     0.230303
     70 C                    -0.640874
     71 H                     0.243179
     72 H                     0.217780
     73 H                     0.212145
     74 C                    -0.640792
     75 H                     0.238434
     76 H                     0.216901
     77 H                     0.217555
     78 C                    -0.222023
     79 C                     0.085278
     80 C                    -0.430021
     81 H                     0.221439
     82 C                     0.403021
     83 O                    -0.453346
     84 C                    -0.379815
     85 H                     0.219434
     86 C                     0.081435
     87 C                    -0.406007
     88 H                     0.238969
     89 H                     0.203409
     90 H                     0.202997
     91 C                    -0.552856
     92 H                     0.229924
     93 H                     0.254317
     94 C                    -0.551354
     95 H                     0.255837
     96 H                     0.225098
     97 C                    -0.645687
     98 H                     0.244370
     99 H                     0.217617
    100 H                     0.216721
    101 C                    -0.643936
    102 H                     0.244856
    103 H                     0.214065
    104 H                     0.217876
  ----------------------------------------
  Sum of atomic charges =    -0.000000

                    Cartesian Multipole Moments
 -----------------------------------------------------------------
    Charge (ESU x 10^10)
                -0.0000
    Dipole Moment (Debye)
         X      -0.0411      Y      -0.2390      Z      -0.0999
       Tot       0.2623
    Quadrupole Moments (Debye-Ang)
        XX    -286.6857     XY      14.0797     YY    -340.9627
        XZ      -0.1251     YZ       5.2211     ZZ    -292.3545

 Total job time:  9481.77s(wall), 73920.49s(cpu)
        *  Thank you very much for using Q-Chem.  Have a nice day.  *
