 Q-Chem 5.0, Q-Chem, Inc., Pleasanton, CA (2017)
 Q-Chem 5.0.1 for Intel X86 EM64T Linux

User input:
--------------------------------------------------------------
$rem
threads 8
jobtype	opt
method PBEh-3c
basis def2-mSVP
mem_static	512
mem_total	6096
sym_ignore	true
$end

$molecule
read incoords5.mol
$end

--------------------------------------------------------------

   15   -2280.6625386359      6.62E-09 Convergence criterion met
 Total energy in the final basis set = -2280.66253864
   12   -2280.6951014474      8.87E-09 Convergence criterion met
 Total energy in the final basis set = -2280.69510145
   12   -2280.7031512804      8.27E-09 Convergence criterion met
 Total energy in the final basis set = -2280.70315128
   12   -2280.7035117931      8.98E-09 Convergence criterion met
 Total energy in the final basis set = -2280.70351179
   12   -2280.7056587412      7.62E-09 Convergence criterion met
 Total energy in the final basis set = -2280.70565874
   12   -2280.7069828478      5.74E-09 Convergence criterion met
 Total energy in the final basis set = -2280.70698285
   12   -2280.7077800133      6.11E-09 Convergence criterion met
 Total energy in the final basis set = -2280.70778001
   12   -2280.7086400518      5.93E-09 Convergence criterion met
    8   -2280.7106016176      8.38E-09 Convergence criterion met
 Total energy in the final basis set = -2280.71060162
    8   -2280.7106084789      8.53E-09 Convergence criterion met
 Total energy in the final basis set = -2280.71060848
    8   -2280.7106140470      8.48E-09 Convergence criterion met
 Total energy in the final basis set = -2280.71061405
    8   -2280.7106166326      5.22E-09 Convergence criterion met
 Total energy in the final basis set = -2280.71061663
    7   -2280.7106186347      7.78E-09 Convergence criterion met
 Total energy in the final basis set = -2280.71061863
    7   -2280.7106215977      6.28E-09 Convergence criterion met
 Total energy in the final basis set = -2280.71062160

             Standard Nuclear Orientation (Angstroms)
    I     Atom           X                Y                Z
 ----------------------------------------------------------------
    1      C       2.5745821869    -0.3612408864    -1.6492932737
    2      C       3.2378971310    -0.1020972359    -2.8728907344
    3      B       4.0232634967    -1.2449194660    -3.5798006145
    4      C       4.3100602912    -2.5660818463    -2.8128081919
    5      C       3.6362564610    -2.8328909954    -1.6000619119
    6      B       2.6772185992    -1.7699048959    -0.9935364518
    7      C       5.1354388883    -3.5398772854    -3.3789815377
    8      C       5.2914934859    -4.7608761794    -2.7526990920
    9      C       4.5892929849    -5.0438238878    -1.5609776694
   10      C       3.7724758226    -4.0853067441    -0.9931514305
   11      C       1.7408107762     0.6124193509    -1.0922309301
   12      C       1.5787838953     1.8292437569    -1.7286807803
   13      C       2.2677829743     2.0990552603    -2.9314942364
   14      C       3.0754803572     1.1334572004    -3.5031002122
   15      C       6.7968721712    -6.3228725393    -4.2225872563
   16      C       7.2669284318    -7.6548998382    -4.3039164105
   17      C       6.9479058561    -8.6077380158    -3.3655934569
   18      C       6.1246907484    -8.2719339442    -2.2645110739
   19      C       5.6966645918    -6.9501953560    -2.1992177351
   20      C       6.0077523667    -5.9706455862    -3.1597404289
   21      C       5.6537367618    -9.1329593878    -1.2448994748
   22      C       4.8133565331    -8.6488394386    -0.2707193808
   23      C       4.3876535327    -7.2994066116    -0.2365634167
   24      C       4.8364567816    -6.4438447909    -1.2080430972
   25      C       1.4079661321     5.3834505606    -4.6998679828
   26      C       2.1086887721     4.1667700281    -4.5273456538
   27      C       1.8417973252     3.4113007627    -3.4168598969
   28      C       0.8841922335     3.8778740424    -2.4982507419
   29      C       0.1573793523     5.0515475911    -2.6569243995
   30      C       0.4584908933     5.8204161955    -3.8066735303
   31      C       0.6856285386     2.9549576347    -1.4540086711
   32      C      -0.2798202029     3.2227948114    -0.5207365738
   33      C      -1.0276269612     4.4176129391    -0.6471474609
   34      C      -0.8272928294     5.3102284429    -1.6736877227
   35      C       5.8311691403    -0.4892081089    -6.9386952200
   36      C       5.5516564353    -0.5395935987    -5.5728906016
   37      C       4.3892322842    -1.1504994193    -5.1054281114
   38      C       3.5037171188    -1.7156984286    -6.0400264293
   39      C       3.7876558222    -1.6588261004    -7.3926261592
   40      C       4.9502241316    -1.0487075076    -7.8529162624
   41      C       6.5636947376     0.0358258683    -4.6157379303
   42      C       2.2294187837    -2.4004662037    -5.6055775913
   43      O       5.1270810764    -1.0457255375    -9.1912622733
   44      C       6.2752170426    -0.4361053158    -9.7146539400
   45      C       1.3880434431    -2.3231839200     2.6098445056
   46      C       2.1944199643    -1.9473220924     1.5488005293
   47      C       1.7729070264    -2.1611006066     0.2287890499
   48      C       0.5283544377    -2.7529884265     0.0071548947
   49      C      -0.2778875610    -3.1268320815     1.0803672002
   50      C       0.1491536090    -2.9162931606     2.3840739587
   51      C       3.5401973128    -1.3306569706     1.8337308884
   52      C       0.0273191150    -3.0232400606    -1.3922489347
   53      O      -0.5669135778    -3.2386439199     3.4824253626
   54      C      -1.8250982536    -3.8321975289     3.3085763274
   55      H       5.6122497156    -3.3513677605    -4.3343021297
   56      H       3.2105237823    -4.3106856624    -0.0935198971
   57      H       1.1961020397     0.3894063300    -0.1815728397
   58      H       3.5488726589     1.3117087495    -4.4625749435
   59      H       7.0556071190    -5.6173921204    -5.0022315940
   60      H       7.8887044161    -7.9335141396    -5.1447248503
   61      H       7.3163276980    -9.6202305017    -3.4778714513
   62      H       5.9435681388   -10.1766918280    -1.2390550446
   63      H       4.4533103788    -9.3231807530     0.4953078753
   64      H       3.7106005018    -6.9747372698     0.5436798753
   65      H       1.6168833448     5.9798918133    -5.5784072170
   66      H       2.8221324802     3.8482210905    -5.2773089570
   67      H      -0.0685967548     6.7481714217    -3.9923302893
   68      H      -0.4935422152     2.5405843995     0.2926504853
   69      H      -1.7936165275     4.6269680528     0.0879873558
   70      H      -1.4351684192     6.2043267675    -1.7371338888
   71      H       6.7421463070    -0.0006206034    -7.2634172880
   72      H       3.0980571390    -2.0814030449    -8.1152269353
   73      H       6.9511060795     0.9782188237    -5.0130839687
   74      C       7.7292438329    -0.9164564595    -4.3579548990
   75      H       6.0868292315     0.2895779352    -3.6644687071
   76      H       1.9715648420    -2.1195838724    -4.5805519405
   77      C       2.2995516096    -3.9220573251    -5.7042271414
   78      H       1.4012022769    -2.0373032488    -6.2203036642
   79      H       6.2227902537    -0.5491961416   -10.7956603295
   80      H       7.1969168061    -0.9101690391    -9.3610980012
   81      H       6.3234455920     0.6324967957    -9.4801340289
   82      H       1.7077944154    -2.1491741390     3.6311032827
   83      H      -1.2434777412    -3.5712704490     0.8700892248
   84      H       3.4532894701    -0.6407557216     2.6770907044
   85      H       3.8612460472    -0.7187745656     0.9850633377
   86      C       4.6149245423    -2.3699237874     2.1423976646
   87      H       0.5398920066    -2.3796543650    -2.1136597605
   88      H      -1.0281776588    -2.7441237975    -1.4582361134
   89      C       0.1886861507    -4.4800474758    -1.8205241995
   90      H      -2.2244917812    -4.0132888340     4.3043854788
   91      H      -2.5217327296    -3.1820010060     2.7687868167
   92      H      -1.7652855443    -4.7892395339     2.7795859880
   93      H       3.0901025534    -4.3245308199    -5.0715904361
   94      H       2.4959886672    -4.2445840166    -6.7272982066
   95      H       1.3588268147    -4.3744220921    -5.3873660451
   96      H      -0.2136076801    -4.6360898831    -2.8225060213
   97      H       1.2373102443    -4.7753619669    -1.8363526476
   98      H      -0.3365474537    -5.1540454420    -1.1428952149
   99      H       4.7776561516    -3.0356199286     1.2953290189
  100      H       4.3344760950    -2.9846934901     2.9984697945
  101      H       5.5671591893    -1.8907678830     2.3719515891
  102      H       7.3893263723    -1.8393499751    -3.8883076312
  103      H       8.4683141672    -0.4630839690    -3.6967729021
  104      H       8.2312849065    -1.1837897932    -5.2885771396
 ----------------------------------------------------------------

    8   -2280.7106296183      6.11E-09 Convergence criterion met
 Total energy in the final basis set = -2280.71062962
 Final energy is   -2280.71062961830
 **  OPTIMIZATION CONVERGED  **

                    Orbital Energies (a.u.)
 --------------------------------------------------------------

 Alpha MOs
 -- Occupied --
-19.523 -19.522 -10.499 -10.498 -10.489 -10.488 -10.462 -10.462
-10.462 -10.461 -10.461 -10.461 -10.460 -10.460 -10.460 -10.460
-10.459 -10.459 -10.459 -10.458 -10.458 -10.458 -10.458 -10.458
-10.457 -10.457 -10.457 -10.456 -10.450 -10.450 -10.448 -10.448
-10.447 -10.447 -10.446 -10.445 -10.444 -10.443 -10.435 -10.434
-10.431 -10.431 -10.431 -10.431 -10.430 -10.429 -10.429 -10.429
-10.426 -10.426 -10.422 -10.419 -10.417 -10.416 -10.414 -10.412
 -6.945  -6.944  -1.180  -1.180  -1.014  -1.012  -0.960  -0.956
 -0.952  -0.951  -0.931  -0.930  -0.906  -0.897  -0.886  -0.885
 -0.864  -0.861  -0.851  -0.850  -0.845  -0.844  -0.822  -0.820
 -0.817  -0.811  -0.809  -0.801  -0.798  -0.798  -0.773  -0.772
 -0.732  -0.726  -0.724  -0.718  -0.712  -0.710  -0.699  -0.699
 -0.687  -0.678  -0.677  -0.662  -0.656  -0.646  -0.645  -0.643
 -0.628  -0.627  -0.592  -0.590  -0.590  -0.586  -0.583  -0.582
 -0.580  -0.573  -0.571  -0.560  -0.559  -0.541  -0.541  -0.534
 -0.533  -0.533  -0.525  -0.521  -0.511  -0.507  -0.503  -0.502
 -0.500  -0.499  -0.497  -0.491  -0.489  -0.487  -0.487  -0.484
 -0.482  -0.480  -0.480  -0.479  -0.478  -0.477  -0.476  -0.465
 -0.462  -0.458  -0.458  -0.453  -0.452  -0.448  -0.444  -0.443
 -0.438  -0.437  -0.429  -0.423  -0.422  -0.420  -0.418  -0.417
 -0.413  -0.412  -0.407  -0.405  -0.399  -0.397  -0.396  -0.393
 -0.391  -0.391  -0.390  -0.389  -0.388  -0.386  -0.383  -0.380
 -0.375  -0.366  -0.361  -0.360  -0.357  -0.353  -0.351  -0.347
 -0.336  -0.334  -0.314  -0.309  -0.293  -0.291  -0.276  -0.271
 -0.271  -0.258  -0.253  -0.253  -0.248  -0.245

          Ground-State Mulliken Net Atomic Charges

     Atom                 Charge (a.u.)
  ----------------------------------------
      1 C                    -0.163507
      2 C                    -0.151585
      3 B                     0.645646
      4 C                    -0.136387
      5 C                    -0.134621
      6 B                     0.655023
      7 C                    -0.403382
      8 C                     0.098108
      9 C                     0.097909
     10 C                    -0.410121
     11 C                    -0.381309
     12 C                     0.094556
     13 C                     0.094139
     14 C                    -0.380321
     15 C                    -0.382400
     16 C                    -0.203990
     17 C                    -0.333290
     18 C                     0.248442
     19 C                    -0.061024
     20 C                     0.190568
     21 C                    -0.333965
     22 C                    -0.203527
     23 C                    -0.385109
     24 C                     0.194939
     25 C                    -0.204484
     26 C                    -0.377439
     27 C                     0.190031
     28 C                    -0.059437
     29 C                     0.249202
     30 C                    -0.333582
     31 C                     0.191203
     32 C                    -0.380421
     33 C                    -0.204115
     34 C                    -0.334123
     35 C                    -0.420433
     36 C                     0.097126
     37 C                    -0.221700
     38 C                     0.068552
     39 C                    -0.375599
     40 C                     0.404364
     41 C                    -0.544009
     42 C                    -0.553777
     43 O                    -0.453461
     44 C                    -0.404831
     45 C                    -0.376558
     46 C                     0.098072
     47 C                    -0.228980
     48 C                     0.075329
     49 C                    -0.430155
     50 C                     0.403078
     51 C                    -0.550508
     52 C                    -0.555221
     53 O                    -0.453967
     54 C                    -0.405880
     55 H                     0.236436
     56 H                     0.246918
     57 H                     0.230503
     58 H                     0.227103
     59 H                     0.219923
     60 H                     0.225951
     61 H                     0.219667
     62 H                     0.219751
     63 H                     0.226083
     64 H                     0.221088
     65 H                     0.225233
     66 H                     0.218802
     67 H                     0.219178
     68 H                     0.220580
     69 H                     0.225355
     70 H                     0.219136
     71 H                     0.221012
     72 H                     0.220108
     73 H                     0.226563
     74 C                    -0.639216
     75 H                     0.248245
     76 H                     0.257271
     77 C                    -0.638490
     78 H                     0.236486
     79 H                     0.238879
     80 H                     0.201930
     81 H                     0.202686
     82 H                     0.219385
     83 H                     0.221976
     84 H                     0.231908
     85 H                     0.249659
     86 C                    -0.643836
     87 H                     0.256453
     88 H                     0.231240
     89 C                    -0.640780
     90 H                     0.238832
     91 H                     0.203280
     92 H                     0.202669
     93 H                     0.243186
     94 H                     0.215252
     95 H                     0.215617
     96 H                     0.216476
     97 H                     0.244932
     98 H                     0.211423
     99 H                     0.240264
    100 H                     0.215971
    101 H                     0.219048
    102 H                     0.233466
    103 H                     0.220508
    104 H                     0.212823
  ----------------------------------------
  Sum of atomic charges =    -0.000000

                    Cartesian Multipole Moments
 -----------------------------------------------------------------
    Charge (ESU x 10^10)
                -0.0000
    Dipole Moment (Debye)
         X      -0.4915      Y      -0.5294      Z      -1.1790
       Tot       1.3827
    Quadrupole Moments (Debye-Ang)
        XX    -309.6928     XY      -7.0642     YY    -294.1526
        XZ     -30.0849     YZ     -10.9149     ZZ    -312.9010

 Total job time:  23154.98s(wall), 90943.90s(cpu)
        *  Thank you very much for using Q-Chem.  Have a nice day.  *
