 Q-Chem 5.1, Q-Chem, Inc., Pleasanton, CA (2018)
 Q-Chem 5.1.1 for Intel X86 EM64T Linux

User input:
--------------------------------------------------------------
$rem
threads 8
jobtype	opt
method PBEh-3c
basis def2-mSVP
mem_static	512
mem_total	6096
sym_ignore	true
$end

$molecule
read gsopt4.mol
$end

--------------------------------------------------------------

   15   -2280.7108263876      5.63e-09  Convergence criterion met
 Total energy in the final basis set =    -2280.7108263876
   12   -2280.7127609494      5.99e-09  Convergence criterion met
 Total energy in the final basis set =    -2280.7127609494
   12   -2280.7129685995      6.22e-09  Convergence criterion met
 Total energy in the final basis set =    -2280.7129685995
   12   -2280.7133558785      5.14e-09  Convergence criterion met
 Total energy in the final basis set =    -2280.7133558785
   10   -2280.7137482136      8.39e-09  Convergence criterion met
 Total energy in the final basis set =    -2280.7137482136
   11   -2280.7137323976      5.89e-09  Convergence criterion met
 Total energy in the final basis set =    -2280.7137323976
   11   -2280.7138349400      5.61e-09  Convergence criterion met
 Total energy in the final basis set =    -2280.7138349400
   10   -2280.7138137626      4.96e-09  Convergence criterion met
 Total energy in the final basis set =    -2280.7138137626
    9   -2280.7138293745      7.37e-09  Convergence criterion met
 Total energy in the final basis set =    -2280.7138293745
    9   -2280.7138311934      6.04e-09  Convergence criterion met
 Total energy in the final basis set =    -2280.7138311934
    9   -2280.7138278683      5.35e-09  Convergence criterion met
 Total energy in the final basis set =    -2280.7138278683
    8   -2280.7138240251      7.83e-09  Convergence criterion met
 Total energy in the final basis set =    -2280.7138240251

             Standard Nuclear Orientation (Angstroms)
    I     Atom           X                Y                Z
 ----------------------------------------------------------------
    1      C       0.0482818222    -0.4128432684     0.0660526557
    2      C       0.0362061675    -0.3998915810     1.4668643554
    3      H       0.9759438233    -0.4114111516     2.0083184676
    4      C      -1.1671112554    -0.3758253517     2.1520884875
    5      C      -2.3796412888    -0.3680919798     1.4287562461
    6      C      -2.3814614625    -0.3860811035     0.0481216408
    7      H      -3.3180207795    -0.3880086344    -0.4984550664
    8      C      -1.1739113908    -0.4037657386    -0.6490810729
    9      C      -1.5011100017    -0.3616202595     3.5807922718
   10      C      -0.7942025358    -0.3638990175     4.7531332608
   11      H       0.2883315854    -0.3777433364     4.7687665193
   12      C      -2.9081025699    -0.3446810456     3.6553852723
   13      C      -3.6410855834    -0.3295704180     4.8355565847
   14      C      -3.4887833856    -0.3473251521     2.3751532889
   15      C      -4.8539625632    -0.3329562669     2.2623826409
   16      H      -5.3488665557    -0.3339507033     1.2988065750
   17      C      -1.5106179744    -0.3486376973     5.9746098243
   18      H      -0.9492152636    -0.3508358525     6.8995467839
   19      C      -2.8844218788    -0.3317557250     6.0309166010
   20      H      -3.3851595732    -0.3207576839     6.9911294926
   21      C      -5.0508647544    -0.3150039642     4.6971099843
   22      H      -5.6813237408    -0.3026938672     5.5777053005
   23      C      -5.6252708004    -0.3166333982     3.4473766209
   24      H      -6.7042829507    -0.3052299696     3.3636643938
   25      B       1.3963956035    -0.4552603412    -0.7113141637
   26      B      -1.1832270491    -0.4281874752    -2.2048870557
   27      C       0.1680108884    -0.4085884425    -2.9693193731
   28      C       0.1692908385    -0.3917818804    -4.3631825261
   29      H      -0.7715474038    -0.3827350814    -4.9025566138
   30      C       1.3653385515    -0.3910185030    -5.0509331877
   31      C       2.5963060816    -0.4158811948    -4.3616779763
   32      C       2.6043485788    -0.4362958296    -2.9775001696
   33      H       3.5425822462    -0.4620895550    -2.4348738331
   34      C       1.3967895266    -0.4267876454    -2.2686819891
   35      C       1.6320208257    -0.3786435163    -6.4853396137
   36      C       0.8561767319    -0.3566814133    -7.6145523168
   37      H      -0.2257414452    -0.3397835219    -7.5655555403
   38      C       3.0301893719    -0.3989249532    -6.6218548405
   39      C       3.6876456677    -0.4000436732    -7.8475003183
   40      C       3.6676201509    -0.4222576612    -5.3663983526
   41      C       5.0365820972    -0.4486542725    -5.3431448610
   42      H       5.5921986167    -0.4699975900    -4.4142713914
   43      C       1.4978856193    -0.3559468074    -8.8750343642
   44      H       0.8864185918    -0.3384229892    -9.7679056808
   45      C       2.8667645552    -0.3771991532    -9.0013933673
   46      H       3.3168627495    -0.3767411372    -9.9866390958
   47      C       5.7376849445    -0.4498625939    -6.5736383086
   48      H       6.8192485501    -0.4710056663    -6.5489481130
   49      C       5.1004274042    -0.4264372117    -7.7916473786
   50      H       5.6808072870    -0.4291705399    -8.7061738026
   51      C      -2.5446060553    -0.5076893334    -2.9919505257
   52      C      -3.0610591411    -1.7477167793    -3.3708522989
   53      C      -4.2778819927    -1.8385884046    -4.0448187115
   54      H      -4.6503510801    -2.8211960504    -4.3089620371
   55      C      -4.9945448654    -0.6925394626    -4.3539923920
   56      O      -6.1823763632    -0.6827529766    -4.9956451280
   57      C      -4.4845958171     0.5478943069    -3.9834314615
   58      H      -5.0519681507     1.4400703562    -4.2244502568
   59      C      -3.2778495680     0.6464337050    -3.3120963239
   60      C      -6.7316014907    -1.9065322767    -5.4039795641
   61      H      -7.6698822029    -1.6756347516    -5.9042788761
   62      H      -6.9439247940    -2.5710592146    -4.5598286201
   63      H      -6.0849154362    -2.4392743656    -6.1092628791
   64      C      -2.7479174711     2.0181814125    -2.9833057599
   65      H      -3.5706724996     2.6606041246    -2.6590993372
   66      H      -2.0578486976     1.9696343450    -2.1360374663
   67      C      -2.3174009671    -3.0302024973    -3.0884297660
   68      H      -3.0025404110    -3.7588553498    -2.6456228785
   69      H      -1.5408985195    -2.8681429541    -2.3357900371
   70      C      -1.6854980505    -3.6296806038    -4.3425473743
   71      H      -0.9569168450    -2.9477320671    -4.7802174520
   72      H      -1.1722520277    -4.5644880653    -4.1155423477
   73      H      -2.4394841122    -3.8392580767    -5.1020529863
   74      C      -2.0447495891     2.6629731395    -4.1759601370
   75      H      -1.1812910884     2.0760472451    -4.4884728530
   76      H      -2.7183013810     2.7427252466    -5.0299108032
   77      H      -1.6932154166     3.6655561674    -3.9304208534
   78      C       2.7489441276    -0.5589040521     0.0726068161
   79      C       3.4834816594     0.5790797006     0.4047884107
   80      C       4.6749727300     0.4665002728     1.1188882856
   81      H       5.2236779931     1.3697610147     1.3568568277
   82      C       5.1451915994    -0.7831885005     1.5006887409
   83      O       6.2867831749    -0.9908923160     2.1912958769
   84      C       4.4252430252    -1.9220208455     1.1516142145
   85      H       4.8142698421    -2.8945743881     1.4321939777
   86      C       3.2394745288    -1.8190101572     0.4445422174
   87      C       7.0575521554     0.1215833712     2.5553611769
   88      H       7.9203396880    -0.2608756414     3.0969556271
   89      H       7.4147270276     0.6832447597     1.6858463514
   90      H       6.5132642800     0.8087939985     3.2116818478
   91      C       2.9900175731     1.9514028423     0.0206058982
   92      H       3.8426934441     2.5888667778    -0.2284661898
   93      H       2.3914680452     1.8939804658    -0.8936079016
   94      C       2.4893680092    -3.0790376542     0.0828916961
   95      H       3.1993615952    -3.8297684282    -0.2749037088
   96      H       1.8182722536    -2.8918577882    -0.7611837641
   97      C       1.6843504025    -3.6621412889     1.2407454630
   98      H       0.9100398213    -2.9715972866     1.5732941441
   99      H       2.3238068119    -3.8836002296     2.0957646402
  100      H       1.1932628463    -4.5890587175     0.9423906434
  101      C       2.1666540601     2.6192676093     1.1195059142
  102      H       1.2625760049     2.0518005566     1.3383254547
  103      H       1.8611023319     3.6229757975     0.8219707979
  104      H       2.7383484165     2.7029123551     2.0443413673
 ----------------------------------------------------------------

    8   -2280.7138276174      6.68e-09  Convergence criterion met
 Total energy in the final basis set =    -2280.7138276174
 Final energy is   -2280.71382761741
 **  OPTIMIZATION CONVERGED  **

                    Orbital Energies (a.u.)
 --------------------------------------------------------------

 Alpha MOs
 -- Occupied --
-19.523 -19.522 -10.499 -10.498 -10.489 -10.488 -10.462 -10.462
-10.462 -10.462 -10.462 -10.461 -10.460 -10.460 -10.460 -10.460
-10.460 -10.459 -10.459 -10.459 -10.458 -10.457 -10.457 -10.457
-10.457 -10.457 -10.457 -10.456 -10.451 -10.450 -10.448 -10.447
-10.447 -10.446 -10.446 -10.445 -10.444 -10.443 -10.434 -10.433
-10.432 -10.431 -10.431 -10.431 -10.430 -10.430 -10.429 -10.428
-10.426 -10.426 -10.419 -10.418 -10.417 -10.416 -10.414 -10.411
 -6.944  -6.943  -1.180  -1.179  -1.013  -1.013  -0.960  -0.956
 -0.952  -0.951  -0.931  -0.931  -0.906  -0.897  -0.886  -0.885
 -0.864  -0.861  -0.851  -0.850  -0.844  -0.844  -0.822  -0.820
 -0.816  -0.811  -0.809  -0.801  -0.798  -0.798  -0.773  -0.772
 -0.732  -0.726  -0.724  -0.718  -0.710  -0.710  -0.699  -0.698
 -0.687  -0.678  -0.677  -0.662  -0.656  -0.646  -0.644  -0.643
 -0.627  -0.627  -0.592  -0.590  -0.590  -0.586  -0.583  -0.582
 -0.580  -0.573  -0.572  -0.560  -0.559  -0.541  -0.541  -0.534
 -0.533  -0.533  -0.525  -0.521  -0.510  -0.507  -0.503  -0.501
 -0.500  -0.499  -0.498  -0.491  -0.488  -0.487  -0.486  -0.483
 -0.482  -0.481  -0.479  -0.478  -0.478  -0.477  -0.476  -0.465
 -0.461  -0.459  -0.456  -0.454  -0.450  -0.448  -0.444  -0.442
 -0.438  -0.437  -0.428  -0.423  -0.422  -0.419  -0.418  -0.417
 -0.413  -0.411  -0.407  -0.404  -0.399  -0.397  -0.396  -0.392
 -0.392  -0.392  -0.389  -0.389  -0.387  -0.386  -0.382  -0.379
 -0.375  -0.366  -0.360  -0.360  -0.357  -0.353  -0.350  -0.347
 -0.336  -0.334  -0.314  -0.309  -0.293  -0.292  -0.277  -0.271
 -0.271  -0.259  -0.254  -0.252  -0.248  -0.245

          Ground-State Mulliken Net Atomic Charges

     Atom                 Charge (a.u.)
  ----------------------------------------
      1 C                    -0.137953
      2 C                    -0.413050
      3 H                     0.246197
      4 C                     0.109581
      5 C                     0.090987
      6 C                    -0.384647
      7 H                     0.231612
      8 C                    -0.155804
      9 C                     0.197141
     10 C                    -0.390206
     11 H                     0.220548
     12 C                    -0.063867
     13 C                     0.252953
     14 C                     0.194415
     15 C                    -0.376636
     16 H                     0.221138
     17 C                    -0.202402
     18 H                     0.225540
     19 C                    -0.337765
     20 H                     0.219609
     21 C                    -0.332862
     22 H                     0.219238
     23 C                    -0.206302
     24 H                     0.226010
     25 B                     0.662137
     26 B                     0.664391
     27 C                    -0.138029
     28 C                    -0.402623
     29 H                     0.240918
     30 C                     0.085984
     31 C                     0.115808
     32 C                    -0.392253
     33 H                     0.231836
     34 C                    -0.158200
     35 C                     0.196374
     36 C                    -0.381237
     37 H                     0.220462
     38 C                    -0.064162
     39 C                     0.252645
     40 C                     0.197005
     41 C                    -0.388412
     42 H                     0.220304
     43 C                    -0.205229
     44 H                     0.226003
     45 C                    -0.332491
     46 H                     0.219274
     47 C                    -0.202277
     48 H                     0.225457
     49 C                    -0.337840
     50 H                     0.219761
     51 C                    -0.233240
     52 C                     0.078195
     53 C                    -0.427206
     54 H                     0.222466
     55 C                     0.403119
     56 O                    -0.453990
     57 C                    -0.373242
     58 H                     0.219095
     59 C                     0.083386
     60 C                    -0.406063
     61 H                     0.238969
     62 H                     0.203294
     63 H                     0.203003
     64 C                    -0.548954
     65 H                     0.231135
     66 H                     0.250642
     67 C                    -0.551050
     68 H                     0.231134
     69 H                     0.255149
     70 C                    -0.637604
     71 H                     0.237807
     72 H                     0.219063
     73 H                     0.209907
     74 C                    -0.641397
     75 H                     0.237050
     76 H                     0.216650
     77 H                     0.218252
     78 C                    -0.225932
     79 C                     0.089757
     80 C                    -0.430623
     81 H                     0.221350
     82 C                     0.402601
     83 O                    -0.453937
     84 C                    -0.380719
     85 H                     0.219436
     86 C                     0.080484
     87 C                    -0.405520
     88 H                     0.238657
     89 H                     0.202625
     90 H                     0.202693
     91 C                    -0.551984
     92 H                     0.227020
     93 H                     0.252699
     94 C                    -0.555160
     95 H                     0.234326
     96 H                     0.253409
     97 C                    -0.641983
     98 H                     0.242772
     99 H                     0.215441
    100 H                     0.216782
    101 C                    -0.644097
    102 H                     0.244652
    103 H                     0.218301
    104 H                     0.212297
  ----------------------------------------
  Sum of atomic charges =    -0.000000

                    Cartesian Multipole Moments
 -----------------------------------------------------------------
    Charge (ESU x 10^10)
                -0.0000
    Dipole Moment (Debye)
         X       0.0726      Y      -0.1182      Z      -0.1640
       Tot       0.2148
    Quadrupole Moments (Debye-Ang)
        XX    -291.9622     XY      16.5955     YY    -336.6307
        XZ      -0.5349     YZ      10.3345     ZZ    -290.8524

 Total job time:  8932.06s(wall), 69652.49s(cpu)
        *  Thank you very much for using Q-Chem.  Have a nice day.  *
