 Q-Chem 5.0, Q-Chem, Inc., Pleasanton, CA (2017)
 Q-Chem 5.0.1 for Intel X86 EM64T Linux

User input:
--------------------------------------------------------------
$rem
threads 8
jobtype	sp
method PBEh-3c
basis def2-mSVP
mem_static	1024
mem_total	8000
sym_ignore	true
unrestricted true
scf_convergence	9
solvent_method	pcm
$end

$molecule
read incoords.mol
$end

$solvent
dielectric	2.38
$end

$pcm
theory iefpcm
$end
--------------------------------------------------------------

   17   -2285.1684439525      3.56E-10 Convergence criterion met
 Total energy in the final basis set = -2285.16844395
 Total job time:  2548.84s(wall), 7657.22s(cpu)
        *  Thank you very much for using Q-Chem.  Have a nice day.  *
 Q-Chem 5.0, Q-Chem, Inc., Pleasanton, CA (2017)
 Q-Chem 5.0.1 for Intel X86 EM64T Linux

User input:
--------------------------------------------------------------

$rem
threads 8
jobtype opt
method PBEh-3c
basis def2-mSVP
scf_guess	read
mem_static      1024
mem_total       8000
sym_ignore      true
unrestricted true
mom_start       1
scf_algorithm	diis
scf_max_cycles	250
solvent_method	pcm
geom_opt_tol_energy 25
geom_opt_tol_gradient 75
$end

$solvent
dielectric      2.38
$end

$pcm
theory iefpcm
$end

$occupied
1 2 3 4 5 6 7 8 9 10 11 12 13 14 15 16 17 18 19 20 21 22 23 24 25 26 27 28 29 30 31 32 33 34 35 36 37 38 39 40 41 42 43 44 45 46 47 48 49 50 51 52 53 54 55 56 57 58 59 60 61 62 63 64 65 66 67 68 69 70 71 72 73 74 75 76 77 78 79 80 81 82 83 84 85 86 87 88 89 90 91 92 93 94 95 96 97 98 99 100 101 102 103 104 105 106 107 108 109 110 111 112 113 114 115 116 117 118 119 120 121 122 123 124 125 126 127 128 129 130 131 132 133 134 135 136 137 138 139 140 141 142 143 144 145 146 147 148 149 150 151 152 153 154 155 156 157 158 159 160 161 162 163 164 165 166 167 168 169 170 171 172 173 174 175 176 177 178 179 180 181 182 183 184 185 186 187 188 189 190 191 192 193 194 195 196 197 198 199 200 201 202 203  205
1 2 3 4 5 6 7 8 9 10 11 12 13 14 15 16 17 18 19 20 21 22 23 24 25 26 27 28 29 30 31 32 33 34 35 36 37 38 39 40 41 42 43 44 45 46 47 48 49 50 51 52 53 54 55 56 57 58 59 60 61 62 63 64 65 66 67 68 69 70 71 72 73 74 75 76 77 78 79 80 81 82 83 84 85 86 87 88 89 90 91 92 93 94 95 96 97 98 99 100 101 102 103 104 105 106 107 108 109 110 111 112 113 114 115 116 117 118 119 120 121 122 123 124 125 126 127 128 129 130 131 132 133 134 135 136 137 138 139 140 141 142 143 144 145 146 147 148 149 150 151 152 153 154 155 156 157 158 159 160 161 162 163 164 165 166 167 168 169 170 171 172 173 174 175 176 177 178 179 180 181 182 183 184 185 186 187 188 189 190 191 192 193 194 195 196 197 198 199 200 201 202 203 204
$end

$molecule
read
$end

--------------------------------------------------------------

   21   -2285.0696988079      8.60E-09 Convergence criterion met
 Total energy in the final basis set = -2285.06969881
   18   -2285.0703225024      7.52E-09 Convergence criterion met
 Total energy in the final basis set = -2285.07032250
   18   -2285.0706146204      7.26E-09 Convergence criterion met
 Total energy in the final basis set = -2285.07061462
   16   -2285.0707030971      9.15E-09 Convergence criterion met
 Total energy in the final basis set = -2285.07070310
   16   -2285.0707328706      8.48E-09 Convergence criterion met
 Total energy in the final basis set = -2285.07073287
   15   -2285.0707416897      9.35E-09 Convergence criterion met
 Total energy in the final basis set = -2285.07074169
   14   -2285.0707415170      9.04E-09 Convergence criterion met
   15   -2285.0721691743      8.77E-09 Convergence criterion met
 Total energy in the final basis set = -2285.07216917
   14   -2285.0721691064      7.80E-09 Convergence criterion met
 Total energy in the final basis set = -2285.07216911
   14   -2285.0721682019      7.65E-09 Convergence criterion met
 Total energy in the final basis set = -2285.07216820
   14   -2285.0721668468      7.79E-09 Convergence criterion met
 Total energy in the final basis set = -2285.07216685
   14   -2285.0721657193      7.73E-09 Convergence criterion met
 Total energy in the final basis set = -2285.07216572
   14   -2285.0721653419      7.73E-09 Convergence criterion met
 Total energy in the final basis set = -2285.07216534

             Standard Nuclear Orientation (Angstroms)
    I     Atom           X                Y                Z
 ----------------------------------------------------------------
    1      C       0.0165014045    -0.2727336772     0.0686493602
    2      C       0.0044116876    -0.2118752537     1.4636729489
    3      H       0.9661892831    -0.2373794558     1.9575556761
    4      C      -1.1578915411    -0.1260485086     2.2180393266
    5      C      -2.4241242666    -0.1047206148     1.5221476500
    6      C      -2.4174882102    -0.1469291778     0.1369612858
    7      H      -3.3515619781    -0.1142353789    -0.4059639805
    8      C      -1.2571444323    -0.2285682681    -0.6283306147
    9      C      -1.1413775306    -0.0509723071     3.6672882706
   10      C       0.0702739990    -0.0507256833     4.3791656608
   11      H       1.0063982647    -0.1172043262     3.8429192391
   12      C       0.1260964918     0.0328728547     5.7542061890
   13      C      -1.0820548906     0.1203750840     6.4489207851
   14      H      -1.0791374383     0.1907632882     7.5301092717
   15      C      -2.2844880826     0.1186387237     5.7760665983
   16      H      -3.1883138196     0.1906163645     6.3633693671
   17      C      -2.3509442473     0.0308610365     4.3827608645
   18      C      -3.6635385984    -0.0441292872     2.2730467510
   19      C      -4.9092581490    -0.0575950718     1.6208695749
   20      H      -4.9523447022    -0.1155426303     0.5424634345
   21      C      -6.1077224444    -0.0052270018     2.3003002915
   22      C      -6.0595613080     0.0620109493     3.6943259400
   23      H      -6.9797540277     0.1024821930     4.2650442020
   24      C      -4.8524411811     0.0739250945     4.3590135895
   25      H      -4.8763851731     0.1213801486     5.4380468557
   26      C      -3.6326931672     0.0224220383     3.6767874099
   27      C      -7.4200703200    -0.0205267222     1.5752689141
   28      H      -7.9849724378     0.8945454890     1.7609598653
   29      H      -7.2818505137    -0.1107594335     0.4987854979
   30      H      -8.0428134803    -0.8548623051     1.9016198314
   31      C       1.4341548929     0.0326585435     6.4855880753
   32      H       1.5646763843     0.9510220934     7.0601113258
   33      H       2.2762177460    -0.0528713755     5.8003798356
   34      H       1.4925112517    -0.7990342749     7.1893350691
   35      B       1.3315250839    -0.3830868379    -0.7068449059
   36      C       1.2535178014    -0.4257610080    -2.2350644137
   37      C       2.4131855714    -0.4934710754    -3.0089146352
   38      H       3.3535994438    -0.5077186225    -2.4757119480
   39      C       2.4082846555    -0.5478605213    -4.3953116515
   40      C       1.1336096792    -0.5644031632    -5.0758877819
   41      C      -0.0213045224    -0.4801883033    -4.3145135886
   42      H      -0.9869396763    -0.4761948648    -4.8005703669
   43      C      -0.0236829308    -0.3967762292    -2.9241117774
   44      C       1.0879880164    -0.6761564918    -6.5217472925
   45      C      -0.1377146569    -0.7257709225    -7.2095972067
   46      H      -1.0665210866    -0.6676146742    -6.6600552602
   47      C      -0.2192147673    -0.8498517468    -8.5805958466
   48      C       0.9767695796    -0.9288981550    -9.2970975364
   49      H       0.9536428955    -1.0313544427   -10.3755895588
   50      C       2.1915995594    -0.8782740629    -8.6493683189
   51      H       3.0840730087    -0.9463397822    -9.2541026964
   52      C       2.2823894062    -0.7476234903    -7.2602128777
   53      C       3.6322208364    -0.5854471769    -5.1743855637
   54      C       4.8903140565    -0.5141489873    -4.5524586988
   55      H       4.9523148574    -0.4288727882    -3.4767108024
   56      C       6.0734504136    -0.5387678741    -5.2604491270
   57      C       5.9970159225    -0.6374426618    -6.6510730030
   58      H       6.9050739384    -0.6562434037    -7.2418782845
   59      C       4.7769553974    -0.7055703364    -7.2871793860
   60      H       4.7759830730    -0.7724296787    -8.3654606108
   61      C       3.5731540405    -0.6824309461    -6.5774198094
   62      C      -1.5408648453    -0.9041720825    -9.2870372722
   63      H      -1.6666506769    -1.8506775299    -9.8153925404
   64      H      -1.6253713589    -0.1081752443   -10.0284354733
   65      H      -2.3727953023    -0.7997742088    -8.5920758978
   66      C       7.4013581013    -0.4610282759    -4.5702190649
   67      H       7.9873038609    -1.3658379338    -4.7402323176
   68      H       7.9904220299     0.3788105185    -4.9414149235
   69      H       7.2866893907    -0.3381966412    -3.4943852447
   70      B      -1.3416263763    -0.2849325591    -2.1558180100
   71      C      -2.7264057152    -0.2366604378    -2.9177216315
   72      C      -3.2610319382     0.9820931586    -3.3564970734
   73      C      -4.4668743513     1.0103623299    -4.0509412720
   74      H      -4.8629257243     1.9638518604    -4.3861137974
   75      C      -5.1730356215    -0.1531161670    -4.3278918432
   76      C      -4.6371863649    -1.3599475705    -3.8942527197
   77      H      -5.1690626802    -2.2826371674    -4.1058582010
   78      C      -3.4346727751    -1.4146968295    -3.1981126069
   79      C      -6.4890854278    -0.1122530547    -5.0505480271
   80      H      -6.5961667350     0.7979033141    -5.6404869082
   81      H      -7.3264972645    -0.1442562024    -4.3498768527
   82      H      -6.6040004393    -0.9617658106    -5.7246330227
   83      C      -2.5240310659     2.2644529924    -3.0886990389
   84      H      -3.0775299466     3.1310084842    -3.4508913495
   85      H      -1.5458956039     2.2692444752    -3.5744650896
   86      H      -2.3448535236     2.4067278547    -2.0211449696
   87      C      -2.8878228719    -2.7441658700    -2.7569616168
   88      H      -3.5518602163    -3.5640569972    -3.0317176001
   89      H      -2.7472817236    -2.7789894253    -1.6747675722
   90      H      -1.9124422018    -2.9423326672    -3.2061475189
   91      C       2.7218850257    -0.4675526253     0.0308490121
   92      C       3.2664812671    -1.7117836280     0.3702001059
   93      C       4.4963230704    -1.7819737107     1.0175343351
   94      H       4.9032895400    -2.7540037765     1.2780273238
   95      C       5.2132839687    -0.6367586332     1.3388759164
   96      C       4.6669261715     0.5959216658     0.9981873295
   97      H       5.2105078449     1.5031932566     1.2434781857
   98      C       3.4398313914     0.6921871590     0.3514637648
   99      C       6.5529960299    -0.7253022282     2.0116905914
  100      H       6.6909670682    -1.6870419811     2.5054372790
  101      H       7.3658805741    -0.6111637795     1.2911094410
  102      H       6.6782386179     0.0558637366     2.7621386838
  103      C       2.8780099389     2.0390801031    -0.0101205755
  104      H       3.5379171152     2.8493721598     0.3001163315
  105      H       2.7251358364     2.1282772890    -1.0879795545
  106      H       1.9048096278     2.2048560935     0.4567366198
  107      C       2.5205095727    -2.9738328056     0.0331038428
  108      H       3.0554536138    -3.8619278766     0.3702502005
  109      H       1.5300514791    -2.9885711587     0.4929314130
  110      H       2.3657917535    -3.0698665870    -1.0438815775
 ----------------------------------------------------------------

   14   -2285.0721652035      7.69E-09 Convergence criterion met
 Total energy in the final basis set = -2285.07216520
 Final energy is   -2285.07216520350
 **  OPTIMIZATION CONVERGED  **

                    Orbital Energies (a.u.)
 --------------------------------------------------------------

 Alpha MOs
 -- Occupied --
-10.477 -10.476 -10.476 -10.476 -10.470 -10.470 -10.470 -10.470
-10.470 -10.470 -10.469 -10.469 -10.463 -10.463 -10.463 -10.463
-10.457 -10.456 -10.456 -10.456 -10.454 -10.454 -10.454 -10.454
-10.453 -10.453 -10.453 -10.453 -10.446 -10.445 -10.445 -10.444
-10.441 -10.440 -10.439 -10.439 -10.439 -10.438 -10.434 -10.434
-10.434 -10.434 -10.433 -10.433 -10.432 -10.432 -10.424 -10.424
-10.423 -10.423 -10.423 -10.423 -10.416 -10.416 -10.416 -10.416
-10.408 -10.406  -6.905  -6.904  -1.003  -1.003  -0.967  -0.967
 -0.956  -0.952  -0.947  -0.946  -0.906  -0.904  -0.882  -0.881
 -0.878  -0.868  -0.862  -0.860  -0.859  -0.858  -0.854  -0.854
 -0.821  -0.819  -0.816  -0.802  -0.797  -0.797  -0.772  -0.772
 -0.758  -0.757  -0.749  -0.748  -0.748  -0.747  -0.732  -0.719
 -0.714  -0.710  -0.689  -0.682  -0.671  -0.667  -0.666  -0.654
 -0.639  -0.636  -0.630  -0.630  -0.619  -0.616  -0.612  -0.609
 -0.576  -0.570  -0.566  -0.560  -0.554  -0.543  -0.538  -0.535
 -0.533  -0.532  -0.531  -0.530  -0.529  -0.515  -0.515  -0.510
 -0.499  -0.496  -0.492  -0.491  -0.491  -0.488  -0.488  -0.481
 -0.481  -0.478  -0.474  -0.474  -0.473  -0.473  -0.472  -0.471
 -0.469  -0.464  -0.464  -0.458  -0.456  -0.454  -0.454  -0.450
 -0.450  -0.450  -0.448  -0.447  -0.443  -0.440  -0.439  -0.438
 -0.438  -0.436  -0.434  -0.430  -0.423  -0.421  -0.418  -0.413
 -0.413  -0.412  -0.412  -0.408  -0.407  -0.404  -0.403  -0.400
 -0.399  -0.393  -0.384  -0.378  -0.374  -0.372  -0.370  -0.370
 -0.363  -0.342  -0.342  -0.337  -0.336  -0.333  -0.326  -0.325
 -0.322  -0.311  -0.287  -0.278  -0.265  -0.264  -0.261  -0.257
 -0.255  -0.254  -0.254  -0.155

 Beta MOs
 -- Occupied --
-10.478 -10.478 -10.477 -10.477 -10.470 -10.470 -10.470 -10.470
-10.470 -10.469 -10.469 -10.469 -10.463 -10.463 -10.463 -10.463
-10.456 -10.456 -10.456 -10.456 -10.455 -10.455 -10.455 -10.455
-10.453 -10.453 -10.453 -10.453 -10.445 -10.444 -10.443 -10.443
-10.441 -10.440 -10.439 -10.439 -10.439 -10.438 -10.435 -10.435
-10.434 -10.434 -10.434 -10.434 -10.434 -10.434 -10.424 -10.424
-10.423 -10.423 -10.423 -10.423 -10.416 -10.416 -10.416 -10.416
-10.408 -10.407  -6.901  -6.901  -1.004  -1.004  -0.967  -0.967
 -0.958  -0.955  -0.947  -0.946  -0.907  -0.905  -0.881  -0.881
 -0.880  -0.871  -0.862  -0.860  -0.858  -0.858  -0.854  -0.854
 -0.821  -0.820  -0.819  -0.808  -0.798  -0.798  -0.772  -0.772
 -0.758  -0.757  -0.749  -0.748  -0.748  -0.747  -0.732  -0.720
 -0.714  -0.711  -0.689  -0.683  -0.671  -0.668  -0.667  -0.656
 -0.638  -0.635  -0.629  -0.629  -0.618  -0.616  -0.612  -0.609
 -0.574  -0.570  -0.567  -0.558  -0.555  -0.543  -0.538  -0.535
 -0.533  -0.531  -0.530  -0.530  -0.529  -0.515  -0.515  -0.511
 -0.499  -0.497  -0.492  -0.491  -0.490  -0.490  -0.490  -0.481
 -0.481  -0.478  -0.475  -0.474  -0.474  -0.473  -0.472  -0.471
 -0.469  -0.467  -0.466  -0.458  -0.456  -0.454  -0.454  -0.450
 -0.450  -0.449  -0.447  -0.447  -0.443  -0.439  -0.438  -0.438
 -0.438  -0.435  -0.435  -0.429  -0.423  -0.423  -0.421  -0.415
 -0.414  -0.414  -0.413  -0.412  -0.407  -0.403  -0.403  -0.400
 -0.399  -0.393  -0.384  -0.378  -0.374  -0.372  -0.369  -0.369
 -0.363  -0.350  -0.340  -0.335  -0.334  -0.333  -0.333  -0.328
 -0.325  -0.322  -0.285  -0.280  -0.271  -0.265  -0.264  -0.257
 -0.257  -0.257  -0.254  -0.253

          Ground-State Mulliken Net Atomic Charges

     Atom                 Charge (a.u.)    Spin (a.u.)
  --------------------------------------------------------
      1 C                    -0.078691      -0.117062
      2 C                    -0.442537       0.073603
      3 H                     0.246402      -0.003978
      4 C                     0.113266      -0.079066
      5 C                     0.109280      -0.076090
      6 C                    -0.441589       0.067992
      7 H                     0.247129      -0.003638
      8 C                    -0.077524      -0.113783
      9 C                     0.120478       0.029384
     10 C                    -0.393816      -0.057163
     11 H                     0.239606       0.003526
     12 C                     0.134211       0.030341
     13 C                    -0.267782      -0.049442
     14 H                     0.235250       0.002697
     15 C                    -0.320423       0.010773
     16 H                     0.227807      -0.000521
     17 C                     0.088325      -0.019654
     18 C                     0.122820       0.027145
     19 C                    -0.393085      -0.055457
     20 H                     0.239217       0.003440
     21 C                     0.134883       0.029075
     22 C                    -0.268815      -0.047568
     23 H                     0.235417       0.002588
     24 C                    -0.320270       0.009424
     25 H                     0.227490      -0.000445
     26 C                     0.086447      -0.017817
     27 C                    -0.715325      -0.001887
     28 H                     0.242070       0.000780
     29 H                     0.243840       0.000098
     30 H                     0.240873       0.000703
     31 C                    -0.715419      -0.001982
     32 H                     0.241486       0.000796
     33 H                     0.244064       0.000101
     34 H                     0.241387       0.000773
     35 B                     0.559392       0.378780
     36 C                    -0.079605      -0.116956
     37 C                    -0.440525       0.071699
     38 H                     0.247000      -0.003868
     39 C                     0.113194      -0.077934
     40 C                     0.108903      -0.078405
     41 C                    -0.441278       0.070208
     42 H                     0.248431      -0.003762
     43 C                    -0.076164      -0.114999
     44 C                     0.123504       0.028087
     45 C                    -0.394633      -0.056436
     46 H                     0.240116       0.003496
     47 C                     0.134521       0.029800
     48 C                    -0.268544      -0.048644
     49 H                     0.235279       0.002650
     50 C                    -0.319438       0.010131
     51 H                     0.227533      -0.000482
     52 C                     0.085664      -0.018815
     53 C                     0.121079       0.028890
     54 C                    -0.393999      -0.056660
     55 H                     0.239047       0.003496
     56 C                     0.133933       0.029873
     57 C                    -0.267864      -0.048672
     58 H                     0.235302       0.002654
     59 C                    -0.319130       0.010169
     60 H                     0.227730      -0.000488
     61 C                     0.087441      -0.018885
     62 C                    -0.715408      -0.001943
     63 H                     0.241711       0.000797
     64 H                     0.240950       0.000735
     65 H                     0.244427       0.000100
     66 C                    -0.715175      -0.001948
     67 H                     0.242251       0.000824
     68 H                     0.240611       0.000713
     69 H                     0.243515       0.000103
     70 B                     0.557318       0.377621
     71 C                    -0.207651      -0.034222
     72 C                     0.048680       0.005410
     73 C                    -0.357225      -0.001650
     74 H                     0.205452       0.000474
     75 C                     0.116734       0.001709
     76 C                    -0.354462      -0.001683
     77 H                     0.205047       0.000504
     78 C                     0.045807       0.005607
     79 C                    -0.714900      -0.000145
     80 H                     0.229887       0.000013
     81 H                     0.234558       0.000090
     82 H                     0.229538       0.000031
     83 C                    -0.753478      -0.000259
     84 H                     0.233025       0.001617
     85 H                     0.242797      -0.000749
     86 H                     0.243340      -0.000990
     87 C                    -0.752029      -0.000351
     88 H                     0.232859       0.001565
     89 H                     0.242908      -0.000845
     90 H                     0.242425      -0.000830
     91 C                    -0.203263      -0.034312
     92 C                     0.048409       0.005437
     93 C                    -0.359648      -0.001662
     94 H                     0.205328       0.000482
     95 C                     0.116761       0.001711
     96 C                    -0.355338      -0.001698
     97 H                     0.204720       0.000509
     98 C                     0.047390       0.005570
     99 C                    -0.714821      -0.000143
    100 H                     0.230005       0.000009
    101 H                     0.233829       0.000087
    102 H                     0.229596       0.000037
    103 C                    -0.752850      -0.000331
    104 H                     0.232747       0.001633
    105 H                     0.242476      -0.000879
    106 H                     0.242990      -0.000870
    107 C                    -0.755395      -0.000421
    108 H                     0.233268       0.001729
    109 H                     0.243465      -0.000961
    110 H                     0.243457      -0.000842
  --------------------------------------------------------
  Sum of atomic charges =    -0.000000

                    Cartesian Multipole Moments
 -----------------------------------------------------------------
    Charge (ESU x 10^10)
                -0.0000
    Dipole Moment (Debye)
         X      -0.0787      Y      -0.0074      Z      -0.0716
       Tot       0.1067
    Quadrupole Moments (Debye-Ang)
        XX    -287.9204     XY      -0.8249     YY    -355.5884
        XZ     -18.4986     YZ       6.2731     ZZ    -264.4211

 Total job time:  108668.63s(wall), 320445.83s(cpu)
        *  Thank you very much for using Q-Chem.  Have a nice day.  *
