 Q-Chem 5.0, Q-Chem, Inc., Pleasanton, CA (2017)
 Q-Chem 5.0.1 for Intel X86 EM64T Linux

User input:
--------------------------------------------------------------
$rem
threads 8
jobtype opt
method PBEh-3c
basis def2-mSVP
mem_static      1024
mem_total       8000
sym_ignore      true
unrestricted true
scf_algorithm	diis
scf_max_cycles	250
solvent_method  pcm
geom_opt_tol_energy 25
geom_opt_tol_gradient 75
$end

$pcm
theory  iefpcm
$end

$solvent
dielectric      2.38
$end

$molecule
read uincoords.mol
$end
--------------------------------------------------------------

   41   -2285.0611062379      9.68E-09 Convergence criterion met
 Total energy in the final basis set = -2285.06110624
   26   -2285.0655285316      8.22E-09 Convergence criterion met
 Total energy in the final basis set = -2285.06552853
   26   -2285.0660637921      8.99E-09 Convergence criterion met
 Total energy in the final basis set = -2285.06606379
   28   -2285.0661141703      8.36E-09 Convergence criterion met
 Total energy in the final basis set = -2285.06611417
   25   -2285.0661690763      9.25E-09 Convergence criterion met
 Total energy in the final basis set = -2285.06616908
   24   -2285.0661891084      7.07E-09 Convergence criterion met
 Total energy in the final basis set = -2285.06618911
   37   -2285.0661876561      8.27E-09 Convergence criterion met
 Total energy in the final basis set = -2285.06618766
   32   -2285.0661803422      6.98E-09 Convergence criterion met
   18   -2285.0687499258      9.24E-09 Convergence criterion met
 Total energy in the final basis set = -2285.06874993
   27   -2285.0687494198      7.08E-09 Convergence criterion met
 Total energy in the final basis set = -2285.06874942
   23   -2285.0687502829      9.77E-09 Convergence criterion met
 Total energy in the final basis set = -2285.06875028
   19   -2285.0687511459      9.27E-09 Convergence criterion met
 Total energy in the final basis set = -2285.06875115
   23   -2285.0687505534      9.89E-09 Convergence criterion met
 Total energy in the final basis set = -2285.06875055
   23   -2285.0687498175      9.69E-09 Convergence criterion met
 Total energy in the final basis set = -2285.06874982

             Standard Nuclear Orientation (Angstroms)
    I     Atom           X                Y                Z
 ----------------------------------------------------------------
    1      C       0.0048413579    -0.2699213911     0.0612860593
    2      C      -0.0142509394    -0.2026316089     1.4686871540
    3      H       0.9482488425    -0.2192790986     1.9637605736
    4      C      -1.1804690478    -0.1194569516     2.2312117607
    5      C      -2.4233497340    -0.1054675002     1.5473164931
    6      C      -2.4102802041    -0.1603260081     0.1556376353
    7      H      -3.3453395376    -0.1379199929    -0.3881272234
    8      C      -1.2424063051    -0.2424894951    -0.6210997057
    9      C      -1.1545110877    -0.0434206815     3.6775048392
   10      C       0.0545031255    -0.0449818738     4.3941187120
   11      H       0.9925322395    -0.1115555037     3.8612138683
   12      C       0.1031778075     0.0357603793     5.7656098901
   13      C      -1.1110310101     0.1223724541     6.4685246215
   14      H      -1.1018939581     0.1893315566     7.5496974802
   15      C      -2.3056953169     0.1228695637     5.8012548710
   16      H      -3.2111002525     0.1924681043     6.3857153669
   17      C      -2.3717859398     0.0388202429     4.3973078446
   18      C      -3.6666842123    -0.0377581082     2.2858833563
   19      C      -4.9138344904    -0.0461208377     1.6357176252
   20      H      -4.9591669694    -0.1063814331     0.5575010147
   21      C      -6.1063846533     0.0157210233     2.3166363389
   22      C      -6.0644317339     0.0896873948     3.7197766726
   23      H      -6.9886242251     0.1389123836     4.2829328209
   24      C      -4.8675539139     0.0977118818     4.3833569380
   25      H      -4.8900498131     0.1517565295     5.4617646433
   26      C      -3.6380748201     0.0347523499     3.6981129385
   27      C      -7.4199261809     0.0046376334     1.5979233708
   28      H      -7.9871544412     0.9149285103     1.8008983775
   29      H      -7.2882833842    -0.0723463430     0.5198010452
   30      H      -8.0378689527    -0.8351917545     1.9205597120
   31      C       1.4050552923     0.0336888809     6.5038426532
   32      H       1.5284893432     0.9502805449     7.0833868242
   33      H       2.2525710984    -0.0496770656     5.8254541475
   34      H       1.4559600223    -0.7990996064     7.2073908605
   35      B       1.3228928691    -0.3730647414    -0.7130137698
   36      C       1.2412860278    -0.4269019996    -2.2424563177
   37      C       2.4074904356    -0.4980124980    -3.0277148973
   38      H       3.3487966661    -0.5073937200    -2.4940585812
   39      C       2.4085570137    -0.5564095471    -4.4218250392
   40      C       1.1575097113    -0.5608108451    -5.0909059054
   41      C      -0.0002246364    -0.4852488104    -4.3205487571
   42      H      -0.9668049051    -0.4844536437    -4.8071545589
   43      C      -0.0093539830    -0.4084824790    -2.9170937340
   44      C       1.1016534169    -0.6452967616    -6.5360657849
   45      C      -0.1215685208    -0.6613169777    -7.2300230860
   46      H      -1.0518606527    -0.6019987318    -6.6831560039
   47      C      -0.1969529341    -0.7502784129    -8.6002222611
   48      C       1.0038881716    -0.8270051097    -9.3265569691
   49      H       0.9739146446    -0.9001992773   -10.4070577106
   50      C       2.2109931788    -0.8094477392    -8.6827147775
   51      H       3.1045195021    -0.8710088680    -9.2858828828
   52      C       2.3025522904    -0.7167995737    -7.2800753245
   53      C       3.6360260973    -0.6113581958    -5.1887962269
   54      C       4.8963442257    -0.5816070459    -4.5670538522
   55      H       4.9611005620    -0.5150114818    -3.4901716241
   56      C       6.0735366130    -0.6291162600    -5.2756527032
   57      C       6.0024080738    -0.7114425060    -6.6769787783
   58      H       6.9147409436    -0.7497775803    -7.2598662261
   59      C       4.7920819271    -0.7409531468    -7.3140645777
   60      H       4.7898439685    -0.8006828294    -8.3923893661
   61      C       3.5783591648    -0.6917870404    -6.6018504608
   62      C      -1.5130075837    -0.7666422592    -9.3146781940
   63      H      -1.6349529896    -1.6853210705    -9.8913712803
   64      H      -1.5879337358     0.0642481050   -10.0185111118
   65      H      -2.3498698221    -0.6936877680    -8.6219701586
   66      C       7.4033419953    -0.5934990921    -4.5900892919
   67      H       7.9794232474    -1.4956545866    -4.8038592012
   68      H       7.9986259378     0.2545649344    -4.9329325664
   69      H       7.2971488547    -0.5134264991    -3.5095851100
   70      B      -1.3306684568    -0.3092111397    -2.1498306322
   71      C      -2.7181929361    -0.2753459615    -2.9097078812
   72      C      -3.2647441791     0.9371055330    -3.3516615370
   73      C      -4.4733560571     0.9526165710    -4.0419394837
   74      H      -4.8784993968     1.9015243222    -4.3794226127
   75      C      -5.1710696541    -0.2176174850    -4.3117720559
   76      C      -4.6235403497    -1.4182781694    -3.8754237010
   77      H      -5.1484842147    -2.3462571441    -4.0813101741
   78      C      -3.4180370870    -1.4600370981    -3.1835011221
   79      C      -6.4900738502    -0.1903308276    -5.0297953410
   80      H      -6.6092890613     0.7196380685    -5.6177184601
   81      H      -7.3248479002    -0.2330520015    -4.3265250075
   82      H      -6.5978338991    -1.0397934225    -5.7051853135
   83      C      -2.5374310459     2.2265611238    -3.0911468083
   84      H      -3.0983358043     3.0871607939    -3.4562836062
   85      H      -1.5597073891     2.2368328799    -3.5777147065
   86      H      -2.3564045816     2.3748258488    -2.0247049227
   87      C      -2.8580065525    -2.7826126636    -2.7382395534
   88      H      -3.5141318649    -3.6101612952    -3.0091327783
   89      H      -2.7150014696    -2.8119010551    -1.6561419861
   90      H      -1.8807038147    -2.9724516484    -3.1869141063
   91      C       2.7150016459    -0.4468208270     0.0242434869
   92      C       3.2678363501    -1.6867218048     0.3665287375
   93      C       4.4985826417    -1.7475169429     1.0133240171
   94      H       4.9118503234    -2.7163595941     1.2759954572
   95      C       5.2086359007    -0.5970731627     1.3314991675
   96      C       4.6542558063     0.6313499146     0.9881315071
   97      H       5.1923220422     1.5426979600     1.2306045011
   98      C       3.4262061844     0.7179768686     0.3418412000
   99      C       6.5494260458    -0.6756320031     2.0035350995
  100      H       6.6954461118    -1.6369551190     2.4958159257
  101      H       7.3611691291    -0.5537596983     1.2828990032
  102      H       6.6687853637     0.1053412220     2.7551886655
  103      C       2.8547843779     2.0597099622    -0.0237466951
  104      H       3.5085395093     2.8760471073     0.2837854485
  105      H       2.7002334767     2.1440121060    -1.1018132120
  106      H       1.8797803350     2.2195993796     0.4415859210
  107      C       2.5291960607    -2.9542307622     0.0331786272
  108      H       3.0694207573    -3.8382901804     0.3726592145
  109      H       1.5385626789    -2.9732306409     0.4924830786
  110      H       2.3734722434    -3.0540592494    -1.0432992237
 ----------------------------------------------------------------

   18   -2285.0687496002      9.84E-09 Convergence criterion met
 Total energy in the final basis set = -2285.06874960
 Final energy is   -2285.06874960024
 **  OPTIMIZATION CONVERGED  **

                    Orbital Energies (a.u.)
 --------------------------------------------------------------

 Alpha MOs
 -- Occupied --
-10.476 -10.476 -10.475 -10.475 -10.475 -10.474 -10.474 -10.473
-10.468 -10.468 -10.468 -10.468 -10.462 -10.461 -10.460 -10.460
-10.458 -10.457 -10.457 -10.457 -10.457 -10.457 -10.456 -10.456
-10.454 -10.454 -10.454 -10.454 -10.450 -10.449 -10.449 -10.449
-10.440 -10.439 -10.438 -10.438 -10.438 -10.437 -10.436 -10.436
-10.435 -10.435 -10.424 -10.423 -10.423 -10.422 -10.422 -10.422
-10.419 -10.418 -10.418 -10.418 -10.415 -10.415 -10.415 -10.415
-10.406 -10.405  -6.901  -6.900  -1.005  -1.005  -0.968  -0.968
 -0.957  -0.953  -0.946  -0.945  -0.909  -0.907  -0.881  -0.881
 -0.880  -0.870  -0.861  -0.859  -0.858  -0.857  -0.856  -0.855
 -0.821  -0.819  -0.819  -0.806  -0.800  -0.800  -0.772  -0.771
 -0.758  -0.757  -0.748  -0.748  -0.747  -0.746  -0.732  -0.720
 -0.712  -0.708  -0.690  -0.685  -0.671  -0.668  -0.667  -0.657
 -0.638  -0.635  -0.629  -0.629  -0.617  -0.615  -0.613  -0.609
 -0.575  -0.570  -0.568  -0.559  -0.555  -0.543  -0.539  -0.535
 -0.533  -0.531  -0.530  -0.530  -0.529  -0.516  -0.515  -0.511
 -0.498  -0.495  -0.492  -0.492  -0.492  -0.491  -0.489  -0.484
 -0.483  -0.478  -0.475  -0.475  -0.475  -0.473  -0.471  -0.471
 -0.469  -0.469  -0.468  -0.458  -0.456  -0.453  -0.453  -0.451
 -0.451  -0.449  -0.447  -0.446  -0.443  -0.439  -0.439  -0.439
 -0.438  -0.436  -0.435  -0.431  -0.425  -0.425  -0.422  -0.417
 -0.415  -0.415  -0.413  -0.413  -0.406  -0.403  -0.402  -0.401
 -0.400  -0.391  -0.383  -0.379  -0.373  -0.372  -0.369  -0.369
 -0.362  -0.353  -0.339  -0.338  -0.337  -0.334  -0.331  -0.330
 -0.325  -0.320  -0.292  -0.284  -0.275  -0.264  -0.264  -0.262
 -0.258  -0.256  -0.253  -0.252  -0.152

 Beta MOs
 -- Occupied --
-10.475 -10.475 -10.475 -10.474 -10.474 -10.473 -10.473 -10.473
-10.467 -10.467 -10.467 -10.467 -10.461 -10.461 -10.460 -10.460
-10.457 -10.457 -10.457 -10.457 -10.456 -10.455 -10.454 -10.454
-10.454 -10.454 -10.453 -10.453 -10.450 -10.450 -10.450 -10.449
-10.440 -10.439 -10.438 -10.438 -10.438 -10.437 -10.436 -10.436
-10.435 -10.435 -10.424 -10.423 -10.423 -10.422 -10.422 -10.422
-10.418 -10.418 -10.418 -10.417 -10.415 -10.415 -10.415 -10.415
-10.407 -10.405  -6.898  -6.897  -1.002  -1.002  -0.966  -0.966
 -0.953  -0.949  -0.946  -0.945  -0.906  -0.905  -0.878  -0.877
 -0.877  -0.868  -0.861  -0.859  -0.857  -0.857  -0.855  -0.854
 -0.817  -0.814  -0.812  -0.804  -0.799  -0.799  -0.771  -0.771
 -0.757  -0.756  -0.747  -0.747  -0.747  -0.746  -0.729  -0.718
 -0.709  -0.706  -0.689  -0.683  -0.669  -0.666  -0.665  -0.654
 -0.636  -0.634  -0.628  -0.628  -0.615  -0.612  -0.612  -0.609
 -0.573  -0.569  -0.567  -0.556  -0.554  -0.541  -0.538  -0.534
 -0.532  -0.530  -0.529  -0.529  -0.528  -0.516  -0.514  -0.510
 -0.496  -0.494  -0.490  -0.489  -0.488  -0.488  -0.487  -0.482
 -0.481  -0.476  -0.474  -0.474  -0.474  -0.473  -0.471  -0.471
 -0.468  -0.462  -0.462  -0.457  -0.455  -0.453  -0.452  -0.451
 -0.450  -0.447  -0.446  -0.446  -0.443  -0.439  -0.438  -0.438
 -0.437  -0.434  -0.433  -0.429  -0.424  -0.421  -0.413  -0.412
 -0.412  -0.409  -0.408  -0.404  -0.404  -0.402  -0.402  -0.400
 -0.399  -0.390  -0.381  -0.378  -0.373  -0.371  -0.368  -0.368
 -0.360  -0.341  -0.336  -0.327  -0.325  -0.324  -0.324  -0.323
 -0.319  -0.318  -0.273  -0.267  -0.264  -0.264  -0.264  -0.256
 -0.252  -0.247  -0.230

          Ground-State Mulliken Net Atomic Charges

     Atom                 Charge (a.u.)    Spin (a.u.)
  --------------------------------------------------------
      1 C                    -0.099949       0.048274
      2 C                    -0.422569       0.162752
      3 H                     0.248752      -0.010870
      4 C                     0.110659       0.017619
      5 C                     0.107452       0.021854
      6 C                    -0.421785       0.156269
      7 H                     0.249801      -0.010504
      8 C                    -0.097669       0.048030
      9 C                     0.127068       0.053266
     10 C                    -0.398846      -0.024861
     11 H                     0.237368       0.001192
     12 C                     0.138187       0.040934
     13 C                    -0.268729       0.031448
     14 H                     0.235224      -0.002069
     15 C                    -0.312804      -0.013638
     16 H                     0.228213       0.000217
     17 C                     0.075120       0.053002
     18 C                     0.129424       0.051056
     19 C                    -0.398418      -0.022668
     20 H                     0.237154       0.001076
     21 C                     0.139044       0.039058
     22 C                    -0.269899       0.033841
     23 H                     0.235321      -0.002208
     24 C                    -0.312611      -0.015504
     25 H                     0.227856       0.000325
     26 C                     0.072710       0.055051
     27 C                    -0.716053      -0.002606
     28 H                     0.243792       0.002131
     29 H                     0.245792      -0.000065
     30 H                     0.243104       0.002028
     31 C                    -0.716121      -0.002742
     32 H                     0.243517       0.002182
     33 H                     0.246004      -0.000061
     34 H                     0.243379       0.002117
     35 B                     0.570626       0.307895
     36 C                    -0.100055       0.044196
     37 C                    -0.421524       0.158364
     38 H                     0.249307      -0.010606
     39 C                     0.110942       0.020552
     40 C                     0.106977       0.018658
     41 C                    -0.422731       0.155164
     42 H                     0.250498      -0.010402
     43 C                    -0.096275       0.048987
     44 C                     0.129948       0.051462
     45 C                    -0.400150      -0.024100
     46 H                     0.237784       0.001160
     47 C                     0.138701       0.040849
     48 C                    -0.269918       0.030071
     49 H                     0.234925      -0.001998
     50 C                    -0.312012      -0.012607
     51 H                     0.227761       0.000174
     52 C                     0.071887       0.051574
     53 C                     0.128063       0.051764
     54 C                    -0.399694      -0.023568
     55 H                     0.237084       0.001115
     56 C                     0.138432       0.039414
     57 C                    -0.268955       0.033376
     58 H                     0.235227      -0.002173
     59 C                    -0.311672      -0.015295
     60 H                     0.228179       0.000315
     61 C                     0.073859       0.055170
     62 C                    -0.716163      -0.002752
     63 H                     0.243309       0.002157
     64 H                     0.243143       0.002128
     65 H                     0.246269      -0.000059
     66 C                    -0.716032      -0.002624
     67 H                     0.243705       0.002145
     68 H                     0.243044       0.002042
     69 H                     0.245502      -0.000065
     70 B                     0.568269       0.306372
     71 C                    -0.210823      -0.026184
     72 C                     0.045563       0.003174
     73 C                    -0.357673      -0.000839
     74 H                     0.204842       0.000375
     75 C                     0.116329       0.000608
     76 C                    -0.354483      -0.000846
     77 H                     0.204537       0.000392
     78 C                     0.044072       0.003318
     79 C                    -0.714929      -0.000050
     80 H                     0.229532       0.000004
     81 H                     0.234055       0.000032
     82 H                     0.229372       0.000009
     83 C                    -0.752602       0.001916
     84 H                     0.232038       0.001393
     85 H                     0.242591      -0.000935
     86 H                     0.243334      -0.001096
     87 C                    -0.751540       0.001901
     88 H                     0.231956       0.001362
     89 H                     0.242548      -0.001024
     90 H                     0.242628      -0.000982
     91 C                    -0.206416      -0.026235
     92 C                     0.045171       0.003099
     93 C                    -0.360175      -0.000837
     94 H                     0.204725       0.000382
     95 C                     0.116270       0.000704
     96 C                    -0.355323      -0.000895
     97 H                     0.204171       0.000398
     98 C                     0.045742       0.003496
     99 C                    -0.714831      -0.000056
    100 H                     0.229691       0.000001
    101 H                     0.233350       0.000037
    102 H                     0.229328       0.000017
    103 C                    -0.752315       0.002045
    104 H                     0.231822       0.001416
    105 H                     0.242569      -0.001040
    106 H                     0.242705      -0.001050
    107 C                    -0.754656       0.001846
    108 H                     0.232198       0.001493
    109 H                     0.243490      -0.001108
    110 H                     0.243387      -0.001024
  --------------------------------------------------------
  Sum of atomic charges =    -0.000000

                    Cartesian Multipole Moments
 -----------------------------------------------------------------
    Charge (ESU x 10^10)
                -0.0000
    Dipole Moment (Debye)
         X      -0.1079      Y       0.0382      Z       0.0109
       Tot       0.1150
    Quadrupole Moments (Debye-Ang)
        XX    -284.0373     XY      -1.8152     YY    -355.8344
        XZ     -20.0461     YZ       6.0145     ZZ    -258.8705

 Total job time:  165766.65s(wall), 467189.91s(cpu)
        *  Thank you very much for using Q-Chem.  Have a nice day.  *
