 Q-Chem 5.0, Q-Chem, Inc., Pleasanton, CA (2017)
 Q-Chem 5.0.1 for Intel X86 EM64T Linux

User input:
--------------------------------------------------------------
$solvent
dielectric      8.93
dielectric_infi 2.03
$end

$rem
threads 8
jobtype	sp
method PBEh-3c
basis def2-mSVP
mem_static	1024
mem_total	14000
sym_ignore	true
cis_n_roots             2
cis_singlets            true
cis_triplets		false
rpa                     false
calc_soc 		true
cis_moments             true
cis_relaxed_density	true
solvent_method		pcm
$end

$pcm
StateSpecific   1
ChargeSeparation Excited
$end

$molecule
read moms1opt_dcm.mol
$end

--------------------------------------------------------------

   14   -2280.7326078786      8.82E-09 Convergence criterion met
 Total energy in the final basis set = -2280.73260788
 Q-Chem 5.0, Q-Chem, Inc., Pleasanton, CA (2017)
 Q-Chem 5.0.1 for Intel X86 EM64T Linux

User input:
--------------------------------------------------------------
$rem
threads 8
jobtype sp
method PBEh-3c
basis def2-mSVP
mem_static      1024
mem_total       14000
sym_ignore      true
cis_n_roots             6
cis_singlets            true
cis_triplets            true
rpa                     false
calc_soc                true
cis_moments             true
cis_relaxed_density     true
solvent_method          pcm
$end

$molecule
read
$end

$pcm
statespecific           Marcus
$end

$solvent
dielectric      8.93
dielectric_infi 2.03
$end

--------------------------------------------------------------

             Standard Nuclear Orientation (Angstroms)
    I     Atom           X                Y                Z
 ----------------------------------------------------------------
    1      C       0.0000000000     0.0000000000     0.0000000000
    2      C       0.0000000000     0.0000000000     1.4106740000
    3      H       0.9385383408     0.0000000000     1.9578921290
    4      C      -1.1781140308    -0.0036354293     2.1079155868
    5      C      -2.4300528822    -0.0123059744     1.4240097046
    6      C      -2.4483904939    -0.0158241709     0.0485004321
    7      H      -3.3959468403    -0.0318440880    -0.4796230197
    8      C      -1.2476526182    -0.0074223823    -0.6956846557
    9      C      -1.4351166025    -0.0090861683     3.5437632660
   10      C      -0.6506414966    -0.0064830866     4.6713571170
   11      H       0.4313101990     0.0048224771     4.6158223373
   12      C      -2.8352438622    -0.0236044874     3.6913581052
   13      C      -3.4834915920    -0.0373267012     4.9251738372
   14      C      -3.4868688113    -0.0265705998     2.4391400828
   15      C      -4.8599135128    -0.0441065843     2.4316694563
   16      H      -5.4260105337    -0.0489510154     1.5086338734
   17      C      -1.2839304456    -0.0192396953     5.9358443120
   18      H      -0.6655216122    -0.0171444273     6.8247686935
   19      C      -2.6537792932    -0.0345107081     6.0742416299
   20      H      -3.0974339951    -0.0445931165     7.0625848111
   21      C      -4.8985750537    -0.0544892050     4.8843927671
   22      H      -5.4688167200    -0.0661863177     5.8054295968
   23      C      -5.5470660767    -0.0575138930     3.6699555457
   24      H      -6.6294617573    -0.0714003083     3.6555953739
   25      B       1.3103323674    -0.0245906716    -0.7833227542
   26      C       1.2973328997    -0.0342826035    -2.3107046879
   27      C       2.5020622221    -0.0262644116    -3.0456344747
   28      H       3.4562337754    -0.0200356014    -2.5258142535
   29      C       2.4842761001    -0.0229007398    -4.4156909007
   30      C       1.2477077082    -0.0261303943    -5.1284876324
   31      C       0.0625957319    -0.0309221643    -4.4277568861
   32      H      -0.8815829716    -0.0273087926    -4.9628965084
   33      C       0.0520222502    -0.0360840701    -3.0151498882
   34      C       3.5758608713    -0.0146975517    -5.3817712968
   35      C       4.9464146850    -0.0085539736    -5.2953266853
   36      H       5.4600775532    -0.0086399031    -4.3412209582
   37      C       2.9720574196    -0.0132742989    -6.6546272055
   38      C       3.6872075947    -0.0062384206    -7.8491231935
   39      C       1.5628426878    -0.0192705686    -6.5582979016
   40      C       0.8384418364    -0.0180182021    -7.7244471403
   41      H      -0.2445069777    -0.0222042729    -7.7249017216
   42      C       5.6957153959    -0.0018038758    -6.4942575072
   43      H       6.7765968837     0.0028592569    -6.4295612095
   44      C       5.1003328930    -0.0006651918    -7.7362876792
   45      H       5.7147837692     0.0048247685    -8.6284517362
   46      C       1.5380931966    -0.0108218104    -8.9555820895
   47      H       0.9622364352    -0.0098253331    -9.8722421647
   48      C       2.9127779442    -0.0050510287    -9.0349308955
   49      H       3.4001196974     0.0005727416   -10.0022489098
   50      B      -1.2781054318    -0.0334001490    -2.2358045833
   51      C      -2.6607495140    -0.0724648154    -2.9992756447
   52      C      -3.4166655736     1.0892619428    -3.1900076954
   53      C      -4.6341088042     1.0531777283    -3.8723872620
   54      H      -5.1837048073     1.9778472935    -4.0018296326
   55      C      -5.1193411182    -0.1484596293    -4.3707090272
   56      O      -6.2843442744    -0.2839061007    -5.0439560867
   57      C      -4.3794490371    -1.3125041405    -4.1802376017
   58      H      -4.7627505435    -2.2509037786    -4.5674823142
   59      C      -3.1671728505    -1.2822143418    -3.5071955897
   60      C      -7.0561026221     0.8699292774    -5.2809767361
   61      H      -7.9320643123     0.5496315496    -5.8410842740
   62      H      -6.5154718948     1.6137783155    -5.8739111742
   63      H      -7.3899003531     1.3422650641    -4.3521760847
   64      C      -2.9091207852     2.4262977694    -2.7114750108
   65      H      -2.3580531732     2.3070531189    -1.7758087440
   66      H      -3.7553981974     3.0804685994    -2.4853466430
   67      C      -2.4326507759    -2.5823867431    -3.2917379450
   68      H      -1.3537951263    -2.4169913675    -3.3360441761
   69      H      -2.6692377461    -3.2734546278    -4.1049668527
   70      C      -2.0070170014     3.1088655279    -3.7378537103
   71      H      -1.1216607315     2.5068277639    -3.9441758661
   72      H      -2.5315736248     3.2647825459    -4.6816816778
   73      H      -1.6701424170     4.0816301339    -3.3763531639
   74      C      -2.7833260011    -3.2410262467    -1.9584695655
   75      H      -2.5124379142    -2.6008782851    -1.1186099991
   76      H      -3.8527122555    -3.4457002883    -1.8898969345
   77      H      -2.2530709584    -4.1872615568    -1.8394296949
   78      C       2.6800500629    -0.0639823340     0.0081776558
   79      C       3.4118903156     1.1381128368     0.2819583893
   80      C       4.5746695350     1.0797091954     0.9919790726
   81      H       5.1503372931     1.9734879475     1.2025879537
   82      C       5.0605534029    -0.1636766127     1.4829858823
   83      O       6.1713395209    -0.0985549870     2.1559480741
   84      C       4.3528505762    -1.3586138982     1.2311600737
   85      H       4.7153547514    -2.3063841707     1.6079526009
   86      C       3.1988369450    -1.3174266885     0.4991165655
   87      C       6.7761960508    -1.2714424221     2.7126176313
   88      H       7.6799566337    -0.9299661553     3.2057993892
   89      H       7.0317200626    -1.9829650012     1.9281565016
   90      H       6.1136902714    -1.7374916869     3.4413652624
   91      C       2.4961290385    -2.6041672371     0.1852506735
   92      H       1.4248918367    -2.4306036070     0.0791916057
   93      H       2.6268265906    -3.2981691908     1.0178591073
   94      C       2.8902232464     2.4720752867    -0.1650985260
   95      H       2.3060102957     2.3577659587    -1.0790274087
   96      H       3.7329218041     3.1225960788    -0.4079112590
   97      C       2.0341306519     3.1305288487     0.9163196848
   98      H       1.6764385236     4.1017944986     0.5757775528
   99      H       1.1634807389     2.5223366163     1.1604326261
  100      H       2.6070298233     3.2832846216     1.8316705011
  101      C       3.0432539986    -3.2389127710    -1.0948084682
  102      H       2.9145100012    -2.5789414184    -1.9518842525
  103      H       2.5143691925    -4.1675373947    -1.3065182735
  104      H       4.1049203621    -3.4680933803    -0.9978764673
 ----------------------------------------------------------------

   15   -2280.7244927740      5.78E-09 Convergence criterion met
 Total energy in the final basis set = -2280.72449277

         TDDFT/TDA Excitation Energies
 ---------------------------------------------------

 Excited state   1: excitation energy (eV) =    1.9783
 Total energy for state  1:                 -2280.65179247 au
    Multiplicity: Triplet
    Trans. Mom.:  0.0000 X   0.0000 Y   0.0000 Z
    Strength   :     0.0000000000
    D(198) --> V(  1) amplitude =  0.9715

 Excited state   2: excitation energy (eV) =    2.0237
 Total energy for state  2:                 -2280.65012478 au
    Multiplicity: Singlet
    Trans. Mom.: -0.3641 X   0.0256 Y  -0.2781 Z
    Strength   :     0.0104390297
    D(198) --> V(  1) amplitude =  0.9773

 Excited state   3: excitation energy (eV) =    2.2499
 Total energy for state  3:                 -2280.64181216 au
    Multiplicity: Triplet
    Trans. Mom.:  0.0000 X   0.0000 Y   0.0000 Z
    Strength   :     0.0000000000
    D(191) --> V(  2) amplitude = -0.2435
    D(195) --> V(  1) amplitude =  0.9075

 Excited state   4: excitation energy (eV) =    2.4343
 Total energy for state  4:                 -2280.63503443 au
    Multiplicity: Triplet
    Trans. Mom.:  0.0000 X   0.0000 Y   0.0000 Z
    Strength   :     0.0000000000
    D(193) --> V(  2) amplitude =  0.4590
    D(196) --> V(  1) amplitude =  0.7840

 Excited state   5: excitation energy (eV) =    2.4924
 Total energy for state  5:                 -2280.63289855 au
    Multiplicity: Triplet
    Trans. Mom.:  0.0000 X   0.0000 Y   0.0000 Z
    Strength   :     0.0000000000
    D(193) --> V(  1) amplitude =  0.6965
    D(193) --> V(  4) amplitude =  0.2132
    D(196) --> V(  2) amplitude =  0.5344
    D(197) --> V(  1) amplitude =  0.2446

 Excited state   6: excitation energy (eV) =    2.7433
 Total energy for state  6:                 -2280.62367763 au
    Multiplicity: Triplet
    Trans. Mom.:  0.0000 X   0.0000 Y   0.0000 Z
    Strength   :     0.0000000000
    D(191) --> V(  1) amplitude =  0.6687
    D(195) --> V(  2) amplitude = -0.5397
    D(197) --> V(  1) amplitude =  0.2556

 Excited state   7: excitation energy (eV) =    2.9208
 Total energy for state  7:                 -2280.61715368 au
    Multiplicity: Singlet
    Trans. Mom.: -0.1102 X  -0.0039 Y   0.2348 Z
    Strength   :     0.0048155882
    D(195) --> V(  1) amplitude =  0.9547

 Excited state   8: excitation energy (eV) =    2.9436
 Total energy for state  8:                 -2280.61631632 au
    Multiplicity: Triplet
    Trans. Mom.:  0.0000 X   0.0000 Y   0.0000 Z
    Strength   :     0.0000000000
    D(193) --> V(  1) amplitude = -0.2157
    D(197) --> V(  1) amplitude =  0.8828

 Excited state   9: excitation energy (eV) =    2.9850
 Total energy for state  9:                 -2280.61479505 au
    Multiplicity: Singlet
    Trans. Mom.:  0.4704 X  -0.0055 Y   0.2723 Z
    Strength   :     0.0216085986
    D(197) --> V(  1) amplitude =  0.9620

 Excited state  10: excitation energy (eV) =    3.1294
 Total energy for state 10:                 -2280.60948817 au
    Multiplicity: Singlet
    Trans. Mom.:  1.9836 X   0.0080 Y  -3.5078 Z
    Strength   :     1.2450951804
    D(196) --> V(  1) amplitude =  0.9460

 Excited state  11: excitation energy (eV) =    3.3108
 Total energy for state 11:                 -2280.60282287 au
    Multiplicity: Singlet
    Trans. Mom.: -0.3312 X   0.0204 Y   0.6449 Z
    Strength   :     0.0426709407
    D(194) --> V(  1) amplitude =  0.9815

 Excited state  12: excitation energy (eV) =    3.3761
 Total energy for state 12:                 -2280.60042201 au
    Multiplicity: Singlet
    Trans. Mom.:  0.0003 X  -0.0409 Y  -0.0919 Z
    Strength   :     0.0008379037
    D(198) --> V(  2) amplitude =  0.9939

 ---------------------------------------------------

                    Orbital Energies (a.u.)
 --------------------------------------------------------------

 Alpha MOs
 -- Occupied --
-19.534 -19.511 -10.512 -10.492 -10.488 -10.473 -10.473 -10.472
-10.472 -10.472 -10.471 -10.471 -10.471 -10.470 -10.470 -10.469
-10.469 -10.468 -10.468 -10.467 -10.467 -10.467 -10.467 -10.466
-10.464 -10.464 -10.463 -10.463 -10.462 -10.462 -10.461 -10.460
-10.458 -10.457 -10.456 -10.456 -10.444 -10.443 -10.443 -10.441
-10.441 -10.440 -10.440 -10.440 -10.439 -10.438 -10.428 -10.428
-10.427 -10.425 -10.425 -10.416 -10.414 -10.413 -10.413 -10.410
 -6.955  -6.943  -1.188  -1.177  -1.023  -1.022  -0.969  -0.965
 -0.963  -0.939  -0.939  -0.937  -0.914  -0.905  -0.896  -0.881
 -0.873  -0.862  -0.861  -0.852  -0.852  -0.849  -0.831  -0.826
 -0.819  -0.817  -0.810  -0.810  -0.807  -0.792  -0.779  -0.758
 -0.741  -0.734  -0.732  -0.726  -0.719  -0.711  -0.701  -0.696
 -0.694  -0.685  -0.685  -0.672  -0.659  -0.651  -0.651  -0.638
 -0.637  -0.617  -0.600  -0.596  -0.596  -0.592  -0.590  -0.587
 -0.581  -0.580  -0.571  -0.567  -0.550  -0.548  -0.548  -0.538
 -0.537  -0.532  -0.526  -0.519  -0.516  -0.512  -0.510  -0.509
 -0.507  -0.500  -0.499  -0.495  -0.494  -0.493  -0.493  -0.492
 -0.489  -0.488  -0.486  -0.485  -0.482  -0.475  -0.473  -0.470
 -0.467  -0.466  -0.461  -0.458  -0.451  -0.446  -0.446  -0.443
 -0.441  -0.437  -0.436  -0.434  -0.432  -0.425  -0.421  -0.419
 -0.418  -0.414  -0.407  -0.404  -0.403  -0.403  -0.402  -0.401
 -0.400  -0.398  -0.397  -0.394  -0.392  -0.389  -0.386  -0.384
 -0.379  -0.371  -0.369  -0.367  -0.361  -0.356  -0.355  -0.345
 -0.338  -0.337  -0.326  -0.321  -0.303  -0.302  -0.290  -0.286
 -0.269  -0.267  -0.264  -0.262  -0.260  -0.224

          Ground-State Mulliken Net Atomic Charges

     Atom                 Charge (a.u.)
  ----------------------------------------
      1 C                    -0.148584
      2 C                    -0.394167
      3 H                     0.270006
      4 C                     0.070065
      5 C                     0.097757
      6 C                    -0.407779
      7 H                     0.245667
      8 C                    -0.151171
      9 C                     0.175700
     10 C                    -0.390268
     11 H                     0.263603
     12 C                    -0.070317
     13 C                     0.214923
     14 C                     0.175436
     15 C                    -0.401423
     16 H                     0.252630
     17 C                    -0.236487
     18 H                     0.263489
     19 C                    -0.347034
     20 H                     0.258220
     21 C                    -0.351226
     22 H                     0.258714
     23 C                    -0.234626
     24 H                     0.259672
     25 B                     0.625464
     26 C                    -0.149283
     27 C                    -0.395930
     28 H                     0.267728
     29 C                     0.069992
     30 C                     0.096762
     31 C                    -0.408667
     32 H                     0.245617
     33 C                    -0.150134
     34 C                     0.175310
     35 C                    -0.388885
     36 H                     0.263513
     37 C                    -0.070322
     38 C                     0.215631
     39 C                     0.174417
     40 C                    -0.399712
     41 H                     0.253095
     42 C                    -0.236945
     43 H                     0.263469
     44 C                    -0.347443
     45 H                     0.258302
     46 C                    -0.234919
     47 H                     0.259945
     48 C                    -0.351189
     49 H                     0.258641
     50 B                     0.628940
     51 C                    -0.218191
     52 C                     0.063289
     53 C                    -0.446756
     54 H                     0.259120
     55 C                     0.386422
     56 O                    -0.470843
     57 C                    -0.404303
     58 H                     0.241418
     59 C                     0.060091
     60 C                    -0.431050
     61 H                     0.255353
     62 H                     0.221070
     63 H                     0.221060
     64 C                    -0.550485
     65 H                     0.250342
     66 H                     0.243077
     67 C                    -0.551511
     68 H                     0.250558
     69 H                     0.244519
     70 C                    -0.660218
     71 H                     0.235616
     72 H                     0.223136
     73 H                     0.231770
     74 C                    -0.660969
     75 H                     0.235903
     76 H                     0.223473
     77 H                     0.232185
     78 C                    -0.271700
     79 C                     0.096490
     80 C                    -0.409073
     81 H                     0.240760
     82 C                     0.401405
     83 O                    -0.451046
     84 C                    -0.456903
     85 H                     0.258998
     86 C                     0.090817
     87 C                    -0.424132
     88 H                     0.256180
     89 H                     0.230752
     90 H                     0.230346
     91 C                    -0.549421
     92 H                     0.241687
     93 H                     0.247539
     94 C                    -0.548527
     95 H                     0.238699
     96 H                     0.248135
     97 C                    -0.658352
     98 H                     0.222179
     99 H                     0.228350
    100 H                     0.231329
    101 C                    -0.656263
    102 H                     0.229064
    103 H                     0.221521
    104 H                     0.230898
  ----------------------------------------
  Sum of atomic charges =     0.000000

                    Cartesian Multipole Moments
 -----------------------------------------------------------------
    Charge (ESU x 10^10)
                 0.0000
    Dipole Moment (Debye)
         X       2.4095      Y      -0.2274      Z       1.9590
       Tot       3.1137
    Quadrupole Moments (Debye-Ang)
        XX    -265.2417     XY     -23.2159     YY    -333.6802
        XZ       0.4509     YZ     -13.6789     ZZ    -273.8027

 Total job time:  10219.93s(wall), 33056.45s(cpu)
        *  Thank you very much for using Q-Chem.  Have a nice day.  *
