 Q-Chem 5.0, Q-Chem, Inc., Pleasanton, CA (2017)
 Q-Chem 5.0.1 for Intel X86 EM64T Linux

User input:
--------------------------------------------------------------
$solvent
dielectric      2.38
dielectric_infi 2.25
$end

$rem
threads 8
jobtype	sp
method PBEh-3c
basis def2-mSVP
mem_static	1024
mem_total	14000
sym_ignore	true
cis_n_roots             2
cis_singlets            true
cis_triplets		false
rpa                     false
calc_soc 		true
cis_moments             true
cis_relaxed_density	true
solvent_method		pcm
$end

$pcm
StateSpecific   1
ChargeSeparation Excited
$end

$molecule
read moms1opt_tol.mol
$end

--------------------------------------------------------------

   15   -2280.7221466531      5.65E-09 Convergence criterion met
 Total energy in the final basis set = -2280.72214665
 Q-Chem 5.0, Q-Chem, Inc., Pleasanton, CA (2017)
 Q-Chem 5.0.1 for Intel X86 EM64T Linux

User input:
--------------------------------------------------------------
$rem
threads 8
jobtype sp
method PBEh-3c
basis def2-mSVP
mem_static      1024
mem_total       14000
sym_ignore      true
cis_n_roots             6
cis_singlets            true
cis_triplets            true
rpa                     false
calc_soc                true
cis_moments             true
cis_relaxed_density     true
solvent_method          pcm
$end

$molecule
read
$end

$pcm
statespecific           Marcus
$end

$solvent
dielectric      2.38
dielectric_infi 2.25
$end

--------------------------------------------------------------

             Standard Nuclear Orientation (Angstroms)
    I     Atom           X                Y                Z
 ----------------------------------------------------------------
    1      C       0.0000000000     0.0000000000     0.0000000000
    2      C       0.0000000000     0.0000000000     1.4110100000
    3      H       0.9387553726     0.0000000000     1.9588126895
    4      C      -1.1771913386    -0.0026693850     2.1080400142
    5      C      -2.4282931570    -0.0121936699     1.4247972530
    6      C      -2.4467053910    -0.0113036744     0.0494007763
    7      H      -3.3927920942    -0.0264601818    -0.4811534425
    8      C      -1.2468952533    -0.0002634845    -0.6940427944
    9      C      -1.4342040784    -0.0104322352     3.5441363223
   10      C      -0.6508134713    -0.0074564115     4.6715223194
   11      H       0.4311028935     0.0088266721     4.6160674236
   12      C      -2.8337061658    -0.0298764222     3.6918670521
   13      C      -3.4816910208    -0.0500380706     4.9250037891
   14      C      -3.4843754985    -0.0324017331     2.4395974953
   15      C      -4.8565204460    -0.0571724182     2.4320992639
   16      H      -5.4215466882    -0.0635092920     1.5085950513
   17      C      -1.2831543001    -0.0257898899     5.9356796317
   18      H      -0.6652642132    -0.0230845131     6.8249959022
   19      C      -2.6522344110    -0.0472188312     6.0733759722
   20      H      -3.0955839072    -0.0619029881     7.0617874883
   21      C      -4.8961795359    -0.0740710841     4.8836143767
   22      H      -5.4670136907    -0.0913420772     5.8041399356
   23      C      -5.5437405671    -0.0773183716     3.6696256061
   24      H      -6.6260127515    -0.0971002659     3.6549084958
   25      B       1.3055624976    -0.0293475124    -0.7886368561
   26      C       1.2948818577    -0.0259754941    -2.3152127691
   27      C       2.4980460557    -0.0203854325    -3.0534035190
   28      H       3.4541646029    -0.0211999248    -2.5363663853
   29      C       2.4771163510    -0.0104112755    -4.4223642030
   30      C       1.2399416745    -0.0044584215    -5.1318498547
   31      C       0.0566715868    -0.0060656968    -4.4281142544
   32      H      -0.8901094994     0.0057910852    -4.9582743926
   33      C       0.0497447602    -0.0190953974    -3.0166293888
   34      C       3.5668266663    -0.0040687536    -5.3908885561
   35      C       4.9368009226    -0.0049108441    -5.3080788141
   36      H       5.4525699699    -0.0098541085    -4.3551091669
   37      C       2.9606736315     0.0042342584    -6.6619107310
   38      C       3.6728440782     0.0104593867    -7.8574382706
   39      C       1.5520725861     0.0053196695    -6.5616656331
   40      C       0.8256168701     0.0130413061    -7.7255621361
   41      H      -0.2571817855     0.0140752262    -7.7226743617
   42      C       5.6837527489     0.0013260973    -6.5076986082
   43      H       6.7648375268     0.0006431651    -6.4459151683
   44      C       5.0855064642     0.0084947749    -7.7474868158
   45      H       5.6982564230     0.0131390498    -8.6408041224
   46      C       1.5219742734     0.0194953482    -8.9579574476
   47      H       0.9439277213     0.0254214266    -9.8731769951
   48      C       2.8956476970     0.0184418544    -9.0408072178
   49      H       3.3801909217     0.0238558267   -10.0094899067
   50      B      -1.2790709861    -0.0155002250    -2.2345414774
   51      C      -2.6616890534    -0.0381521429    -2.9954258551
   52      C      -3.4090085599     1.1307105347    -3.1703635057
   53      C      -4.6269544587     1.1099951767    -3.8512629334
   54      H      -5.1701487010     2.0399610555    -3.9689229174
   55      C      -5.1203313371    -0.0819593613    -4.3629417886
   56      O      -6.2875707423    -0.2023117141    -5.0362417487
   57      C      -4.3882459318    -1.2524813263    -4.1881737622
   58      H      -4.7799621441    -2.1821442958    -4.5869411932
   59      C      -3.1754066103    -1.2383583016    -3.5175226095
   60      C      -7.0497383418     0.9562466656    -5.2576007859
   61      H      -7.9292613268     0.6488985000    -5.8198741279
   62      H      -6.5065317561     1.7047493409    -5.8434077575
   63      H      -7.3801011607     1.4213139603    -4.3231892995
   64      C      -2.8900988561     2.4577757677    -2.6767947269
   65      H      -2.3442953184     2.3246741446    -1.7399263259
   66      H      -3.7311768785     3.1173300468    -2.4459348272
   67      C      -2.4465197887    -2.5443537232    -3.3199058894
   68      H      -1.3671309048    -2.3857713553    -3.3759576692
   69      H      -2.6959680879    -3.2265846389    -4.1368787334
   70      C      -1.9777973305     3.1414823260    -3.6932707041
   71      H      -1.0950817333     2.5357926718    -3.8989339965
   72      H      -2.4955201963     3.3064489461    -4.6392606354
   73      H      -1.6365215201     4.1096202812    -3.3233438717
   74      C      -2.7868660500    -3.2117491520    -1.9884170431
   75      H      -2.4962311343    -2.5847163211    -1.1455323329
   76      H      -3.8577307445    -3.4026849595    -1.9066687851
   77      H      -2.2674405836    -4.1661042559    -1.8864992905
   78      C       2.6748977289    -0.0967146823    -0.0040344163
   79      C       3.4451788209     1.0879155775     0.2526971028
   80      C       4.6122469683     1.0024414930     0.9528134482
   81      H       5.2145560544     1.8813227793     1.1509165089
   82      C       5.0682771182    -0.2476496603     1.4498139919
   83      O       6.1915860406    -0.2066178992     2.1129234966
   84      C       4.3267772656    -1.4232512660     1.2179805719
   85      H       4.6664703912    -2.3771476123     1.6001462997
   86      C       3.1649628669    -1.3601722044     0.4976890009
   87      C       6.7647201334    -1.3899214183     2.6694793846
   88      H       7.6822959699    -1.0741535628     3.1550273977
   89      H       6.9970625078    -2.1154075753     1.8896474393
   90      H       6.0982209759    -1.8364015460     3.4077034492
   91      C       2.4206704345    -2.6271020456     0.2077652314
   92      H       1.3482704073    -2.4320376884     0.1836964374
   93      H       2.5987032933    -3.3422231609     1.0137560904
   94      C       2.9528653863     2.4288180498    -0.2028372324
   95      H       2.3842652286     2.3225765837    -1.1273497326
   96      H       3.8091830929     3.0680789389    -0.4284589928
   97      C       2.0827962813     3.0957461273     0.8627864000
   98      H       1.7481576570     4.0732882755     0.5175060488
   99      H       1.1960228148     2.5020454744     1.0819431669
  100      H       2.6358389308     3.2369618716     1.7923039898
  101      C       2.8593945787    -3.2405997217    -1.1240532001
  102      H       2.6594955896    -2.5676338617    -1.9563545491
  103      H       2.3107103231    -4.1638678645    -1.3059942619
  104      H       3.9245508954    -3.4746880162    -1.1206460000
 ----------------------------------------------------------------

   15   -2280.7216778184      5.72E-09 Convergence criterion met
 Total energy in the final basis set = -2280.72167782

         TDDFT/TDA Excitation Energies
 ---------------------------------------------------

 Excited state   1: excitation energy (eV) =    2.2227
 Total energy for state  1:                 -2280.63999388 au
    Multiplicity: Triplet
    Trans. Mom.:  0.0000 X   0.0000 Y   0.0000 Z
    Strength   :     0.0000000000
    D(191) --> V(  2) amplitude =  0.2413
    D(195) --> V(  1) amplitude =  0.9180

 Excited state   2: excitation energy (eV) =    2.3942
 Total energy for state  2:                 -2280.63369125 au
    Multiplicity: Triplet
    Trans. Mom.:  0.0000 X   0.0000 Y   0.0000 Z
    Strength   :     0.0000000000
    D(198) --> V(  1) amplitude =  0.9172

 Excited state   3: excitation energy (eV) =    2.4343
 Total energy for state  3:                 -2280.63222036 au
    Multiplicity: Triplet
    Trans. Mom.:  0.0000 X   0.0000 Y   0.0000 Z
    Strength   :     0.0000000000
    D(194) --> V(  2) amplitude = -0.4497
    D(196) --> V(  1) amplitude =  0.7812
    D(198) --> V(  1) amplitude = -0.2291

 Excited state   4: excitation energy (eV) =    2.4573
 Total energy for state  4:                 -2280.63137472 au
    Multiplicity: Singlet
    Trans. Mom.: -0.3932 X   0.0367 Y  -0.3361 Z
    Strength   :     0.0161895646
    D(198) --> V(  1) amplitude =  0.9740

 Excited state   5: excitation energy (eV) =    2.4941
 Total energy for state  5:                 -2280.63002299 au
    Multiplicity: Triplet
    Trans. Mom.:  0.0000 X   0.0000 Y   0.0000 Z
    Strength   :     0.0000000000
    D(194) --> V(  1) amplitude =  0.6985
    D(194) --> V(  4) amplitude =  0.2256
    D(196) --> V(  2) amplitude = -0.5333
    D(197) --> V(  1) amplitude = -0.2427

 Excited state   6: excitation energy (eV) =    2.7286
 Total energy for state  6:                 -2280.62140234 au
    Multiplicity: Triplet
    Trans. Mom.:  0.0000 X   0.0000 Y   0.0000 Z
    Strength   :     0.0000000000
    D(191) --> V(  1) amplitude =  0.6588
    D(195) --> V(  2) amplitude =  0.5278
    D(197) --> V(  1) amplitude =  0.2995

 Excited state   7: excitation energy (eV) =    2.8810
 Total energy for state  7:                 -2280.61580261 au
    Multiplicity: Triplet
    Trans. Mom.:  0.0000 X   0.0000 Y   0.0000 Z
    Strength   :     0.0000000000
    D(191) --> V(  1) amplitude = -0.2437
    D(197) --> V(  1) amplitude =  0.8762

 Excited state   8: excitation energy (eV) =    2.8871
 Total energy for state  8:                 -2280.61557928 au
    Multiplicity: Singlet
    Trans. Mom.: -0.0358 X   0.0004 Y  -0.0306 Z
    Strength   :     0.0001571568
    D(195) --> V(  1) amplitude =  0.9603

 Excited state   9: excitation energy (eV) =    2.9169
 Total energy for state  9:                 -2280.61448410 au
    Multiplicity: Singlet
    Trans. Mom.:  0.4839 X  -0.0105 Y   0.2266 Z
    Strength   :     0.0204114561
    D(197) --> V(  1) amplitude =  0.9634

 Excited state  10: excitation energy (eV) =    3.1189
 Total energy for state 10:                 -2280.60706055 au
    Multiplicity: Singlet
    Trans. Mom.:  2.0263 X   0.0152 Y  -3.6091 Z
    Strength   :     1.3090801964
    D(196) --> V(  1) amplitude =  0.9546

 Excited state  11: excitation energy (eV) =    3.4412
 Total energy for state 11:                 -2280.59521625 au
    Multiplicity: Singlet
    Trans. Mom.: -0.0266 X  -0.0133 Y   0.0188 Z
    Strength   :     0.0001046106
    D(194) --> V(  1) amplitude =  0.9387

 Excited state  12: excitation energy (eV) =    3.6660
 Total energy for state 12:                 -2280.58695479 au
    Multiplicity: Singlet
    Trans. Mom.: -0.8534 X   0.0139 Y  -0.4772 Z
    Strength   :     0.0858760275
    D(191) --> V(  1) amplitude = -0.7588
    D(195) --> V(  2) amplitude = -0.5530

 ---------------------------------------------------

                    Orbital Energies (a.u.)
 --------------------------------------------------------------

 Alpha MOs
 -- Occupied --
-19.526 -19.526 -10.503 -10.503 -10.488 -10.484 -10.465 -10.465
-10.465 -10.465 -10.465 -10.465 -10.464 -10.464 -10.463 -10.463
-10.463 -10.463 -10.462 -10.461 -10.461 -10.461 -10.461 -10.461
-10.458 -10.458 -10.458 -10.458 -10.455 -10.454 -10.453 -10.452
-10.451 -10.450 -10.449 -10.449 -10.448 -10.447 -10.436 -10.436
-10.434 -10.434 -10.433 -10.433 -10.432 -10.431 -10.430 -10.430
-10.429 -10.425 -10.419 -10.418 -10.418 -10.418 -10.417 -10.417
 -6.947  -6.940  -1.192  -1.181  -1.016  -1.016  -0.962  -0.959
 -0.955  -0.946  -0.933  -0.933  -0.908  -0.899  -0.889  -0.888
 -0.866  -0.860  -0.855  -0.854  -0.847  -0.846  -0.824  -0.820
 -0.818  -0.813  -0.811  -0.804  -0.801  -0.800  -0.773  -0.768
 -0.735  -0.729  -0.726  -0.720  -0.710  -0.708  -0.703  -0.701
 -0.689  -0.681  -0.679  -0.666  -0.655  -0.645  -0.645  -0.644
 -0.630  -0.626  -0.595  -0.592  -0.591  -0.588  -0.582  -0.582
 -0.580  -0.575  -0.575  -0.563  -0.560  -0.543  -0.543  -0.537
 -0.536  -0.533  -0.526  -0.523  -0.513  -0.507  -0.503  -0.503
 -0.502  -0.500  -0.497  -0.494  -0.493  -0.489  -0.488  -0.486
 -0.485  -0.484  -0.481  -0.480  -0.480  -0.479  -0.477  -0.465
 -0.462  -0.459  -0.457  -0.455  -0.454  -0.450  -0.441  -0.440
 -0.435  -0.433  -0.431  -0.429  -0.428  -0.427  -0.425  -0.416
 -0.416  -0.412  -0.407  -0.405  -0.400  -0.400  -0.397  -0.396
 -0.395  -0.394  -0.393  -0.391  -0.391  -0.387  -0.381  -0.379
 -0.378  -0.373  -0.362  -0.361  -0.357  -0.355  -0.352  -0.349
 -0.341  -0.336  -0.319  -0.314  -0.296  -0.295  -0.283  -0.278
 -0.276  -0.262  -0.257  -0.255  -0.251  -0.235

          Ground-State Mulliken Net Atomic Charges

     Atom                 Charge (a.u.)
  ----------------------------------------
      1 C                    -0.145302
      2 C                    -0.390910
      3 H                     0.248248
      4 C                     0.079286
      5 C                     0.109113
      6 C                    -0.403004
      7 H                     0.245371
      8 C                    -0.150670
      9 C                     0.186097
     10 C                    -0.386212
     11 H                     0.242727
     12 C                    -0.068014
     13 C                     0.230088
     14 C                     0.185438
     15 C                    -0.394768
     16 H                     0.242250
     17 C                    -0.224476
     18 H                     0.247372
     19 C                    -0.341494
     20 H                     0.243182
     21 C                    -0.345457
     22 H                     0.243812
     23 C                    -0.222148
     24 H                     0.246583
     25 B                     0.627338
     26 C                    -0.147367
     27 C                    -0.391752
     28 H                     0.246698
     29 C                     0.078954
     30 C                     0.108335
     31 C                    -0.404446
     32 H                     0.245259
     33 C                    -0.148233
     34 C                     0.185827
     35 C                    -0.384697
     36 H                     0.243204
     37 C                    -0.067980
     38 C                     0.230691
     39 C                     0.184306
     40 C                    -0.393250
     41 H                     0.242715
     42 C                    -0.225049
     43 H                     0.247534
     44 C                    -0.341859
     45 H                     0.243238
     46 C                    -0.222497
     47 H                     0.246819
     48 C                    -0.345427
     49 H                     0.243717
     50 B                     0.645946
     51 C                    -0.221007
     52 C                     0.071791
     53 C                    -0.439707
     54 H                     0.244096
     55 C                     0.392454
     56 O                    -0.464543
     57 C                    -0.394069
     58 H                     0.233109
     59 C                     0.069045
     60 C                    -0.421239
     61 H                     0.248111
     62 H                     0.213749
     63 H                     0.213483
     64 C                    -0.551411
     65 H                     0.254166
     66 H                     0.235366
     67 C                    -0.551842
     68 H                     0.253104
     69 H                     0.238399
     70 C                    -0.654576
     71 H                     0.241659
     72 H                     0.219178
     73 H                     0.224663
     74 C                    -0.655889
     75 H                     0.241048
     76 H                     0.221294
     77 H                     0.224192
     78 C                    -0.261735
     79 C                     0.096603
     80 C                    -0.406629
     81 H                     0.229203
     82 C                     0.394031
     83 O                    -0.450989
     84 C                    -0.459204
     85 H                     0.240336
     86 C                     0.091594
     87 C                    -0.417670
     88 H                     0.252799
     89 H                     0.221857
     90 H                     0.221582
     91 C                    -0.551107
     92 H                     0.255102
     93 H                     0.235080
     94 C                    -0.549876
     95 H                     0.251449
     96 H                     0.237828
     97 C                    -0.655610
     98 H                     0.222959
     99 H                     0.240588
    100 H                     0.221475
    101 C                    -0.654563
    102 H                     0.243435
    103 H                     0.222487
    104 H                     0.219212
  ----------------------------------------
  Sum of atomic charges =     0.000000

                    Cartesian Multipole Moments
 -----------------------------------------------------------------
    Charge (ESU x 10^10)
                 0.0000
    Dipole Moment (Debye)
         X       0.4777      Y      -0.1539      Z       0.7985
       Tot       0.9432
    Quadrupole Moments (Debye-Ang)
        XX    -278.6668     XY     -20.7662     YY    -334.7461
        XZ      -0.8376     YZ     -12.4316     ZZ    -279.2161

 Total job time:  11951.38s(wall), 39489.93s(cpu)
        *  Thank you very much for using Q-Chem.  Have a nice day.  *
