 Q-Chem 5.0, Q-Chem, Inc., Pleasanton, CA (2017)
 Q-Chem 5.0.1 for Intel X86 EM64T Linux

User input:
--------------------------------------------------------------
$solvent
dielectric      2.03
dielectric_infi 2.02
$end

$rem
threads 8
jobtype	sp
method PBEh-3c
basis def2-mSVP
mem_static	1024
mem_total	14000
sym_ignore	true
cis_n_roots             2
cis_singlets            true
cis_triplets		false
rpa                     false
calc_soc 		true
cis_moments             true
cis_relaxed_density	true
solvent_method		pcm
$end

$pcm
StateSpecific   1
ChargeSeparation Excited
$end

$molecule
read moms1opt_chx.mol
$end

--------------------------------------------------------------

   15   -2280.7198773389      5.88E-09 Convergence criterion met
 Total energy in the final basis set = -2280.71987734
 Q-Chem 5.0, Q-Chem, Inc., Pleasanton, CA (2017)
 Q-Chem 5.0.1 for Intel X86 EM64T Linux

User input:
--------------------------------------------------------------
$rem
threads 8
jobtype sp
method PBEh-3c
basis def2-mSVP
mem_static      1024
mem_total       14000
sym_ignore      true
cis_n_roots             6
cis_singlets            true
cis_triplets            true
rpa                     false
calc_soc                true
cis_moments             true
cis_relaxed_density     true
solvent_method          pcm
$end

$molecule
read
$end

$pcm
statespecific           Marcus
$end

$solvent
dielectric      2.03
dielectric_infi 2.02
$end

--------------------------------------------------------------

             Standard Nuclear Orientation (Angstroms)
    I     Atom           X                Y                Z
 ----------------------------------------------------------------
    1      C       0.0000000000     0.0000000000     0.0000000000
    2      C       0.0000000000     0.0000000000     1.4111020000
    3      H       0.9387095713     0.0000000000     1.9591259918
    4      C      -1.1770882906    -0.0026126754     2.1080275556
    5      C      -2.4280503012    -0.0119020735     1.4248906812
    6      C      -2.4464197316    -0.0101459094     0.0495054665
    7      H      -3.3922330640    -0.0247886948    -0.4815217490
    8      C      -1.2467209122     0.0010620312    -0.6937943764
    9      C      -1.4340734081    -0.0109759596     3.5441640399
   10      C      -0.6508001395    -0.0084069336     4.6714572196
   11      H       0.4311064429     0.0082721163     4.6159291999
   12      C      -2.8334596428    -0.0308080723     3.6919118050
   13      C      -3.4813681601    -0.0518952129     4.9249545486
   14      C      -3.4840199571    -0.0328413349     2.4396602152
   15      C      -4.8560164107    -0.0581423245     2.4322000717
   16      H      -5.4209260721    -0.0642777434     1.5086536602
   17      C      -1.2829610520    -0.0276061928     5.9355686618
   18      H      -0.6651199668    -0.0251909250     6.8249125056
   19      C      -2.6519121927    -0.0495463060     6.0731775504
   20      H      -3.0951953260    -0.0649414844     7.0615992436
   21      C      -4.8957572938    -0.0764079725     4.8834935201
   22      H      -5.4666474497    -0.0944380871     5.8039521397
   23      C      -5.5432224561    -0.0791958907     3.6696156760
   24      H      -6.6254736791    -0.0994021723     3.6548899175
   25      B       1.3049491608    -0.0299202046    -0.7894694657
   26      C       1.2945349027    -0.0257849970    -2.3159523401
   27      C       2.4975066221    -0.0219639272    -3.0546457298
   28      H       3.4539138777    -0.0246797485    -2.5380357046
   29      C       2.4760242861    -0.0110439272    -4.4234336107
   30      C       1.2387375438    -0.0023593178    -5.1323657931
   31      C       0.0557515308    -0.0026524301    -4.4281275324
   32      H      -0.8914754487     0.0112578361    -4.9574139577
   33      C       0.0494109798    -0.0170058767    -3.0168287628
   34      C       3.5654169840    -0.0057159128    -5.3923634473
   35      C       4.9352773388    -0.0089298499    -5.3101159402
   36      H       5.4513486628    -0.0156120533    -4.3573251120
   37      C       2.9588674743     0.0047777365    -6.6630506175
   38      C       3.6705546377     0.0109652238    -7.8587474096
   39      C       1.5503759762     0.0082105510    -6.5621804131
   40      C       0.8236106525     0.0184024096    -7.7257136824
   41      H      -0.2591560213     0.0213408972    -7.7223134307
   42      C       5.6818349016    -0.0028347108    -6.5098534845
   43      H       6.7629378420    -0.0053684454    -6.4485430033
   44      C       5.0831227851     0.0065233697    -7.7492578317
   45      H       5.6955772031     0.0110115948    -8.6427664593
   46      C       1.5194292407     0.0248667313    -8.9583029984
   47      H       0.9410572608     0.0327465073    -9.8732844422
   48      C       2.8929306149     0.0215031275    -9.0416995352
   49      H       3.3770401064     0.0270719093   -10.0105825318
   50      B      -1.2792584009    -0.0124773731    -2.2343723325
   51      C      -2.6619086229    -0.0319873470    -2.9945632305
   52      C      -3.4076786838     1.1382080000    -3.1664578498
   53      C      -4.6261101211     1.1202585912    -3.8463060515
   54      H      -5.1681237734     2.0511875673    -3.9616613005
   55      C      -5.1214031961    -0.0700264857    -4.3597835356
   56      O      -6.2894197130    -0.1877308566    -5.0322255143
   57      C      -4.3907639807    -1.2417602399    -4.1880172894
   58      H      -4.7843511363    -2.1698788499    -4.5883626929
   59      C      -3.1773972275    -1.2305292962    -3.5186283348
   60      C      -7.0498188023     0.9716531076    -5.2509328816
   61      H      -7.9302217670     0.6664913032    -5.8131011753
   62      H      -6.5062816511     1.7207108802    -5.8359268523
   63      H      -7.3791245231     1.4358534733    -4.3155852438
   64      C      -2.8864146715     2.4634850070    -2.6706222256
   65      H      -2.3413068782     2.3279592008    -1.7336846383
   66      H      -3.7263779222     3.1241603430    -2.4388116458
   67      C      -2.4497184041    -2.5376525535    -3.3242103597
   68      H      -1.3702356865    -2.3803807572    -3.3823429228
   69      H      -2.7015491620    -3.2182874735    -4.1417913022
   70      C      -1.9725907547     3.1471464891    -3.6857405726
   71      H      -1.0905263550     2.5406470647    -3.8916786960
   72      H      -2.4895108000     3.3137711367    -4.6318524120
   73      H      -1.6302892738     4.1144617392    -3.3145817571
   74      C      -2.7883215919    -3.2065868237    -1.9930723141
   75      H      -2.4944121020    -2.5817809825    -1.1496953325
   76      H      -3.8593842167    -3.3952685085    -1.9091265004
   77      H      -2.2708062645    -4.1623005103    -1.8940486662
   78      C       2.6738388281    -0.0990238570    -0.0055753916
   79      C       3.4486833417     1.0841834565     0.2462551896
   80      C       4.6161779292     0.9973272687     0.9454996419
   81      H       5.2213783911     1.8749832719     1.1400821839
   82      C       5.0688015232    -0.2520869073     1.4460919513
   83      O       6.1939353576    -0.2121441503     2.1080552463
   84      C       4.3236430535    -1.4258814376     1.2195799342
   85      H       4.6608736877    -2.3795918055     1.6043675549
   86      C       3.1606098834    -1.3622077984     0.5008246966
   87      C       6.7631035812    -1.3951077031     2.6669446347
   88      H       7.6820707030    -1.0814691785     3.1514169065
   89      H       6.9932800121    -2.1238940141     1.8893676489
   90      H       6.0962012030    -1.8382726604     3.4069786089
   91      C       2.4114068978    -2.6273613480     0.2172300826
   92      H       1.3393053513    -2.4296702352     0.2026797395
   93      H       2.5949009298    -3.3431407029     1.0215007935
   94      C       2.9594915176     2.4245293555    -0.2135752715
   95      H       2.3938533050     2.3167400169    -1.1397099534
   96      H       3.8171604482     3.0626587152    -0.4374790477
   97      C       2.0859865611     3.0938423226     0.8478789733
   98      H       1.7533449233     4.0709852760     0.4996306403
   99      H       1.1978756515     2.5012788588     1.0645091393
  100      H       2.6355323719     3.2364203136     1.7792782702
  101      C       2.8369726426    -3.2410866609    -1.1188542705
  102      H       2.6303199646    -2.5674946497    -1.9489246857
  103      H       2.2850703858    -4.1633328368    -1.2960825974
  104      H       3.9017185582    -3.4770347432    -1.1255080591
 ----------------------------------------------------------------

   15   -2280.7198324059      5.88E-09 Convergence criterion met
 Total energy in the final basis set = -2280.71983241

         TDDFT/TDA Excitation Energies
 ---------------------------------------------------

 Excited state   1: excitation energy (eV) =    2.2201
 Total energy for state  1:                 -2280.63824429 au
    Multiplicity: Triplet
    Trans. Mom.:  0.0000 X   0.0000 Y   0.0000 Z
    Strength   :     0.0000000000
    D(191) --> V(  2) amplitude = -0.2414
    D(195) --> V(  1) amplitude =  0.9189

 Excited state   2: excitation energy (eV) =    2.4129
 Total energy for state  2:                 -2280.63116024 au
    Multiplicity: Triplet
    Trans. Mom.:  0.0000 X   0.0000 Y   0.0000 Z
    Strength   :     0.0000000000
    D(194) --> V(  2) amplitude =  0.2148
    D(196) --> V(  1) amplitude =  0.3601
    D(198) --> V(  1) amplitude =  0.8348

 Excited state   3: excitation energy (eV) =    2.4372
 Total energy for state  3:                 -2280.63026598 au
    Multiplicity: Triplet
    Trans. Mom.:  0.0000 X   0.0000 Y   0.0000 Z
    Strength   :     0.0000000000
    D(194) --> V(  2) amplitude =  0.4132
    D(196) --> V(  1) amplitude =  0.7208
    D(198) --> V(  1) amplitude = -0.4132

 Excited state   4: excitation energy (eV) =    2.4826
 Total energy for state  4:                 -2280.62859892 au
    Multiplicity: Singlet
    Trans. Mom.:  0.4006 X  -0.0378 Y   0.3395 Z
    Strength   :     0.0168575970
    D(198) --> V(  1) amplitude =  0.9737

 Excited state   5: excitation energy (eV) =    2.4958
 Total energy for state  5:                 -2280.62811369 au
    Multiplicity: Triplet
    Trans. Mom.:  0.0000 X   0.0000 Y   0.0000 Z
    Strength   :     0.0000000000
    D(194) --> V(  1) amplitude =  0.6884
    D(194) --> V(  4) amplitude = -0.2227
    D(196) --> V(  2) amplitude =  0.5253
    D(197) --> V(  1) amplitude = -0.2461
    D(198) --> V(  1) amplitude =  0.2130

 Excited state   6: excitation energy (eV) =    2.7275
 Total energy for state  6:                 -2280.61959922 au
    Multiplicity: Triplet
    Trans. Mom.:  0.0000 X   0.0000 Y   0.0000 Z
    Strength   :     0.0000000000
    D(191) --> V(  1) amplitude =  0.6574
    D(195) --> V(  2) amplitude = -0.5266
    D(197) --> V(  1) amplitude =  0.2995

 Excited state   7: excitation energy (eV) =    2.8772
 Total energy for state  7:                 -2280.61409547 au
    Multiplicity: Triplet
    Trans. Mom.:  0.0000 X   0.0000 Y   0.0000 Z
    Strength   :     0.0000000000
    D(191) --> V(  1) amplitude = -0.2447
    D(197) --> V(  1) amplitude =  0.8758

 Excited state   8: excitation energy (eV) =    2.8855
 Total energy for state  8:                 -2280.61379271 au
    Multiplicity: Singlet
    Trans. Mom.:  0.0475 X   0.0007 Y   0.0114 Z
    Strength   :     0.0001689883
    D(195) --> V(  1) amplitude =  0.9608

 Excited state   9: excitation energy (eV) =    2.9135
 Total energy for state  9:                 -2280.61276403 au
    Multiplicity: Singlet
    Trans. Mom.: -0.4745 X   0.0116 Y  -0.2200 Z
    Strength   :     0.0195369191
    D(197) --> V(  1) amplitude =  0.9631

 Excited state  10: excitation energy (eV) =    3.1282
 Total energy for state 10:                 -2280.60487257 au
    Multiplicity: Singlet
    Trans. Mom.: -1.9942 X  -0.0155 Y   3.5539 Z
    Strength   :     1.2728101088
    D(196) --> V(  1) amplitude =  0.9550

 Excited state  11: excitation energy (eV) =    3.4496
 Total energy for state 11:                 -2280.59306088 au
    Multiplicity: Singlet
    Trans. Mom.:  0.0275 X   0.0126 Y  -0.0165 Z
    Strength   :     0.0001001246
    D(194) --> V(  1) amplitude =  0.9385

 Excited state  12: excitation energy (eV) =    3.6658
 Total energy for state 12:                 -2280.58511746 au
    Multiplicity: Singlet
    Trans. Mom.: -0.8340 X   0.0151 Y  -0.4650 Z
    Strength   :     0.0819027454
    D(191) --> V(  1) amplitude =  0.7557
    D(195) --> V(  2) amplitude = -0.5563

 ---------------------------------------------------

                    Orbital Energies (a.u.)
 --------------------------------------------------------------

 Alpha MOs
 -- Occupied --
-19.527 -19.525 -10.504 -10.502 -10.490 -10.484 -10.465 -10.465
-10.465 -10.464 -10.464 -10.464 -10.463 -10.463 -10.462 -10.462
-10.462 -10.462 -10.461 -10.461 -10.461 -10.461 -10.460 -10.460
-10.458 -10.458 -10.458 -10.458 -10.454 -10.453 -10.452 -10.452
-10.450 -10.449 -10.449 -10.448 -10.448 -10.447 -10.435 -10.435
-10.433 -10.433 -10.433 -10.432 -10.431 -10.431 -10.430 -10.429
-10.429 -10.426 -10.419 -10.418 -10.418 -10.417 -10.417 -10.417
 -6.946  -6.940  -1.192  -1.181  -1.015  -1.015  -0.961  -0.958
 -0.954  -0.946  -0.932  -0.932  -0.907  -0.898  -0.889  -0.887
 -0.865  -0.861  -0.854  -0.853  -0.846  -0.846  -0.824  -0.819
 -0.818  -0.812  -0.811  -0.803  -0.800  -0.800  -0.772  -0.768
 -0.735  -0.728  -0.726  -0.720  -0.709  -0.708  -0.702  -0.701
 -0.688  -0.680  -0.679  -0.665  -0.655  -0.645  -0.644  -0.643
 -0.629  -0.626  -0.595  -0.591  -0.590  -0.587  -0.582  -0.581
 -0.581  -0.575  -0.575  -0.562  -0.561  -0.543  -0.542  -0.538
 -0.535  -0.532  -0.526  -0.522  -0.513  -0.506  -0.503  -0.503
 -0.502  -0.499  -0.497  -0.494  -0.492  -0.489  -0.487  -0.485
 -0.484  -0.483  -0.481  -0.480  -0.479  -0.478  -0.476  -0.465
 -0.462  -0.459  -0.457  -0.454  -0.454  -0.450  -0.440  -0.439
 -0.434  -0.432  -0.431  -0.428  -0.428  -0.426  -0.425  -0.416
 -0.415  -0.411  -0.407  -0.405  -0.400  -0.399  -0.397  -0.395
 -0.395  -0.393  -0.392  -0.391  -0.390  -0.386  -0.380  -0.379
 -0.377  -0.372  -0.362  -0.361  -0.357  -0.354  -0.352  -0.348
 -0.341  -0.335  -0.318  -0.313  -0.295  -0.295  -0.282  -0.278
 -0.275  -0.262  -0.256  -0.254  -0.250  -0.235

          Ground-State Mulliken Net Atomic Charges

     Atom                 Charge (a.u.)
  ----------------------------------------
      1 C                    -0.145105
      2 C                    -0.390431
      3 H                     0.246183
      4 C                     0.080985
      5 C                     0.110973
      6 C                    -0.402570
      7 H                     0.244495
      8 C                    -0.150615
      9 C                     0.188021
     10 C                    -0.385218
     11 H                     0.239434
     12 C                    -0.067660
     13 C                     0.233113
     14 C                     0.187237
     15 C                    -0.393737
     16 H                     0.239506
     17 C                    -0.221873
     18 H                     0.244329
     19 C                    -0.340306
     20 H                     0.239943
     21 C                    -0.344279
     22 H                     0.240587
     23 C                    -0.219514
     24 H                     0.243706
     25 B                     0.627503
     26 C                    -0.147310
     27 C                    -0.391169
     28 H                     0.244619
     29 C                     0.080693
     30 C                     0.110165
     31 C                    -0.404051
     32 H                     0.244333
     33 C                    -0.148086
     34 C                     0.187745
     35 C                    -0.383694
     36 H                     0.239953
     37 C                    -0.067620
     38 C                     0.233706
     39 C                     0.186095
     40 C                    -0.392228
     41 H                     0.239979
     42 C                    -0.222461
     43 H                     0.244519
     44 C                    -0.340660
     45 H                     0.240005
     46 C                    -0.219871
     47 H                     0.243948
     48 C                    -0.344241
     49 H                     0.240499
     50 B                     0.647163
     51 C                    -0.221232
     52 C                     0.073226
     53 C                    -0.438184
     54 H                     0.240953
     55 C                     0.393697
     56 O                    -0.463112
     57 C                    -0.391916
     58 H                     0.231331
     59 C                     0.070543
     60 C                    -0.419166
     61 H                     0.246768
     62 H                     0.212230
     63 H                     0.211909
     64 C                    -0.551401
     65 H                     0.254565
     66 H                     0.233831
     67 C                    -0.551765
     68 H                     0.253310
     69 H                     0.237140
     70 C                    -0.653358
     71 H                     0.242449
     72 H                     0.218429
     73 H                     0.223589
     74 C                    -0.654774
     75 H                     0.241717
     76 H                     0.220827
     77 H                     0.223029
     78 C                    -0.260717
     79 C                     0.097305
     80 C                    -0.404642
     81 H                     0.227284
     82 C                     0.394533
     83 O                    -0.450332
     84 C                    -0.457874
     85 H                     0.236935
     86 C                     0.092572
     87 C                    -0.415897
     88 H                     0.251561
     89 H                     0.220149
     90 H                     0.219821
     91 C                    -0.550981
     92 H                     0.255945
     93 H                     0.233169
     94 C                    -0.549885
     95 H                     0.252263
     96 H                     0.236336
     97 C                    -0.654643
     98 H                     0.222284
     99 H                     0.241708
    100 H                     0.220589
    101 C                    -0.653651
    102 H                     0.244867
    103 H                     0.221822
    104 H                     0.218102
  ----------------------------------------
  Sum of atomic charges =     0.000000

                    Cartesian Multipole Moments
 -----------------------------------------------------------------
    Charge (ESU x 10^10)
                 0.0000
    Dipole Moment (Debye)
         X       0.3625      Y      -0.1434      Z       0.7230
       Tot       0.8214
    Quadrupole Moments (Debye-Ang)
        XX    -280.4987     XY     -20.3000     YY    -335.0528
        XZ      -0.7835     YZ     -12.2025     ZZ    -280.6873

 Total job time:  11413.85s(wall), 38631.99s(cpu)
        *  Thank you very much for using Q-Chem.  Have a nice day.  *
