 Q-Chem 5.0, Q-Chem, Inc., Pleasanton, CA (2017)
 Q-Chem 5.0.1 for Intel X86 EM64T Linux

User input:
--------------------------------------------------------------
$solvent
dielectric      1.0001
dielectric_infi 1.00009
$end

$rem
threads 8
jobtype	sp
method PBEh-3c
basis def2-mSVP
mem_static	1024
mem_total	14000
sym_ignore	true
cis_n_roots             2
cis_singlets            true
cis_triplets		false
rpa                     false
calc_soc 		true
cis_moments             true
cis_relaxed_density	true
solvent_method		pcm
$end

$pcm
StateSpecific   1
ChargeSeparation Excited
$end

$molecule
read moms1opt_vac.mol
$end

--------------------------------------------------------------

   15   -2280.7073372402      7.06E-09 Convergence criterion met
 Total energy in the final basis set = -2280.70733724
 Q-Chem 5.0, Q-Chem, Inc., Pleasanton, CA (2017)
 Q-Chem 5.0.1 for Intel X86 EM64T Linux

User input:
--------------------------------------------------------------
$rem
threads 8
jobtype sp
method PBEh-3c
basis def2-mSVP
mem_static      1024
mem_total       14000
sym_ignore      true
cis_n_roots             6
cis_singlets            true
cis_triplets            true
rpa                     false
calc_soc                true
cis_moments             true
cis_relaxed_density     true
solvent_method          pcm
$end

$molecule
read
$end

$pcm
statespecific           Marcus
$end

$solvent
dielectric      1.0001
dielectric_infi 1.00009
$end

--------------------------------------------------------------

             Standard Nuclear Orientation (Angstroms)
    I     Atom           X                Y                Z
 ----------------------------------------------------------------
    1      C       0.0000000000     0.0000000000     0.0000000000
    2      C       0.0000000000     0.0000000000     1.4026150000
    3      H       0.9450245817     0.0000000000     1.9338984088
    4      C      -1.1806680776    -0.0055717215     2.0939934294
    5      C      -1.4409139231    -0.0148196813     3.5160119802
    6      C      -0.6537427256    -0.0137632631     4.6431820735
    7      H       0.4271419542     0.0008891291     4.5833964145
    8      C      -1.2866438777    -0.0325359649     5.9023945681
    9      H      -0.6708332655    -0.0315141980     6.7924102365
   10      C      -2.6575692365    -0.0529419159     6.0393459023
   11      H      -3.0982949557    -0.0681127728     7.0285735355
   12      C      -2.8430319409    -0.0336096283     3.6613625941
   13      C      -3.4903696704    -0.0541471304     4.8954179987
   14      C      -3.4988213169    -0.0342295834     2.4113938817
   15      C      -4.8716676523    -0.0573512283     2.4023219506
   16      H      -5.4352438753    -0.0620963719     1.4785059067
   17      C      -5.5545773683    -0.0776634741     3.6381567621
   18      H      -6.6363919992    -0.0962316526     3.6276483000
   19      C      -4.9028171994    -0.0764028524     4.8512056342
   20      H      -5.4739340833    -0.0937936259     5.7712086603
   21      C      -2.4519248448    -0.0137246062     1.3994365915
   22      C      -2.4761041120    -0.0072477102     0.0306734604
   23      H      -3.4186039593    -0.0172401246    -0.5043815144
   24      C      -1.2719496540     0.0043637107    -0.7078926106
   25      B       1.3329203186    -0.0215081076    -0.7532640334
   26      C       1.2836281397    -0.0277175207    -2.2850235457
   27      C       2.4818319359    -0.0516195983    -3.0133306655
   28      H       3.4245447358    -0.0755699646    -2.4779914298
   29      C       2.4607450474    -0.0418353486    -4.3826173549
   30      C       3.5399857525    -0.0566885036    -5.3413163612
   31      C       4.9113816848    -0.0866549978    -5.2490776045
   32      H       5.4184634703    -0.1056711924    -4.2925851422
   33      C       5.6586904603    -0.0919703236    -6.4432024781
   34      H       6.7387736180    -0.1155984317    -6.3792466229
   35      C       5.0643884394    -0.0677528846    -7.6868758666
   36      H       5.6831460676    -0.0727875686    -8.5756200343
   37      C       2.9360675259    -0.0318616229    -6.6161356127
   38      C       3.6547573592    -0.0361501461    -7.8084984511
   39      C       1.5264076317    -0.0019398025    -6.5276376985
   40      C       0.8038150983     0.0246660705    -7.6948033536
   41      H      -0.2782128424     0.0479694414    -7.6953709906
   42      C       1.5065991979     0.0210344078    -8.9191644481
   43      H       0.9369050989     0.0421205283    -9.8387473943
   44      C       2.8818676802    -0.0080766161    -8.9919150151
   45      H       3.3701696337    -0.0093837484    -9.9583865918
   46      C       1.2054796875    -0.0083007903    -5.1092947802
   47      C       0.0220341401     0.0119138890    -4.4187458730
   48      H      -0.9239427297     0.0402184381    -4.9477532271
   49      C       0.0154041728    -0.0020171530    -3.0065151451
   50      B      -1.3141975036     0.0103571785    -2.2406197509
   51      C      -2.6937261667     0.0205903005    -3.0016640438
   52      C      -3.4253213578     1.2031066082    -3.1491443718
   53      C      -4.6439296782     1.2122393271    -3.8274622778
   54      H      -5.1750037377     2.1513751874    -3.9236734652
   55      C      -5.1529173166     0.0384315811    -4.3643534299
   56      O      -6.3208484596    -0.0535617485    -5.0371506940
   57      C      -4.4359758164    -1.1447608656    -4.2171690062
   58      H      -4.8427484334    -2.0583272108    -4.6362543854
   59      C      -3.2229184679    -1.1617757221    -3.5493506028
   60      C      -7.0669314832     1.1151382302    -5.2379588064
   61      H      -7.9484716015     0.8288144743    -5.8081515714
   62      H      -6.5142755591     1.8693278453    -5.8083598494
   63      H      -7.3957181347     1.5676826113    -4.2962405870
   64      C      -2.8892569606     2.5126136277    -2.6277914234
   65      H      -2.3604276397     2.3590883083    -1.6840909900
   66      H      -3.7211775212     3.1842717973    -2.3991797254
   67      C      -2.5113114288    -2.4812903596    -3.3811840537
   68      H      -1.4298394490    -2.3423377846    -3.4534009956
   69      H      -2.7845874475    -3.1477684924    -4.2032906074
   70      C      -1.9497935220     3.1948793259    -3.6194662018
   71      H      -1.0708360620     2.5809853515    -3.8174780026
   72      H      -2.4480707070     3.3762103113    -4.5725629574
   73      H      -1.6016811666     4.1539160689    -3.2335283296
   74      C      -2.8395832187    -3.1630051187    -2.0545520706
   75      H      -2.5180480828    -2.5589550092    -1.2059777170
   76      H      -3.9124547477    -3.3307493528    -1.9543075308
   77      H      -2.3397393695    -4.1296228488    -1.9782845302
   78      C       2.7070871260    -0.0504975233     0.0294297634
   79      C       3.2172549294    -1.2467153013     0.5458009781
   80      C       4.4230542038    -1.2737636944     1.2462887439
   81      H       4.7780560204    -2.2248440359     1.6255807558
   82      C       5.1452884309    -0.1072070735     1.4442190137
   83      O       6.3208087808    -0.0357698821     2.1066700841
   84      C       4.6498851781     1.0892224631     0.9372559079
   85      H       5.2159180875     2.0001134654     1.0975116422
   86      C       3.4518361376     1.1243369549     0.2427801775
   87      C       6.8633240200    -1.2167538561     2.6318110430
   88      H       7.7983450881    -0.9423095214     3.1162646177
   89      H       6.2099392793    -1.6806907513     3.3783280844
   90      H       7.0798266952    -1.9578426664     1.8550474534
   91      C       2.9398952735     2.4649645608    -0.2156599876
   92      H       2.3417515032     2.3562724999    -1.1231704465
   93      H       3.7840738805     3.1057707774    -0.4835922348
   94      C       2.5184785475    -2.5631302792     0.3155791172
   95      H       1.4436849913    -2.4096828395     0.1998190960
   96      H       2.6396035375    -3.2005797664     1.1959102160
   97      C       3.0568927165    -3.2917829982    -0.9134093814
   98      H       2.9034454600    -2.7005640628    -1.8164973585
   99      H       2.5556813961    -4.2502467203    -1.0543706108
  100      H       4.1268762417    -3.4828724027    -0.8211567436
  101      C       2.1057142008     3.1550846674     0.8611244359
  102      H       1.2241705968     2.5658992239     1.1150067450
  103      H       2.6846701846     3.2942071704     1.7748675691
  104      H       1.7638655175     4.1352832607     0.5265343752
 ----------------------------------------------------------------

   15   -2280.7073371888      7.06E-09 Convergence criterion met
 Total energy in the final basis set = -2280.70733719

         TDDFT/TDA Excitation Energies
 ---------------------------------------------------

 Excited state   1: excitation energy (eV) =    1.9703
 Total energy for state  1:                 -2280.63493016 au
    Multiplicity: Triplet
    Trans. Mom.:  0.0000 X   0.0000 Y   0.0000 Z
    Strength   :     0.0000000000
    D(191) --> V(  2) amplitude = -0.2378
    D(197) --> V(  1) amplitude =  0.9123

 Excited state   2: excitation energy (eV) =    2.3664
 Total energy for state  2:                 -2280.62037222 au
    Multiplicity: Triplet
    Trans. Mom.:  0.0000 X   0.0000 Y   0.0000 Z
    Strength   :     0.0000000000
    D(194) --> V(  2) amplitude =  0.4584
    D(195) --> V(  1) amplitude =  0.8028

 Excited state   3: excitation energy (eV) =    2.4191
 Total energy for state  3:                 -2280.61843706 au
    Multiplicity: Triplet
    Trans. Mom.:  0.0000 X   0.0000 Y   0.0000 Z
    Strength   :     0.0000000000
    D(194) --> V(  1) amplitude =  0.6740
    D(195) --> V(  2) amplitude =  0.4760
    D(197) --> V(  2) amplitude =  0.2569

 Excited state   4: excitation energy (eV) =    2.5049
 Total energy for state  4:                 -2280.61528215 au
    Multiplicity: Triplet
    Trans. Mom.:  0.0000 X   0.0000 Y   0.0000 Z
    Strength   :     0.0000000000
    D(191) --> V(  1) amplitude =  0.6402
    D(195) --> V(  2) amplitude =  0.2673
    D(197) --> V(  2) amplitude = -0.4716
    D(198) --> V(  1) amplitude =  0.2833

 Excited state   5: excitation energy (eV) =    2.6514
 Total energy for state  5:                 -2280.60990115 au
    Multiplicity: Singlet
    Trans. Mom.:  0.1329 X  -0.0098 Y  -0.1796 Z
    Strength   :     0.0032485924
    D(197) --> V(  1) amplitude =  0.9484

 Excited state   6: excitation energy (eV) =    2.7411
 Total energy for state  6:                 -2280.60660353 au
    Multiplicity: Triplet
    Trans. Mom.:  0.0000 X   0.0000 Y   0.0000 Z
    Strength   :     0.0000000000
    D(191) --> V(  1) amplitude = -0.2721
    D(198) --> V(  1) amplitude =  0.8605

 Excited state   7: excitation energy (eV) =    2.7909
 Total energy for state  7:                 -2280.60477317 au
    Multiplicity: Singlet
    Trans. Mom.: -0.5589 X   0.0314 Y  -0.3432 Z
    Strength   :     0.0294777221
    D(198) --> V(  1) amplitude =  0.9414

 Excited state   8: excitation energy (eV) =    2.8480
 Total energy for state  8:                 -2280.60267511 au
    Multiplicity: Triplet
    Trans. Mom.:  0.0000 X   0.0000 Y   0.0000 Z
    Strength   :     0.0000000000
    D(194) --> V(  1) amplitude =  0.2195
    D(196) --> V(  1) amplitude =  0.9143

 Excited state   9: excitation energy (eV) =    2.8838
 Total energy for state  9:                 -2280.60135990 au
    Multiplicity: Singlet
    Trans. Mom.: -0.0253 X  -0.0017 Y   0.1233 Z
    Strength   :     0.0011197947
    D(196) --> V(  1) amplitude =  0.9578

 Excited state  10: excitation energy (eV) =    3.1476
 Total energy for state 10:                 -2280.59166369 au
    Multiplicity: Singlet
    Trans. Mom.:  1.7395 X   0.0015 Y  -3.0809 Z
    Strength   :     0.9652986116
    D(195) --> V(  1) amplitude =  0.9423

 Excited state  11: excitation energy (eV) =    3.4649
 Total energy for state 11:                 -2280.58000554 au
    Multiplicity: Singlet
    Trans. Mom.:  0.3604 X  -0.0173 Y   0.1608 Z
    Strength   :     0.0132431707
    D(191) --> V(  1) amplitude = -0.2530
    D(194) --> V(  1) amplitude =  0.8701
    D(197) --> V(  2) amplitude =  0.2451

 Excited state  12: excitation energy (eV) =    3.4975
 Total energy for state 12:                 -2280.57880687 au
    Multiplicity: Singlet
    Trans. Mom.: -0.6727 X   0.0104 Y  -0.4036 Z
    Strength   :     0.0527360249
    D(191) --> V(  1) amplitude =  0.6536
    D(194) --> V(  1) amplitude =  0.3413
    D(197) --> V(  2) amplitude = -0.5505

 ---------------------------------------------------

                    Orbital Energies (a.u.)
 --------------------------------------------------------------

 Alpha MOs
 -- Occupied --
-19.523 -19.522 -10.498 -10.498 -10.488 -10.488 -10.464 -10.463
-10.463 -10.463 -10.463 -10.463 -10.461 -10.461 -10.461 -10.461
-10.461 -10.461 -10.460 -10.460 -10.459 -10.459 -10.458 -10.458
-10.458 -10.458 -10.457 -10.457 -10.450 -10.450 -10.448 -10.448
-10.447 -10.446 -10.446 -10.445 -10.445 -10.445 -10.433 -10.432
-10.431 -10.431 -10.431 -10.430 -10.430 -10.430 -10.429 -10.428
-10.426 -10.425 -10.418 -10.416 -10.416 -10.415 -10.415 -10.413
 -6.939  -6.938  -1.180  -1.179  -1.012  -1.012  -0.957  -0.953
 -0.951  -0.950  -0.932  -0.932  -0.902  -0.894  -0.885  -0.884
 -0.864  -0.861  -0.854  -0.853  -0.846  -0.846  -0.819  -0.818
 -0.814  -0.811  -0.810  -0.797  -0.797  -0.795  -0.772  -0.771
 -0.731  -0.730  -0.727  -0.716  -0.708  -0.706  -0.700  -0.699
 -0.687  -0.681  -0.676  -0.665  -0.653  -0.644  -0.640  -0.640
 -0.627  -0.627  -0.596  -0.592  -0.589  -0.588  -0.582  -0.581
 -0.580  -0.574  -0.573  -0.560  -0.559  -0.540  -0.540  -0.534
 -0.533  -0.533  -0.525  -0.521  -0.513  -0.506  -0.502  -0.501
 -0.500  -0.498  -0.497  -0.494  -0.490  -0.489  -0.485  -0.482
 -0.481  -0.480  -0.479  -0.478  -0.478  -0.478  -0.476  -0.463
 -0.460  -0.457  -0.456  -0.454  -0.451  -0.448  -0.441  -0.435
 -0.433  -0.431  -0.428  -0.426  -0.425  -0.424  -0.420  -0.413
 -0.410  -0.409  -0.406  -0.403  -0.398  -0.397  -0.397  -0.394
 -0.393  -0.393  -0.390  -0.388  -0.387  -0.383  -0.379  -0.377
 -0.373  -0.368  -0.360  -0.359  -0.357  -0.354  -0.351  -0.343
 -0.337  -0.333  -0.318  -0.313  -0.294  -0.293  -0.275  -0.271
 -0.271  -0.260  -0.252  -0.248  -0.246  -0.245

          Ground-State Mulliken Net Atomic Charges

     Atom                 Charge (a.u.)
  ----------------------------------------
      1 C                    -0.149441
      2 C                    -0.385864
      3 H                     0.238035
      4 C                     0.083618
      5 C                     0.198708
      6 C                    -0.371772
      7 H                     0.221503
      8 C                    -0.206094
      9 H                     0.226251
     10 C                    -0.331340
     11 H                     0.219681
     12 C                    -0.072084
     13 C                     0.251628
     14 C                     0.202891
     15 C                    -0.382327
     16 H                     0.221544
     17 C                    -0.203407
     18 H                     0.225868
     19 C                    -0.335736
     20 H                     0.220189
     21 C                     0.110568
     22 C                    -0.392796
     23 H                     0.239072
     24 C                    -0.154541
     25 B                     0.642122
     26 C                    -0.150220
     27 C                    -0.386098
     28 H                     0.236510
     29 C                     0.082725
     30 C                     0.198385
     31 C                    -0.369965
     32 H                     0.222311
     33 C                    -0.206725
     34 H                     0.226554
     35 C                    -0.331604
     36 H                     0.219806
     37 C                    -0.072713
     38 C                     0.252362
     39 C                     0.202139
     40 C                    -0.380486
     41 H                     0.222102
     42 C                    -0.203780
     43 H                     0.226189
     44 C                    -0.335644
     45 H                     0.220200
     46 C                     0.109038
     47 C                    -0.393529
     48 H                     0.238133
     49 C                    -0.153717
     50 B                     0.641530
     51 C                    -0.221614
     52 C                     0.081549
     53 C                    -0.428046
     54 H                     0.221291
     55 C                     0.401812
     56 O                    -0.453806
     57 C                    -0.378232
     58 H                     0.219347
     59 C                     0.080071
     60 C                    -0.405795
     61 H                     0.238548
     62 H                     0.203243
     63 H                     0.202554
     64 C                    -0.549886
     65 H                     0.255628
     66 H                     0.224334
     67 C                    -0.549616
     68 H                     0.253162
     69 H                     0.228786
     70 C                    -0.645467
     71 H                     0.245961
     72 H                     0.213916
     73 H                     0.217568
     74 C                    -0.647414
     75 H                     0.244724
     76 H                     0.217306
     77 H                     0.217108
     78 C                    -0.230644
     79 C                     0.075874
     80 C                    -0.422225
     81 H                     0.221672
     82 C                     0.401645
     83 O                    -0.454155
     84 C                    -0.372201
     85 H                     0.219314
     86 C                     0.077923
     87 C                    -0.405779
     88 H                     0.238806
     89 H                     0.202858
     90 H                     0.203158
     91 C                    -0.550058
     92 H                     0.253073
     93 H                     0.229812
     94 C                    -0.549853
     95 H                     0.256825
     96 H                     0.225873
     97 C                    -0.640461
     98 H                     0.240566
     99 H                     0.217742
    100 H                     0.212254
    101 C                    -0.644329
    102 H                     0.241238
    103 H                     0.216943
    104 H                     0.217320
  ----------------------------------------
  Sum of atomic charges =     0.000000

                    Cartesian Multipole Moments
 -----------------------------------------------------------------
    Charge (ESU x 10^10)
                 0.0000
    Dipole Moment (Debye)
         X      -0.0355      Y      -0.0586      Z       0.3578
       Tot       0.3643
    Quadrupole Moments (Debye-Ang)
        XX    -291.6904     XY     -17.7569     YY    -337.2140
        XZ      -2.1918     YZ     -10.1525     ZZ    -289.7049

 Total job time:  11213.44s(wall), 36246.39s(cpu)
        *  Thank you very much for using Q-Chem.  Have a nice day.  *
