 Q-Chem 5.0, Q-Chem, Inc., Pleasanton, CA (2017)
 Q-Chem 5.0.1 for Intel X86 EM64T Linux

User input:
--------------------------------------------------------------
$solvent
dielectric      4.33
dielectric_infi 1.83
$end

$rem
threads 8
jobtype	sp
method PBEh-3c
basis def2-mSVP
mem_static	1024
mem_total	14000
sym_ignore	true
cis_n_roots             2
cis_singlets            true
cis_triplets		false
rpa                     false
calc_soc 		true
cis_moments             true
cis_relaxed_density	true
solvent_method		pcm
$end

$pcm
StateSpecific   1
ChargeSeparation Excited
$end

$molecule
read moms1opt_eth.mol
$end

--------------------------------------------------------------

   14   -2280.7284183190      9.28E-09 Convergence criterion met
 Total energy in the final basis set = -2280.72841832
 Total job time:  8252.79s(wall), 21479.80s(cpu)
        *  Thank you very much for using Q-Chem.  Have a nice day.  *
 Q-Chem 5.0, Q-Chem, Inc., Pleasanton, CA (2017)
 Q-Chem 5.0.1 for Intel X86 EM64T Linux

User input:
--------------------------------------------------------------
$rem
threads 8
jobtype sp
method PBEh-3c
basis def2-mSVP
mem_static      1024
mem_total       14000
sym_ignore      true
cis_n_roots             6
cis_singlets            true
cis_triplets            true
rpa                     false
calc_soc                true
cis_moments             true
cis_relaxed_density     true
solvent_method          pcm
$end

$molecule
read
$end

$pcm
statespecific           Marcus
$end

$solvent
dielectric      4.33
dielectric_infi 1.83
$end

--------------------------------------------------------------

             Standard Nuclear Orientation (Angstroms)
    I     Atom           X                Y                Z
 ----------------------------------------------------------------
    1      C       0.0000000000     0.0000000000     0.0000000000
    2      C       0.0000000000     0.0000000000     1.4107620000
    3      H       0.9387605544     0.0000000000     1.9580476941
    4      C      -1.1776247404    -0.0030387079     2.1080026138
    5      C      -2.4291801204    -0.0124428263     1.4244161452
    6      C      -2.4476002580    -0.0146680354     0.0489682817
    7      H      -3.3945074184    -0.0309698071    -0.4801989529
    8      C      -1.2473420963    -0.0049575128    -0.6949042555
    9      C      -1.4346474257    -0.0087710909     3.5439593769
   10      C      -0.6507338101    -0.0052514851     4.6715246593
   11      H       0.4312139239     0.0083082945     4.6161444387
   12      C      -2.8345121473    -0.0253614641     3.6916513021
   13      C      -3.4826743286    -0.0411481390     4.9251483830
   14      C      -3.4856507186    -0.0288378638     2.4393822344
   15      C      -4.8583039870    -0.0495514498     2.4318881695
   16      H      -5.4238656985    -0.0556258440     1.5086126842
   17      C      -1.2836085250    -0.0196754561     5.9358591079
   18      H      -0.6654684646    -0.0166811366     6.8249970666
   19      C      -2.6531160330    -0.0375683263     6.0739278701
   20      H      -3.0966443615    -0.0490078383     7.0623151860
   21      C      -4.8975014806    -0.0613467830     4.8840865259
   22      H      -5.4680687706    -0.0749136379     5.8048795520
   23      C      -5.5455128400    -0.0652369278     3.6698208001
   24      H      -6.6278670118    -0.0817452055     3.6552588767
   25      B       1.3079733305    -0.0261058477    -0.7858248675
   26      C       1.2961245750    -0.0283450153    -2.3127492540
   27      C       2.5000597142    -0.0186518303    -3.0491489270
   28      H       3.4550965410    -0.0130578418    -2.5305334997
   29      C       2.4809485647    -0.0130415792    -4.4186991021
   30      C       1.2441492943    -0.0157164878    -5.1300109235
   31      C       0.0598791546    -0.0209388614    -4.4279594843
   32      H      -0.8854556655    -0.0159653806    -4.9609210277
   33      C       0.0509538136    -0.0286397713    -3.0158666891
   34      C       3.5716981288    -0.0042426116    -5.3858588421
   35      C       4.9419951344     0.0020349371    -5.3010871498
   36      H       5.4566454265     0.0023686914    -4.3475001009
   37      C       2.9668804999    -0.0028266042    -6.6579364259
   38      C       3.6806900721     0.0036318915    -7.8528831778
   39      C       1.5579470883    -0.0087063327    -6.5598181789
   40      C       0.8326188791    -0.0080628372    -7.7249508095
   41      H      -0.2502585500    -0.0124831575    -7.7238603097
   42      C       5.6902610528     0.0085649403    -6.5003022602
   43      H       6.7712421072     0.0134218774    -6.4369119854
   44      C       5.0936089225     0.0091691409    -7.7413383889
   45      H       5.7073271477     0.0143242385    -8.6340098038
   46      C       1.5307833844    -0.0015349830    -8.9566574024
   47      H       0.9539155340    -0.0011691558    -9.8726748995
   48      C       2.9050030943     0.0041963662    -9.0376107576
   49      H       3.3910449699     0.0092685346   -10.0055755418
   50      B      -1.2784973202    -0.0273003934    -2.2351461796
   51      C      -2.6609810727    -0.0618028282    -2.9978338784
   52      C      -3.4143348612     1.1019269101    -3.1837028127
   53      C      -4.6312771398     1.0702985647    -3.8666894117
   54      H      -5.1791094095     1.9964880443    -3.9926017434
   55      C      -5.1180583337    -0.1282314406    -4.3701273983
   56      O      -6.2832485445    -0.2591843603    -5.0446236736
   57      C      -4.3803733413    -1.2940214427    -4.1844401030
   58      H      -4.7658398239    -2.2295259656    -4.5760980272
   59      C      -3.1686616951    -1.2686153694    -3.5110139675
   60      C      -7.0522004508     0.8955013393    -5.2762495030
   61      H      -7.9289267866     0.5792880105    -5.8377129077
   62      H      -6.5110564768     1.6416418341    -5.8663280553
   63      H      -7.3858065138     1.3649120393    -4.3455773011
   64      C      -2.9037844303     2.4357771087    -2.6996540449
   65      H      -2.3548839576     2.3120957945    -1.7633111378
   66      H      -3.7487926266     3.0912561936    -2.4720071029
   67      C      -2.4352860029    -2.5702513526    -3.3009620812
   68      H      -1.3562932218    -2.4067416266    -3.3492427977
   69      H      -2.6756744377    -3.2586875392    -4.1153867124
   70      C      -1.9980311459     3.1192415251    -3.7221775034
   71      H      -1.1129121594     2.5167050622    -3.9273453349
   72      H      -2.5195548710     3.2774514516    -4.6672910529
   73      H      -1.6606073462     4.0907618716    -3.3577463531
   74      C      -2.7824195884    -3.2314438145    -1.9680580538
   75      H      -2.5041923972    -2.5958652499    -1.1272770803
   76      H      -3.8524592044    -3.4306920100    -1.8946178780
   77      H      -2.2562419680    -4.1807411308    -1.8548225156
   78      C       2.6779559560    -0.0807133976     0.0020046263
   79      C       3.4275086491     1.1125417210     0.2722346844
   80      C       4.5921709104     1.0391068414     0.9777380535
   81      H       5.1802875917     1.9253010442     1.1859215112
   82      C       5.0641461925    -0.2093078523     1.4673129785
   83      O       6.1803759787    -0.1576952751     2.1362486367
   84      C       4.3408165331    -1.3946546087     1.2202039402
   85      H       4.6926765810    -2.3465367540     1.5965055542
   86      C       3.1836094565    -1.3408249531     0.4931104292
   87      C       6.7702690528    -1.3376015301     2.6894111976
   88      H       7.6806674290    -1.0097222423     3.1799298483
   89      H       7.0147425042    -2.0533275030     1.9048271835
   90      H       6.1056058080    -1.7963277474     3.4212334926
   91      C       2.4620678527    -2.6176330129     0.1846794320
   92      H       1.3897264566    -2.4337137082     0.1142875664
   93      H       2.6130214030    -3.3235883421     1.0038963033
   94      C       2.9195490074     2.4514022609    -0.1742364322
   95      H       2.3412914217     2.3439415741    -1.0926759103
   96      H       3.7686904053     3.0969132806    -0.4083528196
   97      C       2.0585027945     3.1110800312     0.9027496088
   98      H       1.7125255644     4.0868918053     0.5634900772
   99      H       1.1794697270     2.5100362985     1.1335030013
  100      H       2.6229245863     3.2544692505     1.8249731414
  101      C       2.9621189722    -3.2397977983    -1.1209138769
  102      H       2.7996893157    -2.5731405094    -1.9666728429
  103      H       2.4252524109    -4.1663489418    -1.3208809766
  104      H       4.0266626483    -3.4700759849    -1.0666765862
 ----------------------------------------------------------------

   15   -2280.7220785473      5.94E-09 Convergence criterion met
 Total energy in the final basis set = -2280.72207855

         TDDFT/TDA Excitation Energies
 ---------------------------------------------------

 Excited state   1: excitation energy (eV) =    2.0790
 Total energy for state  1:                 -2280.64567583 au
    Multiplicity: Triplet
    Trans. Mom.:  0.0000 X   0.0000 Y   0.0000 Z
    Strength   :     0.0000000000
    D(198) --> V(  1) amplitude =  0.9693

 Excited state   2: excitation energy (eV) =    2.1279
 Total energy for state  2:                 -2280.64387808 au
    Multiplicity: Singlet
    Trans. Mom.: -0.3692 X   0.0304 Y  -0.2922 Z
    Strength   :     0.0116080953
    D(198) --> V(  1) amplitude =  0.9765

 Excited state   3: excitation energy (eV) =    2.2433
 Total energy for state  3:                 -2280.63963840 au
    Multiplicity: Triplet
    Trans. Mom.:  0.0000 X   0.0000 Y   0.0000 Z
    Strength   :     0.0000000000
    D(191) --> V(  2) amplitude = -0.2438
    D(195) --> V(  1) amplitude =  0.9121

 Excited state   4: excitation energy (eV) =    2.4356
 Total energy for state  4:                 -2280.63257294 au
    Multiplicity: Triplet
    Trans. Mom.:  0.0000 X   0.0000 Y   0.0000 Z
    Strength   :     0.0000000000
    D(194) --> V(  2) amplitude = -0.4626
    D(196) --> V(  1) amplitude =  0.7965

 Excited state   5: excitation energy (eV) =    2.4939
 Total energy for state  5:                 -2280.63042895 au
    Multiplicity: Triplet
    Trans. Mom.:  0.0000 X   0.0000 Y   0.0000 Z
    Strength   :     0.0000000000
    D(194) --> V(  1) amplitude =  0.7013
    D(194) --> V(  4) amplitude =  0.2174
    D(196) --> V(  2) amplitude = -0.5431
    D(197) --> V(  1) amplitude = -0.2361

 Excited state   6: excitation energy (eV) =    2.7383
 Total energy for state  6:                 -2280.62144851 au
    Multiplicity: Triplet
    Trans. Mom.:  0.0000 X   0.0000 Y   0.0000 Z
    Strength   :     0.0000000000
    D(191) --> V(  1) amplitude =  0.6685
    D(195) --> V(  2) amplitude = -0.5407
    D(197) --> V(  1) amplitude =  0.2658

 Excited state   7: excitation energy (eV) =    2.9149
 Total energy for state  7:                 -2280.61495889 au
    Multiplicity: Singlet
    Trans. Mom.: -0.0580 X  -0.0024 Y   0.1514 Z
    Strength   :     0.0018770189
    D(195) --> V(  1) amplitude =  0.9583

 Excited state   8: excitation energy (eV) =    2.9296
 Total energy for state  8:                 -2280.61441639 au
    Multiplicity: Triplet
    Trans. Mom.:  0.0000 X   0.0000 Y   0.0000 Z
    Strength   :     0.0000000000
    D(191) --> V(  1) amplitude = -0.2151
    D(197) --> V(  1) amplitude =  0.8851

 Excited state   9: excitation energy (eV) =    2.9709
 Total energy for state  9:                 -2280.61289995 au
    Multiplicity: Singlet
    Trans. Mom.:  0.4733 X  -0.0073 Y   0.2497 Z
    Strength   :     0.0208432976
    D(197) --> V(  1) amplitude =  0.9640

 Excited state  10: excitation energy (eV) =    3.1422
 Total energy for state 10:                 -2280.60660379 au
    Multiplicity: Singlet
    Trans. Mom.:  1.9597 X   0.0110 Y  -3.4790 Z
    Strength   :     1.2274365813
    D(196) --> V(  1) amplitude =  0.9490

 Excited state  11: excitation energy (eV) =    3.4143
 Total energy for state 11:                 -2280.59660450 au
    Multiplicity: Singlet
    Trans. Mom.: -0.1896 X   0.0211 Y   0.3930 Z
    Strength   :     0.0159608133
    D(193) --> V(  1) amplitude =  0.9437
    D(194) --> V(  1) amplitude =  0.2866

 Excited state  12: excitation energy (eV) =    3.4618
 Total energy for state 12:                 -2280.59486115 au
    Multiplicity: Singlet
    Trans. Mom.:  0.0034 X  -0.0163 Y  -0.0214 Z
    Strength   :     0.0000624028
    D(193) --> V(  1) amplitude = -0.2882
    D(194) --> V(  1) amplitude =  0.8853

 ---------------------------------------------------

                    Orbital Energies (a.u.)
 --------------------------------------------------------------

 Alpha MOs
 -- Occupied --
-19.531 -19.514 -10.509 -10.494 -10.487 -10.473 -10.471 -10.470
-10.470 -10.470 -10.470 -10.469 -10.468 -10.468 -10.468 -10.467
-10.467 -10.467 -10.466 -10.466 -10.465 -10.465 -10.465 -10.465
-10.463 -10.463 -10.462 -10.461 -10.460 -10.460 -10.458 -10.457
-10.456 -10.455 -10.454 -10.453 -10.441 -10.441 -10.441 -10.440
-10.439 -10.439 -10.438 -10.438 -10.437 -10.437 -10.426 -10.426
-10.425 -10.425 -10.424 -10.419 -10.416 -10.414 -10.413 -10.411
 -6.952  -6.942  -1.186  -1.180  -1.021  -1.020  -0.967  -0.963
 -0.961  -0.938  -0.937  -0.937  -0.912  -0.903  -0.894  -0.882
 -0.871  -0.860  -0.859  -0.851  -0.850  -0.850  -0.829  -0.824
 -0.818  -0.816  -0.809  -0.808  -0.807  -0.793  -0.777  -0.760
 -0.739  -0.732  -0.731  -0.724  -0.716  -0.709  -0.702  -0.696
 -0.693  -0.684  -0.683  -0.670  -0.657  -0.649  -0.649  -0.639
 -0.636  -0.618  -0.599  -0.595  -0.594  -0.591  -0.588  -0.586
 -0.579  -0.579  -0.570  -0.568  -0.552  -0.547  -0.546  -0.537
 -0.536  -0.530  -0.525  -0.523  -0.515  -0.511  -0.508  -0.507
 -0.505  -0.498  -0.497  -0.494  -0.493  -0.492  -0.491  -0.490
 -0.489  -0.486  -0.485  -0.484  -0.481  -0.476  -0.474  -0.469
 -0.465  -0.464  -0.459  -0.457  -0.450  -0.448  -0.444  -0.441
 -0.440  -0.436  -0.434  -0.431  -0.431  -0.426  -0.420  -0.419
 -0.417  -0.412  -0.407  -0.405  -0.401  -0.401  -0.400  -0.400
 -0.398  -0.397  -0.395  -0.394  -0.392  -0.386  -0.386  -0.382
 -0.377  -0.372  -0.367  -0.365  -0.360  -0.353  -0.353  -0.347
 -0.339  -0.336  -0.324  -0.319  -0.301  -0.300  -0.288  -0.283
 -0.269  -0.267  -0.262  -0.260  -0.258  -0.226

          Ground-State Mulliken Net Atomic Charges

     Atom                 Charge (a.u.)
  ----------------------------------------
      1 C                    -0.147247
      2 C                    -0.393437
      3 H                     0.263992
      4 C                     0.073723
      5 C                     0.101860
      6 C                    -0.406193
      7 H                     0.244989
      8 C                    -0.151189
      9 C                     0.179688
     10 C                    -0.389252
     11 H                     0.256368
     12 C                    -0.069551
     13 C                     0.221002
     14 C                     0.179246
     15 C                    -0.399223
     16 H                     0.248285
     17 C                    -0.231885
     18 H                     0.257386
     19 C                    -0.345328
     20 H                     0.252184
     21 C                    -0.349397
     22 H                     0.252706
     23 C                    -0.229807
     24 H                     0.254446
     25 B                     0.626196
     26 C                    -0.148543
     27 C                    -0.394675
     28 H                     0.261934
     29 C                     0.073456
     30 C                     0.101052
     31 C                    -0.407355
     32 H                     0.244950
     33 C                    -0.149454
     34 C                     0.179390
     35 C                    -0.387810
     36 H                     0.256445
     37 C                    -0.069532
     38 C                     0.221667
     39 C                     0.178188
     40 C                    -0.397615
     41 H                     0.248758
     42 C                    -0.232388
     43 H                     0.257421
     44 C                    -0.345719
     45 H                     0.252250
     46 C                    -0.230117
     47 H                     0.254701
     48 C                    -0.349378
     49 H                     0.252617
     50 B                     0.633852
     51 C                    -0.218887
     52 C                     0.066549
     53 C                    -0.444191
     54 H                     0.253043
     55 C                     0.388745
     56 O                    -0.468317
     57 C                    -0.400418
     58 H                     0.238205
     59 C                     0.063478
     60 C                    -0.427241
     61 H                     0.252662
     62 H                     0.218083
     63 H                     0.217971
     64 C                    -0.550868
     65 H                     0.251795
     66 H                     0.239865
     67 C                    -0.551668
     68 H                     0.251577
     69 H                     0.242040
     70 C                    -0.658114
     71 H                     0.238040
     72 H                     0.221444
     73 H                     0.229274
     74 C                    -0.659064
     75 H                     0.237922
     76 H                     0.222503
     77 H                     0.229435
     78 C                    -0.268894
     79 C                     0.097791
     80 C                    -0.406769
     81 H                     0.236828
     82 C                     0.400726
     83 O                    -0.450565
     84 C                    -0.456897
     85 H                     0.252160
     86 C                     0.092231
     87 C                    -0.421347
     88 H                     0.254497
     89 H                     0.227348
     90 H                     0.226956
     91 C                    -0.550104
     92 H                     0.245563
     93 H                     0.243372
     94 C                    -0.548739
     95 H                     0.242100
     96 H                     0.244666
     97 C                    -0.656979
     98 H                     0.221951
     99 H                     0.231864
    100 H                     0.228220
    101 C                    -0.655236
    102 H                     0.233398
    103 H                     0.221412
    104 H                     0.226926
  ----------------------------------------
  Sum of atomic charges =     0.000000

                    Cartesian Multipole Moments
 -----------------------------------------------------------------
    Charge (ESU x 10^10)
                 0.0000
    Dipole Moment (Debye)
         X       1.8922      Y      -0.2259      Z       1.6380
       Tot       2.5128
    Quadrupole Moments (Debye-Ang)
        XX    -270.0587     XY     -22.2399     YY    -334.0604
        XZ       0.3812     YZ     -13.1499     ZZ    -276.8867

 Total job time:  11816.49s(wall), 40295.30s(cpu)
        *  Thank you very much for using Q-Chem.  Have a nice day.  *
