 Q-Chem 5.0, Q-Chem, Inc., Pleasanton, CA (2017)
 Q-Chem 5.0.1 for Intel X86 EM64T Linux

User input:
--------------------------------------------------------------
$solvent
dielectric      2.03
dielectric_infi 2.02
$end

$rem
threads 8
jobtype	sp
method PBEh-3c
basis def2-mSVP
mem_static	1024
mem_total	14000
sym_ignore	true
cis_n_roots             2
cis_singlets            false
cis_triplets		true
rpa                     false
calc_soc 		true
cis_moments             true
cis_relaxed_density	true
solvent_method		pcm
$end

$pcm
StateSpecific   1
ChargeSeparation Excited
$end

$molecule
read ut1opt_chx.mol
$end

--------------------------------------------------------------

   15   -2280.7199704725      5.87E-09 Convergence criterion met
 Total energy in the final basis set = -2280.71997047
 Total job time:  7228.87s(wall), 19398.66s(cpu)
        *  Thank you very much for using Q-Chem.  Have a nice day.  *
 Q-Chem 5.0, Q-Chem, Inc., Pleasanton, CA (2017)
 Q-Chem 5.0.1 for Intel X86 EM64T Linux

User input:
--------------------------------------------------------------
$rem
threads 8
jobtype sp
method PBEh-3c
basis def2-mSVP
mem_static      1024
mem_total       14000
sym_ignore      true
cis_n_roots             6
cis_singlets            true
cis_triplets            true
rpa                     false
calc_soc                true
cis_moments             true
cis_relaxed_density     true
solvent_method          pcm
$end

$molecule
read
$end

$pcm
statespecific           Marcus
$end

$solvent
dielectric      2.03
dielectric_infi 2.02
$end

--------------------------------------------------------------

             Standard Nuclear Orientation (Angstroms)
    I     Atom           X                Y                Z
 ----------------------------------------------------------------
    1      C       0.0000000000     0.0000000000     0.0000000000
    2      C       0.0000000000     0.0000000000     1.4111900000
    3      H       0.9385130618     0.0000000000     1.9595167556
    4      C      -1.1771502378    -0.0010410434     2.1079855914
    5      C      -2.4281452442    -0.0059004175     1.4250176818
    6      C      -2.4464761796    -0.0005878285     0.0497361017
    7      H      -3.3922524926    -0.0099891371    -0.4814552574
    8      C      -1.2466150717     0.0082098262    -0.6934842248
    9      C      -1.4340282092    -0.0108847237     3.5442060208
   10      C      -0.6505975602    -0.0122590476     4.6713310307
   11      H       0.4313378468     0.0017267481     4.6156601816
   12      C      -2.8334304787    -0.0274181530     3.6920744692
   13      C      -3.4812123004    -0.0490960349     4.9251543283
   14      C      -3.4841461546    -0.0256810634     2.4399211895
   15      C      -4.8561396619    -0.0477118609     2.4325825112
   16      H      -5.4211787437    -0.0509879936     1.5091018775
   17      C      -1.2826286746    -0.0320405729     5.9355274685
   18      H      -0.6646593085    -0.0326942968     6.8247803485
   19      C      -2.6515950497    -0.0508307640     6.0732609234
   20      H      -3.0947892220    -0.0668473331     7.0617137311
   21      C      -4.8956679113    -0.0701291925     4.8838454023
   22      H      -5.4664793903    -0.0883927134     5.8043470363
   23      C      -5.5432737151    -0.0692726341     3.6700782221
   24      H      -6.6255681656    -0.0869015176     3.6554391891
   25      B       1.3053290617    -0.0262177844    -0.7896803229
   26      C       1.2946745340    -0.0119163835    -2.3161611492
   27      C       2.4973451391    -0.0134524157    -3.0559257287
   28      H       3.4541805595    -0.0236722028    -2.5402875738
   29      C       2.4748835305     0.0013616762    -4.4244762476
   30      C       1.2371124345     0.0165810982    -5.1327521856
   31      C       0.0546083308     0.0181608061    -4.4276891732
   32      H      -0.8929566097     0.0356477584    -4.9562538377
   33      C       0.0490533904     0.0001501185    -3.0164980336
   34      C       3.5636693022     0.0053588832    -5.3941666095
   35      C       4.9335435555    -0.0031018800    -5.3128452052
   36      H       5.4502198354    -0.0142233930    -4.3604260617
   37      C       2.9563018943     0.0214341193    -6.6643758476
   38      C       3.6671914773     0.0282145545    -7.8605461175
   39      C       1.5478539997     0.0297579577    -6.5625701927
   40      C       0.8203180233     0.0458252438    -7.7256179337
   41      H      -0.2624236193     0.0527788973    -7.7214482726
   42      C       5.6792995587     0.0034136979    -6.5130765992
   43      H       6.7604236457    -0.0032783110    -6.4525093545
   44      C       5.0797885731     0.0182794596    -7.7520453264
   45      H       5.6916471354     0.0228873895    -8.6459590581
   46      C       1.5153330014     0.0530395364    -8.9586104793
   47      H       0.9364157234     0.0655237799    -9.8731933784
   48      C       2.8887837195     0.0448071381    -9.0429267183
   49      H       3.3722503082     0.0512041246   -10.0121244495
   50      B      -1.2793938792     0.0026329423    -2.2340314486
   51      C       2.6734677447    -0.1066730656    -0.0076665437
   52      C       3.4717317257     1.0660193903     0.2199871481
   53      C       4.6374651626     0.9708596588     0.9209058049
   54      H       5.2564897684     1.8416349742     1.1023837217
   55      C       5.0685542892    -0.2772936302     1.4430049266
   56      O       6.1956505399    -0.2456708347     2.1026655282
   57      C       4.3018951937    -1.4409516629     1.2384363187
   58      H       4.6242971663    -2.3943104103     1.6364923574
   59      C       3.1379942765    -1.3691777801     0.5216440689
   60      C       6.7447067928    -1.4285593043     2.6809534477
   61      H       7.6682354841    -1.1224139301     3.1615696248
   62      H       6.0700863125    -1.8492176361     3.4271095460
   63      H       6.9639064290    -2.1733367250     1.9153835632
   64      C       2.3691048287    -2.6265659023     0.2576527486
   65      H       1.2993142638    -2.4165634195     0.2568862475
   66      H       2.5554269163    -3.3394127892     1.0638442128
   67      C       3.0028465321     2.4070367772    -0.2580445011
   68      H       2.4456359222     2.2975624069    -1.1890223566
   69      H       3.8695103119     3.0342495327    -0.4779377030
   70      C       2.1245878623     3.0936480884     0.7884906437
   71      H       1.8024020061     4.0697555304     0.4277146465
   72      H       1.2300466239     2.5096991789     1.0026197994
   73      H       2.6665883217     3.2411211669     1.7235361064
   74      C       2.7689062480    -3.2528974143    -1.0806144649
   75      H       2.5618721204    -2.5800266649    -1.9112690475
   76      H       2.2018189760    -4.1679679740    -1.2469164538
   77      H       3.8300379318    -3.5039579657    -1.0993317008
   78      C      -2.6623328541    -0.0099796783    -2.9937887366
   79      C      -3.4046384302     1.1631363256    -3.1607747702
   80      C      -4.6237382856     1.1513449869    -3.8395277234
   81      H      -5.1630838745     2.0843019919    -3.9509269466
   82      C      -5.1230969628    -0.0355839713    -4.3568757590
   83      O      -6.2921171876    -0.1473202438    -5.0285470406
   84      C      -4.3958252206    -1.2101488107    -4.1901389562
   85      H      -4.7925587632    -2.1355675720    -4.5936137240
   86      C      -3.1818271979    -1.2050485858    -3.5218268597
   87      C      -7.0492427077     1.0151359199    -5.2423187850
   88      H      -7.9311525180     0.7146153568    -5.8046215703
   89      H      -6.5040695626     1.7646243232    -5.8252314052
   90      H      -7.3761530312     1.4769797332    -4.3049711367
   91      C      -2.8789076133     2.4849493459    -2.6604110774
   92      H      -2.3336559528     2.3443356089    -1.7242910080
   93      H      -3.7166366812     3.1474065922    -2.4256575543
   94      C      -2.4576381576    -2.5149813136    -3.3333632144
   95      H      -1.3777701741    -2.3604866991    -3.3918801091
   96      H      -2.7120943179    -3.1915071767    -4.1535362787
   97      C      -1.9635648639     3.1694703097    -3.6735919946
   98      H      -1.0835723765     2.5609196956    -3.8822508491
   99      H      -2.4805492366     3.3412066652    -4.6187518424
  100      H      -1.6179972303     4.1343226509    -3.2990760344
  101      C      -2.7967797846    -3.1886335543    -2.0047438977
  102      H      -2.4998965858    -2.5684524099    -1.1590086346
  103      H      -3.8683161434    -3.3743875342    -1.9203415771
  104      H      -2.2821008750    -4.1463639427    -1.9105621300
 ----------------------------------------------------------------

   15   -2280.7199696462      5.88E-09 Convergence criterion met
 Total energy in the final basis set = -2280.71996965

         TDDFT/TDA Excitation Energies
 ---------------------------------------------------

 Excited state   1: excitation energy (eV) =    2.2200
 Total energy for state  1:                 -2280.63838476 au
    Multiplicity: Triplet
    Trans. Mom.:  0.0000 X   0.0000 Y   0.0000 Z
    Strength   :     0.0000000000
    D(191) --> V(  2) amplitude = -0.2409
    D(195) --> V(  1) amplitude =  0.9196

 Excited state   2: excitation energy (eV) =    2.4114
 Total energy for state  2:                 -2280.63135277 au
    Multiplicity: Triplet
    Trans. Mom.:  0.0000 X   0.0000 Y   0.0000 Z
    Strength   :     0.0000000000
    D(196) --> V(  1) amplitude =  0.3486
    D(198) --> V(  1) amplitude =  0.8293

 Excited state   3: excitation energy (eV) =    2.4377
 Total energy for state  3:                 -2280.63038468 au
    Multiplicity: Triplet
    Trans. Mom.:  0.0000 X   0.0000 Y   0.0000 Z
    Strength   :     0.0000000000
    D(194) --> V(  2) amplitude =  0.4158
    D(196) --> V(  1) amplitude =  0.7268
    D(198) --> V(  1) amplitude = -0.3931

 Excited state   4: excitation energy (eV) =    2.4925
 Total energy for state  4:                 -2280.62837082 au
    Multiplicity: Singlet
    Trans. Mom.:  0.4787 X  -0.0491 Y   0.3918 Z
    Strength   :     0.0235129641
    D(198) --> V(  1) amplitude =  0.9736

 Excited state   5: excitation energy (eV) =    2.4989
 Total energy for state  5:                 -2280.62813845 au
    Multiplicity: Triplet
    Trans. Mom.:  0.0000 X   0.0000 Y   0.0000 Z
    Strength   :     0.0000000000
    D(194) --> V(  1) amplitude =  0.6788
    D(194) --> V(  4) amplitude = -0.2193
    D(196) --> V(  2) amplitude =  0.5169
    D(197) --> V(  1) amplitude = -0.2506
    D(198) --> V(  1) amplitude =  0.2529

 Excited state   6: excitation energy (eV) =    2.7313
 Total energy for state  6:                 -2280.61959473 au
    Multiplicity: Triplet
    Trans. Mom.:  0.0000 X   0.0000 Y   0.0000 Z
    Strength   :     0.0000000000
    D(191) --> V(  1) amplitude = -0.6556
    D(195) --> V(  2) amplitude =  0.5252
    D(197) --> V(  1) amplitude = -0.2949

 Excited state   7: excitation energy (eV) =    2.8771
 Total energy for state  7:                 -2280.61423701 au
    Multiplicity: Triplet
    Trans. Mom.:  0.0000 X   0.0000 Y   0.0000 Z
    Strength   :     0.0000000000
    D(191) --> V(  1) amplitude = -0.2425
    D(197) --> V(  1) amplitude =  0.8763

 Excited state   8: excitation energy (eV) =    2.8852
 Total energy for state  8:                 -2280.61393896 au
    Multiplicity: Singlet
    Trans. Mom.:  0.0509 X   0.0010 Y  -0.0005 Z
    Strength   :     0.0001829965
    D(195) --> V(  1) amplitude =  0.9621

 Excited state   9: excitation energy (eV) =    2.9131
 Total energy for state  9:                 -2280.61291462 au
    Multiplicity: Singlet
    Trans. Mom.: -0.4599 X   0.0123 Y  -0.2080 Z
    Strength   :     0.0181932769
    D(197) --> V(  1) amplitude =  0.9635

 Excited state  10: excitation energy (eV) =    3.1284
 Total energy for state 10:                 -2280.60500259 au
    Multiplicity: Singlet
    Trans. Mom.: -1.9926 X  -0.0186 Y   3.5508 Z
    Strength   :     1.2707252211
    D(196) --> V(  1) amplitude =  0.9559

 Excited state  11: excitation energy (eV) =    3.4506
 Total energy for state 11:                 -2280.59316394 au
    Multiplicity: Singlet
    Trans. Mom.:  0.0374 X   0.0117 Y  -0.0104 Z
    Strength   :     0.0001391749
    D(194) --> V(  1) amplitude =  0.9385

 Excited state  12: excitation energy (eV) =    3.6668
 Total energy for state 12:                 -2280.58521734 au
    Multiplicity: Singlet
    Trans. Mom.: -0.8275 X   0.0195 Y  -0.4666 Z
    Strength   :     0.0811101094
    D(191) --> V(  1) amplitude =  0.7560
    D(195) --> V(  2) amplitude = -0.5583

 ---------------------------------------------------

                    Orbital Energies (a.u.)
 --------------------------------------------------------------

 Alpha MOs
 -- Occupied --
-19.527 -19.525 -10.504 -10.502 -10.490 -10.484 -10.465 -10.465
-10.464 -10.464 -10.464 -10.464 -10.463 -10.463 -10.462 -10.462
-10.462 -10.462 -10.461 -10.461 -10.461 -10.461 -10.460 -10.460
-10.458 -10.458 -10.458 -10.458 -10.454 -10.453 -10.452 -10.452
-10.450 -10.449 -10.449 -10.448 -10.448 -10.447 -10.435 -10.434
-10.433 -10.433 -10.433 -10.432 -10.431 -10.431 -10.430 -10.430
-10.429 -10.426 -10.419 -10.418 -10.418 -10.418 -10.417 -10.417
 -6.946  -6.940  -1.193  -1.181  -1.015  -1.015  -0.961  -0.958
 -0.954  -0.946  -0.932  -0.932  -0.907  -0.898  -0.889  -0.887
 -0.865  -0.861  -0.854  -0.853  -0.846  -0.845  -0.824  -0.819
 -0.818  -0.812  -0.811  -0.803  -0.800  -0.800  -0.772  -0.769
 -0.734  -0.728  -0.726  -0.720  -0.709  -0.708  -0.702  -0.701
 -0.688  -0.680  -0.679  -0.665  -0.655  -0.645  -0.644  -0.643
 -0.629  -0.626  -0.595  -0.591  -0.590  -0.587  -0.582  -0.581
 -0.581  -0.575  -0.575  -0.562  -0.561  -0.543  -0.542  -0.538
 -0.535  -0.532  -0.526  -0.522  -0.513  -0.506  -0.503  -0.503
 -0.502  -0.499  -0.498  -0.494  -0.492  -0.488  -0.487  -0.485
 -0.484  -0.483  -0.481  -0.480  -0.479  -0.479  -0.476  -0.465
 -0.462  -0.459  -0.457  -0.454  -0.454  -0.450  -0.440  -0.439
 -0.434  -0.432  -0.431  -0.428  -0.428  -0.426  -0.425  -0.416
 -0.415  -0.411  -0.407  -0.405  -0.400  -0.399  -0.397  -0.395
 -0.395  -0.393  -0.392  -0.391  -0.390  -0.386  -0.380  -0.379
 -0.377  -0.372  -0.362  -0.361  -0.357  -0.355  -0.352  -0.348
 -0.341  -0.335  -0.318  -0.313  -0.295  -0.295  -0.282  -0.278
 -0.275  -0.261  -0.256  -0.254  -0.250  -0.235

          Ground-State Mulliken Net Atomic Charges

     Atom                 Charge (a.u.)
  ----------------------------------------
      1 C                    -0.145581
      2 C                    -0.389917
      3 H                     0.245620
      4 C                     0.081178
      5 C                     0.110773
      6 C                    -0.402339
      7 H                     0.244472
      8 C                    -0.151177
      9 C                     0.188029
     10 C                    -0.385121
     11 H                     0.239306
     12 C                    -0.067623
     13 C                     0.233113
     14 C                     0.187305
     15 C                    -0.393828
     16 H                     0.239504
     17 C                    -0.221891
     18 H                     0.244279
     19 C                    -0.340318
     20 H                     0.239922
     21 C                    -0.344300
     22 H                     0.240562
     23 C                    -0.219505
     24 H                     0.243690
     25 B                     0.626812
     26 C                    -0.147210
     27 C                    -0.390645
     28 H                     0.244106
     29 C                     0.081140
     30 C                     0.109659
     31 C                    -0.403660
     32 H                     0.244330
     33 C                    -0.148981
     34 C                     0.187756
     35 C                    -0.383571
     36 H                     0.239900
     37 C                    -0.067644
     38 C                     0.233715
     39 C                     0.186159
     40 C                    -0.392207
     41 H                     0.239982
     42 C                    -0.222492
     43 H                     0.244494
     44 C                    -0.340653
     45 H                     0.239993
     46 C                    -0.219856
     47 H                     0.243936
     48 C                    -0.344259
     49 H                     0.240481
     50 B                     0.646320
     51 C                    -0.259865
     52 C                     0.097135
     53 C                    -0.404284
     54 H                     0.227370
     55 C                     0.394705
     56 O                    -0.450329
     57 C                    -0.457252
     58 H                     0.237021
     59 C                     0.091878
     60 C                    -0.415929
     61 H                     0.251591
     62 H                     0.219806
     63 H                     0.220198
     64 C                    -0.550349
     65 H                     0.256381
     66 H                     0.232843
     67 C                    -0.549521
     68 H                     0.252778
     69 H                     0.236041
     70 C                    -0.654685
     71 H                     0.222382
     72 H                     0.241646
     73 H                     0.220767
     74 C                    -0.653831
     75 H                     0.244814
     76 H                     0.221913
     77 H                     0.218361
     78 C                    -0.221251
     79 C                     0.073206
     80 C                    -0.438209
     81 H                     0.240938
     82 C                     0.393689
     83 O                    -0.463121
     84 C                    -0.391904
     85 H                     0.231314
     86 C                     0.070680
     87 C                    -0.419158
     88 H                     0.246754
     89 H                     0.212229
     90 H                     0.211899
     91 C                    -0.551406
     92 H                     0.254576
     93 H                     0.233841
     94 C                    -0.551765
     95 H                     0.253290
     96 H                     0.237152
     97 C                    -0.653345
     98 H                     0.242519
     99 H                     0.218405
    100 H                     0.223553
    101 C                    -0.654767
    102 H                     0.241735
    103 H                     0.220816
    104 H                     0.222989
  ----------------------------------------
  Sum of atomic charges =     0.000000

                    Cartesian Multipole Moments
 -----------------------------------------------------------------
    Charge (ESU x 10^10)
                 0.0000
    Dipole Moment (Debye)
         X       0.3564      Y      -0.1409      Z       0.7583
       Tot       0.8496
    Quadrupole Moments (Debye-Ang)
        XX    -280.8589     XY     -20.3272     YY    -334.8908
        XZ      -0.7324     YZ     -12.4819     ZZ    -280.6492

 Total job time:  12292.85s(wall), 42523.29s(cpu)
        *  Thank you very much for using Q-Chem.  Have a nice day.  *
