 Q-Chem 5.0, Q-Chem, Inc., Pleasanton, CA (2017)
 Q-Chem 5.0.1 for Intel X86 EM64T Linux

User input:
--------------------------------------------------------------
$solvent
dielectric      2.38
dielectric_infi 2.25
$end

$rem
threads 8
jobtype	sp
method PBEh-3c
basis def2-mSVP
mem_static	1024
mem_total	14000
sym_ignore	true
cis_n_roots             2
cis_singlets            false
cis_triplets		true
rpa                     false
calc_soc 		true
cis_moments             true
cis_relaxed_density	true
solvent_method		pcm
$end

$pcm
StateSpecific   1
ChargeSeparation Excited
$end

$molecule
read ut1opt_tol.mol
$end

--------------------------------------------------------------

   15   -2280.7222199550      5.66E-09 Convergence criterion met
 Total energy in the final basis set = -2280.72221996
 Total job time:  7172.62s(wall), 19016.39s(cpu)
        *  Thank you very much for using Q-Chem.  Have a nice day.  *
 Q-Chem 5.0, Q-Chem, Inc., Pleasanton, CA (2017)
 Q-Chem 5.0.1 for Intel X86 EM64T Linux

User input:
--------------------------------------------------------------
$rem
threads 8
jobtype sp
method PBEh-3c
basis def2-mSVP
mem_static      1024
mem_total       14000
sym_ignore      true
cis_n_roots             6
cis_singlets            true
cis_triplets            true
rpa                     false
calc_soc                true
cis_moments             true
cis_relaxed_density     true
solvent_method          pcm
$end

$molecule
read
$end

$pcm
statespecific           Marcus
$end

$solvent
dielectric      2.38
dielectric_infi 2.25
$end

--------------------------------------------------------------

             Standard Nuclear Orientation (Angstroms)
    I     Atom           X                Y                Z
 ----------------------------------------------------------------
    1      C       0.0000000000     0.0000000000     0.0000000000
    2      C       0.0000000000     0.0000000000     1.4111400000
    3      H       0.9385137503     0.0000000000     1.9593386981
    4      C      -1.1772156114    -0.0012334352     2.1080604119
    5      C      -2.4283979716    -0.0064713198     1.4250169213
    6      C      -2.4468013424    -0.0019626781     0.0497154363
    7      H      -3.3928710804    -0.0119322074    -0.4809754825
    8      C      -1.2468794943     0.0069501987    -0.6937111939
    9      C      -1.4340742442    -0.0106183210     3.5442436881
   10      C      -0.6504907709    -0.0115564798     4.6714443762
   11      H       0.4314511487     0.0021580573     4.6158131634
   12      C      -2.8335832354    -0.0269471323     3.6921336954
   13      C      -3.4813976031    -0.0478433660     4.9253308304
   14      C      -3.4844502039    -0.0257256886     2.4399727868
   15      C      -4.8565994908    -0.0474003049     2.4326501474
   16      H      -5.4217885211    -0.0508996129     1.5092304401
   17      C      -1.2826567196    -0.0306188874     5.9357007320
   18      H      -0.6646130247    -0.0309647297     6.8249094340
   19      C      -2.6517456504    -0.0490668059     6.0735610396
   20      H      -3.0949753174    -0.0644918724     7.0620150116
   21      C      -4.8959502184    -0.0685722546     4.8841407311
   22      H      -5.4666712927    -0.0861957800     5.8047285456
   23      C      -5.5436923181    -0.0681969511     3.6702771479
   24      H      -6.6260061105    -0.0855347071     3.6556852075
   25      B       1.3057656534    -0.0259132040    -0.7890282066
   26      C       1.2946818536    -0.0123428458    -2.3156376586
   27      C       2.4974695639    -0.0116938332    -3.0549400833
   28      H       3.4540604089    -0.0204525950    -2.5389310052
   29      C       2.4754870031     0.0028252130    -4.4236905779
   30      C       1.2378251720     0.0157265096    -5.1324389163
   31      C       0.0551045605     0.0157080565    -4.4278350668
   32      H      -0.8920578715     0.0314361119    -4.9572025051
   33      C       0.0490642667    -0.0014310944    -3.0164130488
   34      C       3.5645716200     0.0081271629    -5.3930089461
   35      C       4.9345658769     0.0018399224    -5.3111511501
   36      H       5.4509609870    -0.0081115776    -4.3585620373
   37      C       2.9575669767     0.0227422181    -6.6635455441
   38      C       3.6689199409     0.0301618926    -7.8595551889
   39      C       1.5490187639     0.0287919620    -6.5623309102
   40      C       0.8217782710     0.0431063918    -7.7257030866
   41      H      -0.2610031825     0.0482771681    -7.7220387980
   42      C       5.6807006741     0.0090643393    -6.5112772818
   43      H       6.7618154800     0.0040684478    -6.4502572601
   44      C       5.0816236864     0.0224996594    -7.7506122090
   45      H       5.6937610694     0.0277011776    -8.6443451073
   46      C       1.5173090648     0.0509446367    -8.9585387088
   47      H       0.9386739501     0.0620580602    -9.8733367663
   48      C       2.8909207199     0.0449358686    -9.0423453660
   49      H       3.3748048877     0.0516611206   -10.0113469913
   50      B      -1.2794451722     0.0002215474    -2.2341653162
   51      C      -2.6624616240    -0.0151357576    -2.9944744684
   52      C      -3.4063027594     1.1567532139    -3.1639612414
   53      C      -4.6250591171     1.1425005471    -3.8435546941
   54      H      -5.1655577735     2.0745761389    -3.9568251037
   55      C      -5.1226625787    -0.0458995719    -4.3594318132
   56      O      -6.2910523445    -0.1600059153    -5.0317952355
   57      C      -4.3939715994    -1.2193596529    -4.1902131626
   58      H      -4.7889647931    -2.1461784556    -4.5923544013
   59      C      -3.1803610352    -1.2116665306    -3.5208559405
   60      C      -7.0498863056     1.0017576736    -5.2477944126
   61      H      -7.9309765997     0.6992895833    -5.8102563956
   62      H      -6.5050272521     1.7508505536    -5.8313059695
   63      H      -7.3777701944     1.4642006851    -4.3112110294
   64      C      -2.8828391086     2.4801798278    -2.6654228456
   65      H      -2.3366419494     2.3416171454    -1.7295586656
   66      H      -3.7216655571     3.1413838036    -2.4311389647
   67      C      -2.4550060027    -2.5205897387    -3.3297211187
   68      H      -1.3752327803    -2.3648597955    -3.3864611336
   69      H      -2.7074028920    -3.1985087390    -4.1493719937
   70      C      -1.9693288909     3.1652547274    -3.6799035507
   71      H      -1.0886361882     2.5577229138    -3.8887075465
   72      H      -2.4873442877     3.3356104861    -4.6247775454
   73      H      -1.6248462875     4.1308545881    -3.3063390709
   74      C      -2.7954784602    -3.1929648567    -2.0007757384
   75      H      -2.5014479016    -2.5707856181    -1.1554832413
   76      H      -3.8668202289    -3.3808443133    -1.9182142654
   77      H      -2.2789659829    -4.1494435908    -1.9041184353
   78      C       2.6744476338    -0.1020126585    -0.0059253473
   79      C       3.4661505501     1.0738605619     0.2258421362
   80      C       4.6324588740     0.9823180845     0.9262704590
   81      H       5.2473853360     1.8555135889     1.1101379379
   82      C       5.0697322089    -0.2657292338     1.4446062502
   83      O       6.1957972007    -0.2308768518     2.1038421113
   84      C       4.3083093127    -1.4327435678     1.2362407371
   85      H       4.6351235715    -2.3856037928     1.6318986672
   86      C       3.1446249424    -1.3638336458     0.5194001251
   87      C       6.7515926106    -1.4130768848     2.6795670583
   88      H       7.6738250661    -1.1029707575     3.1599455526
   89      H       6.0789619685    -1.8379417599     3.4249443830
   90      H       6.9732941110    -2.1544818989     1.9116443603
   91      C       2.3816727482    -2.6242307850     0.2514220549
   92      H       1.3110417290    -2.4185490074     0.2455248053
   93      H       2.5669556685    -3.3364014562     1.0583608972
   94      C       2.9914672548     2.4146457220    -0.2477312305
   95      H       2.4303663535     2.3056567409    -1.1764243378
   96      H       3.8556132905     3.0442140264    -0.4705439322
   97      C       2.1168745784     3.0978593479     0.8039389573
   98      H       1.7910516989     4.0739536112     0.4463320582
   99      H       1.2246184994     2.5116927769     1.0216405152
  100      H       2.6631990801     3.2447533985     1.7365442786
  101      C       2.7903249252    -3.2491580185    -1.0847030144
  102      H       2.5851915068    -2.5770914602    -1.9165396628
  103      H       2.2274736327    -4.1663600856    -1.2537487505
  104      H       3.8524694975    -3.4961873025    -1.0978455980
 ----------------------------------------------------------------

   15   -2280.7222114464      5.72E-09 Convergence criterion met
 Total energy in the final basis set = -2280.72221145

         TDDFT/TDA Excitation Energies
 ---------------------------------------------------

 Excited state   1: excitation energy (eV) =    2.2210
 Total energy for state  1:                 -2280.64059173 au
    Multiplicity: Triplet
    Trans. Mom.:  0.0000 X   0.0000 Y   0.0000 Z
    Strength   :     0.0000000000
    D(191) --> V(  2) amplitude = -0.2404
    D(195) --> V(  1) amplitude =  0.9193

 Excited state   2: excitation energy (eV) =    2.4118
 Total energy for state  2:                 -2280.63358090 au
    Multiplicity: Triplet
    Trans. Mom.:  0.0000 X   0.0000 Y   0.0000 Z
    Strength   :     0.0000000000
    D(194) --> V(  2) amplitude =  0.2153
    D(196) --> V(  1) amplitude =  0.3615
    D(198) --> V(  1) amplitude =  0.8243

 Excited state   3: excitation energy (eV) =    2.4365
 Total energy for state  3:                 -2280.63267226 au
    Multiplicity: Triplet
    Trans. Mom.:  0.0000 X   0.0000 Y   0.0000 Z
    Strength   :     0.0000000000
    D(194) --> V(  2) amplitude =  0.4113
    D(196) --> V(  1) amplitude =  0.7209
    D(198) --> V(  1) amplitude = -0.4081

 Excited state   4: excitation energy (eV) =    2.4903
 Total energy for state  4:                 -2280.63069632 au
    Multiplicity: Singlet
    Trans. Mom.:  0.4727 X  -0.0467 Y   0.3871 Z
    Strength   :     0.0229089705
    D(198) --> V(  1) amplitude =  0.9737

 Excited state   5: excitation energy (eV) =    2.4976
 Total energy for state  5:                 -2280.63042816 au
    Multiplicity: Triplet
    Trans. Mom.:  0.0000 X   0.0000 Y   0.0000 Z
    Strength   :     0.0000000000
    D(194) --> V(  1) amplitude =  0.6803
    D(194) --> V(  4) amplitude = -0.2195
    D(196) --> V(  2) amplitude =  0.5175
    D(197) --> V(  1) amplitude = -0.2510
    D(198) --> V(  1) amplitude =  0.2494

 Excited state   6: excitation energy (eV) =    2.7323
 Total energy for state  6:                 -2280.62180226 au
    Multiplicity: Triplet
    Trans. Mom.:  0.0000 X   0.0000 Y   0.0000 Z
    Strength   :     0.0000000000
    D(191) --> V(  1) amplitude =  0.6562
    D(195) --> V(  2) amplitude = -0.5251
    D(197) --> V(  1) amplitude =  0.2946

 Excited state   7: excitation energy (eV) =    2.8783
 Total energy for state  7:                 -2280.61643569 au
    Multiplicity: Triplet
    Trans. Mom.:  0.0000 X   0.0000 Y   0.0000 Z
    Strength   :     0.0000000000
    D(191) --> V(  1) amplitude = -0.2422
    D(197) --> V(  1) amplitude =  0.8763

 Excited state   8: excitation energy (eV) =    2.8845
 Total energy for state  8:                 -2280.61620794 au
    Multiplicity: Singlet
    Trans. Mom.:  0.0442 X   0.0002 Y   0.0117 Z
    Strength   :     0.0001479237
    D(195) --> V(  1) amplitude =  0.9616

 Excited state   9: excitation energy (eV) =    2.9137
 Total energy for state  9:                 -2280.61513578 au
    Multiplicity: Singlet
    Trans. Mom.: -0.4668 X   0.0113 Y  -0.2134 Z
    Strength   :     0.0188169566
    D(197) --> V(  1) amplitude =  0.9635

 Excited state  10: excitation energy (eV) =    3.1174
 Total energy for state 10:                 -2280.60764900 au
    Multiplicity: Singlet
    Trans. Mom.: -2.0249 X  -0.0193 Y   3.6072 Z
    Strength   :     1.3069709576
    D(196) --> V(  1) amplitude =  0.9559

 Excited state  11: excitation energy (eV) =    3.4408
 Total energy for state 11:                 -2280.59576437 au
    Multiplicity: Singlet
    Trans. Mom.:  0.0367 X   0.0127 Y  -0.0109 Z
    Strength   :     0.0001372916
    D(194) --> V(  1) amplitude =  0.9390

 Excited state  12: excitation energy (eV) =    3.6662
 Total energy for state 12:                 -2280.58748044 au
    Multiplicity: Singlet
    Trans. Mom.: -0.8477 X   0.0186 Y  -0.4778 Z
    Strength   :     0.0850728915
    D(191) --> V(  1) amplitude =  0.7603
    D(195) --> V(  2) amplitude = -0.5538

 ---------------------------------------------------

                    Orbital Energies (a.u.)
 --------------------------------------------------------------

 Alpha MOs
 -- Occupied --
-19.527 -19.525 -10.505 -10.502 -10.489 -10.484 -10.465 -10.465
-10.465 -10.465 -10.464 -10.464 -10.464 -10.464 -10.463 -10.463
-10.462 -10.462 -10.461 -10.461 -10.461 -10.461 -10.461 -10.460
-10.458 -10.458 -10.458 -10.458 -10.454 -10.454 -10.453 -10.452
-10.451 -10.450 -10.450 -10.448 -10.448 -10.448 -10.436 -10.435
-10.434 -10.434 -10.433 -10.433 -10.432 -10.431 -10.431 -10.430
-10.430 -10.426 -10.419 -10.419 -10.418 -10.418 -10.418 -10.418
 -6.947  -6.940  -1.193  -1.181  -1.016  -1.015  -0.962  -0.958
 -0.954  -0.947  -0.933  -0.933  -0.908  -0.899  -0.889  -0.887
 -0.865  -0.861  -0.855  -0.854  -0.846  -0.846  -0.824  -0.820
 -0.818  -0.813  -0.811  -0.803  -0.801  -0.801  -0.772  -0.769
 -0.735  -0.728  -0.726  -0.720  -0.710  -0.709  -0.703  -0.702
 -0.688  -0.681  -0.679  -0.666  -0.655  -0.645  -0.645  -0.644
 -0.630  -0.627  -0.595  -0.592  -0.590  -0.587  -0.582  -0.582
 -0.581  -0.575  -0.575  -0.562  -0.561  -0.543  -0.543  -0.538
 -0.536  -0.532  -0.526  -0.522  -0.513  -0.507  -0.503  -0.503
 -0.502  -0.499  -0.498  -0.494  -0.492  -0.489  -0.488  -0.485
 -0.484  -0.484  -0.482  -0.480  -0.479  -0.479  -0.477  -0.465
 -0.462  -0.459  -0.458  -0.455  -0.454  -0.450  -0.441  -0.440
 -0.435  -0.433  -0.431  -0.429  -0.428  -0.427  -0.425  -0.417
 -0.416  -0.411  -0.407  -0.406  -0.401  -0.400  -0.397  -0.396
 -0.395  -0.394  -0.393  -0.391  -0.391  -0.386  -0.380  -0.379
 -0.377  -0.373  -0.362  -0.361  -0.357  -0.355  -0.352  -0.348
 -0.342  -0.336  -0.319  -0.314  -0.296  -0.295  -0.282  -0.279
 -0.276  -0.262  -0.256  -0.255  -0.251  -0.236

          Ground-State Mulliken Net Atomic Charges

     Atom                 Charge (a.u.)
  ----------------------------------------
      1 C                    -0.145490
      2 C                    -0.390252
      3 H                     0.246735
      4 C                     0.079608
      5 C                     0.109206
      6 C                    -0.402646
      7 H                     0.245545
      8 C                    -0.151122
      9 C                     0.186258
     10 C                    -0.386062
     11 H                     0.242149
     12 C                    -0.067870
     13 C                     0.230170
     14 C                     0.185647
     15 C                    -0.394718
     16 H                     0.242332
     17 C                    -0.224449
     18 H                     0.247162
     19 C                    -0.341413
     20 H                     0.243142
     21 C                    -0.345383
     22 H                     0.243777
     23 C                    -0.222079
     24 H                     0.246555
     25 B                     0.626609
     26 C                    -0.147213
     27 C                    -0.391060
     28 H                     0.245263
     29 C                     0.079527
     30 C                     0.108159
     31 C                    -0.403921
     32 H                     0.245438
     33 C                    -0.149012
     34 C                     0.185965
     35 C                    -0.384516
     36 H                     0.242715
     37 C                    -0.067869
     38 C                     0.230781
     39 C                     0.184521
     40 C                    -0.393129
     41 H                     0.242793
     42 C                    -0.225031
     43 H                     0.247347
     44 C                    -0.341770
     45 H                     0.243201
     46 C                    -0.222427
     47 H                     0.246787
     48 C                    -0.345341
     49 H                     0.243682
     50 B                     0.645786
     51 C                    -0.221139
     52 C                     0.071881
     53 C                    -0.439692
     54 H                     0.244046
     55 C                     0.392453
     56 O                    -0.464572
     57 C                    -0.394032
     58 H                     0.233044
     59 C                     0.069273
     60 C                    -0.421198
     61 H                     0.248025
     62 H                     0.213738
     63 H                     0.213462
     64 C                    -0.551465
     65 H                     0.254297
     66 H                     0.235344
     67 C                    -0.551889
     68 H                     0.253194
     69 H                     0.238373
     70 C                    -0.654553
     71 H                     0.241858
     72 H                     0.219136
     73 H                     0.224478
     74 C                    -0.655892
     75 H                     0.241218
     76 H                     0.221277
     77 H                     0.223976
     78 C                    -0.260537
     79 C                     0.095946
     80 C                    -0.406801
     81 H                     0.229043
     82 C                     0.393450
     83 O                    -0.451163
     84 C                    -0.459234
     85 H                     0.240166
     86 C                     0.090912
     87 C                    -0.417794
     88 H                     0.252989
     89 H                     0.221529
     90 H                     0.221844
     91 C                    -0.550579
     92 H                     0.256034
     93 H                     0.234455
     94 C                    -0.549672
     95 H                     0.252629
     96 H                     0.237284
     97 C                    -0.655769
     98 H                     0.223288
     99 H                     0.241081
    100 H                     0.221240
    101 C                    -0.655013
    102 H                     0.244044
    103 H                     0.222834
    104 H                     0.219067
  ----------------------------------------
  Sum of atomic charges =     0.000000

                    Cartesian Multipole Moments
 -----------------------------------------------------------------
    Charge (ESU x 10^10)
                 0.0000
    Dipole Moment (Debye)
         X       0.3763      Y      -0.1436      Z       0.7793
       Tot       0.8772
    Quadrupole Moments (Debye-Ang)
        XX    -279.2959     XY     -20.7798     YY    -334.6153
        XZ      -0.9349     YZ     -12.7121     ZZ    -278.9833

 Total job time:  13604.95s(wall), 45624.41s(cpu)
        *  Thank you very much for using Q-Chem.  Have a nice day.  *
