 Q-Chem 5.0, Q-Chem, Inc., Pleasanton, CA (2017)
 Q-Chem 5.0.1 for Intel X86 EM64T Linux

User input:
--------------------------------------------------------------
$solvent
dielectric      1.0001
dielectric_infi 1.00009
$end

$rem
threads 8
jobtype	sp
method PBEh-3c
basis def2-mSVP
mem_static	1024
mem_total	14000
sym_ignore	true
cis_n_roots             2
cis_singlets            false
cis_triplets		true
rpa                     false
calc_soc 		true
cis_moments             true
cis_relaxed_density	true
solvent_method		pcm
$end

$pcm
StateSpecific   1
ChargeSeparation Excited
$end

$molecule
read ut1opt_vac.mol
$end

--------------------------------------------------------------

   15   -2280.7067737127      7.15E-09 Convergence criterion met
 Total energy in the final basis set = -2280.70677371
 Total job time:  7931.38s(wall), 21447.59s(cpu)
        *  Thank you very much for using Q-Chem.  Have a nice day.  *
 Q-Chem 5.0, Q-Chem, Inc., Pleasanton, CA (2017)
 Q-Chem 5.0.1 for Intel X86 EM64T Linux

User input:
--------------------------------------------------------------
$rem
threads 8
jobtype sp
method PBEh-3c
basis def2-mSVP
mem_static      1024
mem_total       14000
sym_ignore      true
cis_n_roots             6
cis_singlets            true
cis_triplets            true
rpa                     false
calc_soc                true
cis_moments             true
cis_relaxed_density     true
solvent_method          pcm
$end

$molecule
read
$end

$pcm
statespecific           Marcus
$end

$solvent
dielectric      1.0001
dielectric_infi 1.00009
$end

--------------------------------------------------------------

             Standard Nuclear Orientation (Angstroms)
    I     Atom           X                Y                Z
 ----------------------------------------------------------------
    1      C       0.0000000000     0.0000000000     0.0000000000
    2      C       0.0000000000     0.0000000000     1.4022080000
    3      H       0.9449692574     0.0000000000     1.9336612087
    4      C      -1.1809090569    -0.0066566836     2.0942555784
    5      C      -1.4449019325    -0.0172322647     3.5126222018
    6      C      -0.6595317996    -0.0162102299     4.6431258785
    7      H       0.4214352909    -0.0000720699     4.5855243275
    8      C      -1.2950017073    -0.0370389946     5.9002619728
    9      H      -0.6814020651    -0.0360766846     6.7918216544
   10      C      -2.6667642439    -0.0594153083     6.0339582889
   11      H      -3.1099405346    -0.0761558508     7.0220487011
   12      C      -2.8481226588    -0.0380084897     3.6551047220
   13      C      -3.4973645733    -0.0606111454     4.8874179095
   14      C      -3.5024857457    -0.0386231503     2.4036992179
   15      C      -4.8768379460    -0.0637523405     2.3928160192
   16      H      -5.4388243076    -0.0686530462     1.4680409542
   17      C      -5.5609487730    -0.0860537907     3.6270190278
   18      H      -6.6427368951    -0.1062170526     3.6154373467
   19      C      -4.9101598698    -0.0848971153     4.8413506944
   20      H      -5.4822750200    -0.1039689550     5.7606963986
   21      C      -2.4570919061    -0.0161184081     1.3941045746
   22      C      -2.4771654194    -0.0091243063     0.0252566171
   23      H      -3.4184323107    -0.0196248113    -0.5120676869
   24      C      -1.2712122571     0.0045682466    -0.7100218569
   25      B       1.3325413705    -0.0221824731    -0.7532929823
   26      C       1.2868637801    -0.0259892853    -2.2847191955
   27      C       2.4874430046    -0.0490157390    -3.0097592416
   28      H       3.4287379796    -0.0736927205    -2.4718528916
   29      C       2.4708352247    -0.0381370408    -4.3793343489
   30      C       3.5490574471    -0.0529913883    -5.3368141929
   31      C       4.9215635004    -0.0840799530    -5.2437179691
   32      H       5.4277620438    -0.1041711117    -4.2867605106
   33      C       5.6699539634    -0.0891527314    -6.4369195706
   34      H       6.7499868988    -0.1136456774    -6.3720414688
   35      C       5.0764617915    -0.0636429596    -7.6811820782
   36      H       5.6955686693    -0.0685351097    -8.5696801306
   37      C       2.9463289733    -0.0268588599    -6.6126647720
   38      C       3.6659919332    -0.0309012040    -7.8035090739
   39      C       1.5362490027     0.0039083237    -6.5261745923
   40      C       0.8149558854     0.0317331049    -7.6954482018
   41      H      -0.2670820864     0.0556940539    -7.6974010218
   42      C       1.5191942442     0.0284242691    -8.9184735338
   43      H       0.9510668332     0.0504441492    -9.8390280397
   44      C       2.8949797882    -0.0015756304    -8.9887325687
   45      H       3.3851197482    -0.0026529496    -9.9542859314
   46      C       1.2122639790    -0.0033884234    -5.1100596000
   47      C       0.0288355676     0.0165068659    -4.4197558493
   48      H      -0.9167154463     0.0455694413    -4.9496057549
   49      C       0.0213401578     0.0014564990    -3.0071409066
   50      B      -1.3084007270     0.0130585848    -2.2425131909
   51      C      -2.6859671780     0.0241254886    -3.0048969524
   52      C      -3.4152209192     1.2075641169    -3.1532454551
   53      C      -4.6330272802     1.2172258446    -3.8326500117
   54      H      -5.1629185706     2.1568560843    -3.9302639868
   55      C      -5.1428857295     0.0432710517    -4.3686433320
   56      O      -6.3102617750    -0.0482129591    -5.0417967132
   57      C      -4.4272842278    -1.1406487749    -4.2199345957
   58      H      -4.8346032072    -2.0541484664    -4.6385826286
   59      C      -3.2146364800    -1.1585005591    -3.5516680101
   60      C      -7.0551829146     1.1210291001    -5.2449008212
   61      H      -7.9364131061     0.8346093028    -5.8154556055
   62      H      -6.5012751808     1.8737778541    -5.8159195461
   63      H      -7.3843659111     1.5750024306    -4.3040499391
   64      C      -2.8769342022     2.5165039749    -2.6328195786
   65      H      -2.3450106001     2.3624318247    -1.6908214771
   66      H      -3.7079231885     3.1878128990    -2.4001456959
   67      C      -2.5038279460    -2.4782233470    -3.3816070067
   68      H      -1.4218763301    -2.3393649865    -3.4472144726
   69      H      -2.7714736393    -3.1426845776    -4.2071024111
   70      C      -1.9414250338     3.1999246766    -3.6276140348
   71      H      -1.0629445448     2.5869253653    -3.8303531462
   72      H      -2.4436795700     3.3822409327    -4.5783785420
   73      H      -1.5922193188     4.1586172780    -3.2419107104
   74      C      -2.8407447041    -3.1633334254    -2.0587875699
   75      H      -2.5252442999    -2.5618198550    -1.2061687046
   76      H      -3.9141727502    -3.3315996574    -1.9661187164
   77      H      -2.3412299158    -4.1300331248    -1.9819203265
   78      C       2.7044709683    -0.0520731789     0.0312247983
   79      C       3.2143142982    -1.2502345068     0.5423953150
   80      C       4.4186014588    -1.2785663739     1.2451174681
   81      H       4.7743769084    -2.2308540168     1.6205557764
   82      C       5.1383868299    -0.1115910936     1.4501571342
   83      O       6.3122389804    -0.0414021097     2.1150649950
   84      C       4.6421551241     1.0865876186     0.9478799231
   85      H       5.2064524752     1.9975657054     1.1134957820
   86      C       3.4457225834     1.1232842334     0.2509131243
   87      C       6.8562475840    -1.2240129613     2.6353780831
   88      H       7.7901093279    -0.9501134186     3.1222957530
   89      H       7.0750632444    -1.9608995457     1.8553182815
   90      H       6.2026856773    -1.6924833122     3.3788645797
   91      C       2.9318585290     2.4648339473    -0.2028113912
   92      H       2.3308403101     2.3584421378    -1.1088180574
   93      H       3.7750803998     3.1058416440    -0.4730280079
   94      C       2.5171493499    -2.5660584206     0.3037866963
   95      H       1.4427815413    -2.4129899413     0.1822636436
   96      H       2.6322653185    -3.2056347958     1.1833189416
   97      C       3.0635087422    -3.2918233504    -0.9234388618
   98      H       2.9162595587    -2.6989312516    -1.8264328209
   99      H       2.5631643549    -4.2499282731    -1.0695242363
  100      H       4.1327922539    -3.4832424451    -0.8244927726
  101      C       2.1020640947     3.1534758684     0.8783862372
  102      H       1.2210203948     2.5647354009     1.1349234622
  103      H       2.6845375391     3.2907606066     1.7901195270
  104      H       1.7597699291     4.1344398579     0.5466339250
 ----------------------------------------------------------------

   15   -2280.7067736835      7.15E-09 Convergence criterion met
 Total energy in the final basis set = -2280.70677368

         TDDFT/TDA Excitation Energies
 ---------------------------------------------------

 Excited state   1: excitation energy (eV) =    1.9532
 Total energy for state  1:                 -2280.63499492 au
    Multiplicity: Triplet
    Trans. Mom.:  0.0000 X   0.0000 Y   0.0000 Z
    Strength   :     0.0000000000
    D(191) --> V(  2) amplitude =  0.2403
    D(197) --> V(  1) amplitude =  0.8277
    D(198) --> V(  1) amplitude = -0.4136

 Excited state   2: excitation energy (eV) =    2.3541
 Total energy for state  2:                 -2280.62026168 au
    Multiplicity: Triplet
    Trans. Mom.:  0.0000 X   0.0000 Y   0.0000 Z
    Strength   :     0.0000000000
    D(194) --> V(  2) amplitude = -0.4615
    D(195) --> V(  1) amplitude =  0.8056

 Excited state   3: excitation energy (eV) =    2.4043
 Total energy for state  3:                 -2280.61841844 au
    Multiplicity: Triplet
    Trans. Mom.:  0.0000 X   0.0000 Y   0.0000 Z
    Strength   :     0.0000000000
    D(194) --> V(  1) amplitude =  0.6700
    D(195) --> V(  2) amplitude = -0.4705
    D(197) --> V(  2) amplitude = -0.2483

 Excited state   4: excitation energy (eV) =    2.4855
 Total energy for state  4:                 -2280.61543390 au
    Multiplicity: Triplet
    Trans. Mom.:  0.0000 X   0.0000 Y   0.0000 Z
    Strength   :     0.0000000000
    D(191) --> V(  1) amplitude =  0.6379
    D(194) --> V(  1) amplitude =  0.2323
    D(195) --> V(  2) amplitude = -0.2820
    D(197) --> V(  2) amplitude =  0.4273
    D(198) --> V(  1) amplitude =  0.2360
    D(198) --> V(  2) amplitude = -0.2126

 Excited state   5: excitation energy (eV) =    2.6368
 Total energy for state  5:                 -2280.60987489 au
    Multiplicity: Singlet
    Trans. Mom.:  0.1201 X  -0.0094 Y  -0.1908 Z
    Strength   :     0.0032901600
    D(197) --> V(  1) amplitude =  0.8591
    D(198) --> V(  1) amplitude = -0.4370

 Excited state   6: excitation energy (eV) =    2.7342
 Total energy for state  6:                 -2280.60629250 au
    Multiplicity: Triplet
    Trans. Mom.:  0.0000 X   0.0000 Y   0.0000 Z
    Strength   :     0.0000000000
    D(191) --> V(  1) amplitude = -0.2577
    D(197) --> V(  1) amplitude =  0.3881
    D(198) --> V(  1) amplitude =  0.7873

 Excited state   7: excitation energy (eV) =    2.7851
 Total energy for state  7:                 -2280.60442477 au
    Multiplicity: Singlet
    Trans. Mom.: -0.5537 X   0.0317 Y  -0.3383 Z
    Strength   :     0.0288003721
    D(197) --> V(  1) amplitude =  0.4321
    D(198) --> V(  1) amplitude =  0.8527

 Excited state   8: excitation energy (eV) =    2.8426
 Total energy for state  8:                 -2280.60231018 au
    Multiplicity: Triplet
    Trans. Mom.:  0.0000 X   0.0000 Y   0.0000 Z
    Strength   :     0.0000000000
    D(194) --> V(  1) amplitude =  0.2144
    D(196) --> V(  1) amplitude =  0.9164

 Excited state   9: excitation energy (eV) =    2.8780
 Total energy for state  9:                 -2280.60101092 au
    Multiplicity: Singlet
    Trans. Mom.: -0.0300 X  -0.0015 Y   0.1227 Z
    Strength   :     0.0011259459
    D(196) --> V(  1) amplitude =  0.9581

 Excited state  10: excitation energy (eV) =    3.1399
 Total energy for state 10:                 -2280.59138539 au
    Multiplicity: Singlet
    Trans. Mom.:  1.7481 X   0.0047 Y  -3.0859 Z
    Strength   :     0.9676355030
    D(195) --> V(  1) amplitude =  0.9428

 Excited state  11: excitation energy (eV) =    3.4537
 Total energy for state 11:                 -2280.57985205 au
    Multiplicity: Singlet
    Trans. Mom.:  0.5004 X  -0.0201 Y   0.2417 Z
    Strength   :     0.0261651963
    D(191) --> V(  1) amplitude = -0.3791
    D(194) --> V(  1) amplitude =  0.7791
    D(197) --> V(  2) amplitude = -0.3261

 Excited state  12: excitation energy (eV) =    3.4778
 Total energy for state 12:                 -2280.57896505 au
    Multiplicity: Singlet
    Trans. Mom.: -0.5863 X   0.0070 Y  -0.3687 Z
    Strength   :     0.0408775258
    D(191) --> V(  1) amplitude =  0.5796
    D(194) --> V(  1) amplitude =  0.5153
    D(197) --> V(  2) amplitude =  0.4499
    D(198) --> V(  2) amplitude = -0.2238

 ---------------------------------------------------

                    Orbital Energies (a.u.)
 --------------------------------------------------------------

 Alpha MOs
 -- Occupied --
-19.523 -19.522 -10.498 -10.498 -10.488 -10.488 -10.464 -10.464
-10.463 -10.463 -10.463 -10.463 -10.461 -10.461 -10.461 -10.461
-10.461 -10.461 -10.460 -10.460 -10.459 -10.459 -10.458 -10.458
-10.458 -10.458 -10.457 -10.457 -10.450 -10.450 -10.448 -10.447
-10.447 -10.446 -10.446 -10.445 -10.445 -10.445 -10.432 -10.432
-10.431 -10.431 -10.431 -10.430 -10.430 -10.430 -10.429 -10.428
-10.426 -10.425 -10.418 -10.416 -10.416 -10.415 -10.415 -10.413
 -6.939  -6.938  -1.180  -1.179  -1.012  -1.012  -0.957  -0.953
 -0.951  -0.950  -0.932  -0.932  -0.902  -0.893  -0.885  -0.884
 -0.864  -0.860  -0.854  -0.853  -0.846  -0.846  -0.819  -0.818
 -0.814  -0.811  -0.810  -0.797  -0.797  -0.795  -0.772  -0.771
 -0.731  -0.730  -0.727  -0.716  -0.708  -0.706  -0.700  -0.699
 -0.687  -0.681  -0.676  -0.665  -0.653  -0.644  -0.639  -0.639
 -0.627  -0.627  -0.596  -0.592  -0.588  -0.588  -0.582  -0.581
 -0.580  -0.575  -0.573  -0.560  -0.559  -0.540  -0.540  -0.533
 -0.533  -0.532  -0.525  -0.521  -0.513  -0.506  -0.501  -0.501
 -0.499  -0.498  -0.497  -0.495  -0.490  -0.489  -0.485  -0.482
 -0.481  -0.480  -0.479  -0.478  -0.478  -0.478  -0.476  -0.463
 -0.459  -0.457  -0.456  -0.454  -0.451  -0.448  -0.441  -0.435
 -0.433  -0.431  -0.428  -0.426  -0.425  -0.424  -0.420  -0.412
 -0.410  -0.409  -0.406  -0.403  -0.398  -0.397  -0.397  -0.394
 -0.393  -0.393  -0.390  -0.388  -0.387  -0.383  -0.379  -0.377
 -0.373  -0.367  -0.360  -0.359  -0.356  -0.354  -0.351  -0.343
 -0.337  -0.333  -0.318  -0.313  -0.294  -0.293  -0.274  -0.271
 -0.271  -0.259  -0.252  -0.247  -0.245  -0.245

          Ground-State Mulliken Net Atomic Charges

     Atom                 Charge (a.u.)
  ----------------------------------------
      1 C                    -0.148879
      2 C                    -0.385308
      3 H                     0.238030
      4 C                     0.081097
      5 C                     0.198707
      6 C                    -0.370603
      7 H                     0.221718
      8 C                    -0.206018
      9 H                     0.226344
     10 C                    -0.330922
     11 H                     0.219827
     12 C                    -0.071334
     13 C                     0.250427
     14 C                     0.202682
     15 C                    -0.381012
     16 H                     0.221732
     17 C                    -0.203434
     18 H                     0.225954
     19 C                    -0.335429
     20 H                     0.220309
     21 C                     0.108088
     22 C                    -0.392044
     23 H                     0.238966
     24 C                    -0.153989
     25 B                     0.642380
     26 C                    -0.149594
     27 C                    -0.386103
     28 H                     0.236418
     29 C                     0.081215
     30 C                     0.198153
     31 C                    -0.369456
     32 H                     0.222407
     33 C                    -0.206631
     34 H                     0.226603
     35 C                    -0.331221
     36 H                     0.219912
     37 C                    -0.071010
     38 C                     0.251025
     39 C                     0.201543
     40 C                    -0.379764
     41 H                     0.222185
     42 C                    -0.203765
     43 H                     0.226236
     44 C                    -0.335423
     45 H                     0.220280
     46 C                     0.107613
     47 C                    -0.393383
     48 H                     0.237999
     49 C                    -0.152870
     50 B                     0.641569
     51 C                    -0.222528
     52 C                     0.082350
     53 C                    -0.428616
     54 H                     0.221200
     55 C                     0.401899
     56 O                    -0.453764
     57 C                    -0.378709
     58 H                     0.219245
     59 C                     0.080636
     60 C                    -0.405743
     61 H                     0.238542
     62 H                     0.203263
     63 H                     0.202573
     64 C                    -0.550205
     65 H                     0.255835
     66 H                     0.224407
     67 C                    -0.549896
     68 H                     0.253356
     69 H                     0.228845
     70 C                    -0.645387
     71 H                     0.245938
     72 H                     0.213833
     73 H                     0.217526
     74 C                    -0.647340
     75 H                     0.244699
     76 H                     0.217226
     77 H                     0.217056
     78 C                    -0.231626
     79 C                     0.076954
     80 C                    -0.422968
     81 H                     0.221605
     82 C                     0.401734
     83 O                    -0.454116
     84 C                    -0.372733
     85 H                     0.219231
     86 C                     0.078648
     87 C                    -0.405747
     88 H                     0.238802
     89 H                     0.203170
     90 H                     0.202879
     91 C                    -0.550295
     92 H                     0.253193
     93 H                     0.229879
     94 C                    -0.550262
     95 H                     0.256995
     96 H                     0.225998
     97 C                    -0.640388
     98 H                     0.240585
     99 H                     0.217726
    100 H                     0.212159
    101 C                    -0.644294
    102 H                     0.241247
    103 H                     0.216854
    104 H                     0.217305
  ----------------------------------------
  Sum of atomic charges =     0.000000

                    Cartesian Multipole Moments
 -----------------------------------------------------------------
    Charge (ESU x 10^10)
                 0.0000
    Dipole Moment (Debye)
         X      -0.0389      Y      -0.0639      Z       0.3647
       Tot       0.3723
    Quadrupole Moments (Debye-Ang)
        XX    -291.5807     XY     -17.7350     YY    -337.1804
        XZ      -2.3553     YZ     -10.1952     ZZ    -289.5249

 Total job time:  14595.52s(wall), 48538.21s(cpu)
        *  Thank you very much for using Q-Chem.  Have a nice day.  *
