 Q-Chem 5.0, Q-Chem, Inc., Pleasanton, CA (2017)
 Q-Chem 5.0.1 for Intel X86 EM64T Linux

User input:
--------------------------------------------------------------
$solvent
dielectric      8.93
dielectric_infi 2.03
$end

$rem
threads 8
jobtype	sp
method PBEh-3c
basis def2-mSVP
mem_static	1024
mem_total	14000
sym_ignore	true
cis_n_roots             2
cis_singlets            false
cis_triplets		true
rpa                     false
calc_soc 		true
cis_moments             true
cis_relaxed_density	true
solvent_method		pcm
$end

$pcm
StateSpecific   1
ChargeSeparation Excited
$end

$molecule
read ut1opt_dcm.mol
$end

--------------------------------------------------------------

   14   -2280.7326458186      8.85E-09 Convergence criterion met
 Total energy in the final basis set = -2280.73264582
 Q-Chem 5.0, Q-Chem, Inc., Pleasanton, CA (2017)
 Q-Chem 5.0.1 for Intel X86 EM64T Linux

User input:
--------------------------------------------------------------
$rem
threads 8
jobtype sp
method PBEh-3c
basis def2-mSVP
mem_static      1024
mem_total       14000
sym_ignore      true
cis_n_roots             6
cis_singlets            true
cis_triplets            true
rpa                     false
calc_soc                true
cis_moments             true
cis_relaxed_density     true
solvent_method          pcm
$end

$molecule
read
$end

$pcm
statespecific           Marcus
$end

$solvent
dielectric      8.93
dielectric_infi 2.03
$end

--------------------------------------------------------------

             Standard Nuclear Orientation (Angstroms)
    I     Atom           X                Y                Z
 ----------------------------------------------------------------
    1      C       0.0000000000     0.0000000000     0.0000000000
    2      C       0.0000000000     0.0000000000     1.4107970000
    3      H       0.9383107833     0.0000000000     1.9584072124
    4      C      -1.1781448640    -0.0020593372     2.1079222323
    5      C      -2.4301412534    -0.0065054410     1.4240936897
    6      C      -2.4484877956    -0.0075401390     0.0486634335
    7      H      -3.3960547952    -0.0191402286    -0.4795462009
    8      C      -1.2476953430    -0.0017764390    -0.6955650055
    9      C      -1.4351503346    -0.0087000097     3.5438273683
   10      C      -0.6506399922    -0.0099318897     4.6713588343
   11      H       0.4313348215    -0.0014995247     4.6157833904
   12      C      -2.8353023573    -0.0197522202     3.6914589229
   13      C      -3.4835266826    -0.0337312354     4.9252739016
   14      C      -3.4869856336    -0.0192638223     2.4392723460
   15      C      -4.8600333012    -0.0334393889     2.4318317872
   16      H      -5.4261686533    -0.0356193161     1.5088095752
   17      C      -1.2838981717    -0.0229199336     5.9358769780
   18      H      -0.6654438939    -0.0238083599     6.8247705502
   19      C      -2.6537604637    -0.0348232912     6.0743027096
   20      H      -3.0974034764    -0.0452525451     7.0626475387
   21      C      -4.8986544571    -0.0473078361     4.8845401990
   22      H      -5.4688830137    -0.0589407726     5.8055836056
   23      C      -5.5471851901    -0.0469556036     3.6701420068
   24      H      -6.6296112508    -0.0581546853     3.6557999393
   25      B       1.3102249987    -0.0225573893    -0.7837934110
   26      C       1.2969473310    -0.0240742431    -2.3112199487
   27      C       2.5014619364    -0.0197351127    -3.0468913385
   28      H       3.4560599522    -0.0184973517    -2.5278460048
   29      C       2.4829578315    -0.0146760381    -4.4168140324
   30      C       1.2460054612    -0.0149718704    -5.1291258345
   31      C       0.0613092755    -0.0183369821    -4.4278587670
   32      H      -0.8831540682    -0.0137075266    -4.9624839769
   33      C       0.0513076589    -0.0241624285    -3.0151871828
   34      C       3.5741127099    -0.0083963879    -5.3834501616
   35      C       4.9447053239    -0.0050702724    -5.2976595141
   36      H       5.4588262376    -0.0063687179    -4.3438002711
   37      C       2.9697120700    -0.0054081430    -6.6560165773
   38      C       3.6843191510     0.0004146615    -7.8508487389
   39      C       1.5605183918    -0.0084729608    -6.5590528723
   40      C       0.8355901670    -0.0053391281    -7.7248672742
   41      H      -0.2473651653    -0.0072389266    -7.7248142925
   42      C       5.6934589470     0.0003708384    -6.4969399104
   43      H       6.7743766276     0.0027809789    -6.4327438065
   44      C       5.0974972956     0.0029995374    -7.7386833787
   45      H       5.7115352387     0.0073736727    -8.6311366426
   46      C       1.5346925505     0.0006598565    -8.9563204591
   47      H       0.9584192019     0.0030915841    -9.8727160127
   48      C       2.9093457567     0.0034893062    -9.0363031525
   49      H       3.3962631296     0.0082609178   -10.0038394338
   50      B      -1.2785032585    -0.0234126038    -2.2356479525
   51      C      -2.6614418241    -0.0604610721    -2.9988102521
   52      C      -3.4162506941     1.1021419339    -3.1885266201
   53      C      -4.6340194340     1.0677078903    -3.8703961168
   54      H      -5.1827978312     1.9929868922    -3.9990167720
   55      C      -5.1206418619    -0.1331533779    -4.3693024890
   56      O      -6.2860543866    -0.2670461625    -5.0421718079
   57      C      -4.3817974128    -1.2980330233    -4.1799390589
   58      H      -4.7661280595    -2.2357986047    -4.5676965749
   59      C      -3.1692459710    -1.2693909658    -3.5073023276
   60      C      -7.0573618381     0.8874938675    -5.2772086493
   61      H      -7.9342624778     0.5682111387    -5.8364257614
   62      H      -6.5170625959     1.6314838885    -5.8702683427
   63      H      -7.3896247281     1.3592582090    -4.3475758559
   64      C      -2.9069792608     2.4382380088    -2.7092577435
   65      H      -2.3558676982     2.3176946539    -1.7737604402
   66      H      -3.7523603849     3.0933617215    -2.4825410450
   67      C      -2.4358526188    -2.5704921072    -3.2934228450
   68      H      -1.3568241225    -2.4059993135    -3.3369471389
   69      H      -2.6725867525    -3.2600878751    -4.1078603635
   70      C      -2.0041767547     3.1202562042    -3.7353784494
   71      H      -1.1198665467     2.5169620576    -3.9424573402
   72      H      -2.5288590562     3.2777471937    -4.6788717058
   73      H      -1.6656438419     4.0921936250    -3.3732087904
   74      C      -2.7878210000    -3.2310219221    -1.9614172248
   75      H      -2.5164061053    -2.5926712804    -1.1203722502
   76      H      -3.8574960168    -3.4344367121    -1.8935573868
   77      H      -2.2588539387    -4.1781658856    -1.8438271826
   78      C       2.6797116625    -0.0727145705     0.0060368598
   79      C       3.4327666140     1.1204049870     0.2617209320
   80      C       4.5929504876     1.0526861786     0.9749413861
   81      H       5.1812223060     1.9402233898     1.1769089257
   82      C       5.0585569299    -0.1918045474     1.4826118357
   83      O       6.1702711868    -0.1357580669     2.1549044498
   84      C       4.3320279412    -1.3783295187     1.2456290414
   85      H       4.6810566647    -2.3273546971     1.6317727090
   86      C       3.1784726429    -1.3279739036     0.5135335276
   87      C       6.7562123387    -1.3108615492     2.7269328129
   88      H       7.6635975421    -0.9769591397     3.2186428412
   89      H       7.0034025453    -2.0350758277     1.9514096453
   90      H       6.0850850131    -1.7587548317     3.4591399225
   91      C       2.4592053351    -2.6076076221     0.2092690919
   92      H       1.3896257851    -2.4220423917     0.1078681477
   93      H       2.5867308063    -3.3003413547     1.0433652126
   94      C       2.9307225137     2.4564926088    -0.2002516081
   95      H       2.3563494943     2.3427419182    -1.1204407206
   96      H       3.7826083693     3.0974219668    -0.4362365207
   97      C       2.0674934674     3.1285146577     0.8671535961
   98      H       1.7204423913     4.0999960719     0.5163577942
   99      H       1.1898289197     2.5280378229     1.1055515950
  100      H       2.6314205742     3.2831257212     1.7877552727
  101      C       2.9917976760    -3.2517249910    -1.0723573350
  102      H       2.4499414048    -4.1737863945    -1.2800104598
  103      H       2.8674021777    -2.5914943950    -1.9300215995
  104      H       4.0508968523    -3.4943607934    -0.9803364438
 ----------------------------------------------------------------

   15   -2280.7325049204      5.76E-09 Convergence criterion met
 Total energy in the final basis set = -2280.73250492

         TDDFT/TDA Excitation Energies
 ---------------------------------------------------

 Excited state   1: excitation energy (eV) =    2.2197
 Total energy for state  1:                 -2280.65093135 au
    Multiplicity: Triplet
    Trans. Mom.:  0.0000 X   0.0000 Y   0.0000 Z
    Strength   :     0.0000000000
    D(191) --> V(  2) amplitude = -0.2372
    D(195) --> V(  1) amplitude =  0.9144

 Excited state   2: excitation energy (eV) =    2.4163
 Total energy for state  2:                 -2280.64370599 au
    Multiplicity: Triplet
    Trans. Mom.:  0.0000 X   0.0000 Y   0.0000 Z
    Strength   :     0.0000000000
    D(194) --> V(  2) amplitude = -0.3936
    D(196) --> V(  1) amplitude =  0.6872
    D(198) --> V(  1) amplitude =  0.4832

 Excited state   3: excitation energy (eV) =    2.4382
 Total energy for state  3:                 -2280.64290345 au
    Multiplicity: Triplet
    Trans. Mom.:  0.0000 X   0.0000 Y   0.0000 Z
    Strength   :     0.0000000000
    D(194) --> V(  2) amplitude =  0.2317
    D(196) --> V(  1) amplitude = -0.4207
    D(198) --> V(  1) amplitude =  0.7705

 Excited state   4: excitation energy (eV) =    2.4895
 Total energy for state  4:                 -2280.64101621 au
    Multiplicity: Triplet
    Trans. Mom.:  0.0000 X   0.0000 Y   0.0000 Z
    Strength   :     0.0000000000
    D(194) --> V(  1) amplitude =  0.6695
    D(194) --> V(  4) amplitude =  0.2150
    D(196) --> V(  2) amplitude = -0.5065
    D(197) --> V(  1) amplitude = -0.2619
    D(198) --> V(  1) amplitude =  0.2951

 Excited state   5: excitation energy (eV) =    2.4972
 Total energy for state  5:                 -2280.64073527 au
    Multiplicity: Singlet
    Trans. Mom.: -0.3903 X   0.0319 Y  -0.3337 Z
    Strength   :     0.0161927354
    D(198) --> V(  1) amplitude =  0.9744

 Excited state   6: excitation energy (eV) =    2.7334
 Total energy for state  6:                 -2280.63205367 au
    Multiplicity: Triplet
    Trans. Mom.:  0.0000 X   0.0000 Y   0.0000 Z
    Strength   :     0.0000000000
    D(191) --> V(  1) amplitude =  0.6637
    D(195) --> V(  2) amplitude = -0.5266
    D(197) --> V(  1) amplitude =  0.2692

 Excited state   7: excitation energy (eV) =    2.8811
 Total energy for state  7:                 -2280.62662824 au
    Multiplicity: Singlet
    Trans. Mom.: -0.0205 X  -0.0037 Y   0.0960 Z
    Strength   :     0.0006816410
    D(195) --> V(  1) amplitude =  0.9585

 Excited state   8: excitation energy (eV) =    2.8922
 Total energy for state  8:                 -2280.62621761 au
    Multiplicity: Triplet
    Trans. Mom.:  0.0000 X   0.0000 Y   0.0000 Z
    Strength   :     0.0000000000
    D(191) --> V(  1) amplitude = -0.2254
    D(194) --> V(  1) amplitude =  0.2152
    D(197) --> V(  1) amplitude =  0.8805

 Excited state   9: excitation energy (eV) =    2.9289
 Total energy for state  9:                 -2280.62486825 au
    Multiplicity: Singlet
    Trans. Mom.:  0.4465 X  -0.0047 Y   0.2463 Z
    Strength   :     0.0186589985
    D(197) --> V(  1) amplitude =  0.9649

 Excited state  10: excitation energy (eV) =    3.1069
 Total energy for state 10:                 -2280.61832936 au
    Multiplicity: Singlet
    Trans. Mom.:  2.0204 X   0.0059 Y  -3.5756 Z
    Strength   :     1.2838884025
    D(196) --> V(  1) amplitude =  0.9511

 Excited state  11: excitation energy (eV) =    3.4294
 Total energy for state 11:                 -2280.60647839 au
    Multiplicity: Singlet
    Trans. Mom.: -0.0346 X  -0.0135 Y   0.0216 Z
    Strength   :     0.0001547685
    D(194) --> V(  1) amplitude =  0.9407

 Excited state  12: excitation energy (eV) =    3.6687
 Total energy for state 12:                 -2280.59768279 au
    Multiplicity: Singlet
    Trans. Mom.: -0.8329 X   0.0118 Y  -0.4748 Z
    Strength   :     0.0826205354
    D(191) --> V(  1) amplitude = -0.7756
    D(195) --> V(  2) amplitude =  0.5299

 ---------------------------------------------------

                    Orbital Energies (a.u.)
 --------------------------------------------------------------

 Alpha MOs
 -- Occupied --
-19.530 -19.528 -10.508 -10.506 -10.487 -10.483 -10.468 -10.468
-10.466 -10.466 -10.466 -10.466 -10.466 -10.465 -10.465 -10.465
-10.465 -10.465 -10.463 -10.462 -10.462 -10.462 -10.462 -10.462
-10.458 -10.458 -10.458 -10.458 -10.458 -10.457 -10.456 -10.455
-10.454 -10.454 -10.453 -10.451 -10.450 -10.450 -10.439 -10.439
-10.437 -10.437 -10.436 -10.435 -10.435 -10.434 -10.434 -10.434
-10.433 -10.430 -10.422 -10.422 -10.422 -10.421 -10.421 -10.421
 -6.950  -6.944  -1.196  -1.183  -1.017  -1.017  -0.964  -0.960
 -0.958  -0.950  -0.934  -0.934  -0.910  -0.901  -0.893  -0.890
 -0.868  -0.863  -0.857  -0.856  -0.847  -0.847  -0.826  -0.822
 -0.820  -0.814  -0.813  -0.805  -0.804  -0.803  -0.774  -0.771
 -0.736  -0.730  -0.727  -0.721  -0.713  -0.712  -0.705  -0.704
 -0.689  -0.683  -0.680  -0.668  -0.657  -0.648  -0.647  -0.645
 -0.632  -0.629  -0.596  -0.594  -0.591  -0.588  -0.584  -0.583
 -0.583  -0.576  -0.576  -0.565  -0.564  -0.545  -0.544  -0.539
 -0.537  -0.533  -0.527  -0.523  -0.516  -0.509  -0.505  -0.505
 -0.504  -0.502  -0.501  -0.496  -0.494  -0.491  -0.490  -0.488
 -0.487  -0.486  -0.484  -0.482  -0.481  -0.480  -0.477  -0.465
 -0.463  -0.461  -0.459  -0.457  -0.455  -0.454  -0.443  -0.440
 -0.437  -0.436  -0.434  -0.432  -0.431  -0.429  -0.427  -0.419
 -0.418  -0.414  -0.410  -0.408  -0.403  -0.402  -0.398  -0.397
 -0.397  -0.395  -0.394  -0.393  -0.392  -0.389  -0.383  -0.382
 -0.380  -0.375  -0.365  -0.364  -0.361  -0.358  -0.356  -0.351
 -0.345  -0.339  -0.322  -0.317  -0.298  -0.297  -0.285  -0.283
 -0.280  -0.264  -0.259  -0.257  -0.255  -0.239

          Ground-State Mulliken Net Atomic Charges

     Atom                 Charge (a.u.)
  ----------------------------------------
      1 C                    -0.146239
      2 C                    -0.391969
      3 H                     0.250769
      4 C                     0.072985
      5 C                     0.102703
      6 C                    -0.404285
      7 H                     0.249615
      8 C                    -0.149670
      9 C                     0.178274
     10 C                    -0.389807
     11 H                     0.254311
     12 C                    -0.068206
     13 C                     0.216579
     14 C                     0.178470
     15 C                    -0.398719
     16 H                     0.254430
     17 C                    -0.235809
     18 H                     0.260076
     19 C                    -0.345408
     20 H                     0.257773
     21 C                    -0.349553
     22 H                     0.258328
     23 C                    -0.233362
     24 H                     0.259402
     25 B                     0.624411
     26 C                    -0.146153
     27 C                    -0.393708
     28 H                     0.249406
     29 C                     0.072887
     30 C                     0.101798
     31 C                    -0.405376
     32 H                     0.249649
     33 C                    -0.148607
     34 C                     0.177929
     35 C                    -0.388466
     36 H                     0.254782
     37 C                    -0.068166
     38 C                     0.217297
     39 C                     0.177446
     40 C                    -0.397009
     41 H                     0.254809
     42 C                    -0.236285
     43 H                     0.260138
     44 C                    -0.345823
     45 H                     0.257797
     46 C                    -0.233671
     47 H                     0.259591
     48 C                    -0.349478
     49 H                     0.258205
     50 B                     0.641130
     51 C                    -0.220081
     52 C                     0.065583
     53 C                    -0.446121
     54 H                     0.258282
     55 C                     0.386553
     56 O                    -0.471254
     57 C                    -0.403667
     58 H                     0.240327
     59 C                     0.062200
     60 C                    -0.430375
     61 H                     0.253841
     62 H                     0.220879
     63 H                     0.220881
     64 C                    -0.551459
     65 H                     0.252627
     66 H                     0.242303
     67 C                    -0.552481
     68 H                     0.252773
     69 H                     0.243746
     70 C                    -0.660134
     71 H                     0.238813
     72 H                     0.222632
     73 H                     0.228737
     74 C                    -0.660928
     75 H                     0.238894
     76 H                     0.223226
     77 H                     0.228565
     78 C                    -0.263401
     79 C                     0.090853
     80 C                    -0.418331
     81 H                     0.236077
     82 C                     0.387249
     83 O                    -0.454669
     84 C                    -0.465413
     85 H                     0.254556
     86 C                     0.083400
     87 C                    -0.426054
     88 H                     0.259297
     89 H                     0.229416
     90 H                     0.229482
     91 C                    -0.551323
     92 H                     0.255200
     93 H                     0.241745
     94 C                    -0.550395
     95 H                     0.251591
     96 H                     0.242725
     97 C                    -0.660624
     98 H                     0.227550
     99 H                     0.238495
    100 H                     0.223428
    101 C                    -0.658608
    102 H                     0.226960
    103 H                     0.238637
    104 H                     0.222578
  ----------------------------------------
  Sum of atomic charges =     0.000000

                    Cartesian Multipole Moments
 -----------------------------------------------------------------
    Charge (ESU x 10^10)
                 0.0000
    Dipole Moment (Debye)
         X       0.5027      Y      -0.1589      Z       0.8727
       Tot       1.0196
    Quadrupole Moments (Debye-Ang)
        XX    -271.7239     XY     -23.0743     YY    -333.6000
        XZ      -2.1955     YZ     -13.6937     ZZ    -270.1332

 Total job time:  11605.18s(wall), 38679.46s(cpu)
        *  Thank you very much for using Q-Chem.  Have a nice day.  *
