 Q-Chem 5.0, Q-Chem, Inc., Pleasanton, CA (2017)
 Q-Chem 5.0.1 for Intel X86 EM64T Linux

User input:
--------------------------------------------------------------
$solvent
dielectric      4.33
dielectric_infi 1.83
$end

$rem
threads 8
jobtype	sp
method PBEh-3c
basis def2-mSVP
mem_static	1024
mem_total	14000
sym_ignore	true
cis_n_roots             2
cis_singlets            false
cis_triplets		true
rpa                     false
calc_soc 		true
cis_moments             true
cis_relaxed_density	true
solvent_method		pcm
$end

$pcm
StateSpecific   1
ChargeSeparation Excited
$end

$molecule
read ut1opt_eth.mol
$end

--------------------------------------------------------------

   14   -2280.7284390719      9.33E-09 Convergence criterion met
 Total energy in the final basis set = -2280.72843907
 Q-Chem 5.0, Q-Chem, Inc., Pleasanton, CA (2017)
 Q-Chem 5.0.1 for Intel X86 EM64T Linux

User input:
--------------------------------------------------------------
$rem
threads 8
jobtype sp
method PBEh-3c
basis def2-mSVP
mem_static      1024
mem_total       14000
sym_ignore      true
cis_n_roots             6
cis_singlets            true
cis_triplets            true
rpa                     false
calc_soc                true
cis_moments             true
cis_relaxed_density     true
solvent_method          pcm
$end

$molecule
read
$end

$pcm
statespecific           Marcus
$end

$solvent
dielectric      4.33
dielectric_infi 1.83
$end

--------------------------------------------------------------

             Standard Nuclear Orientation (Angstroms)
    I     Atom           X                Y                Z
 ----------------------------------------------------------------
    1      C       0.0000000000     0.0000000000     0.0000000000
    2      C       0.0000000000     0.0000000000     1.4109210000
    3      H       0.9384949644     0.0000000000     1.9586778782
    4      C      -1.1776575689    -0.0014002215     2.1080407109
    5      C      -2.4292930742    -0.0067332366     1.4245925416
    6      C      -2.4477264534    -0.0055407598     0.0492295801
    7      H      -3.3946383721    -0.0169181445    -0.4800435683
    8      C      -1.2473996003     0.0020741590    -0.6946609324
    9      C      -1.4346288139    -0.0087943784     3.5440803569
   10      C      -0.6506204564    -0.0091798117     4.6715401278
   11      H       0.4313476945     0.0021140985     4.6160699846
   12      C      -2.8345060547    -0.0226799995     3.6918468782
   13      C      -3.4825864586    -0.0397824062     4.9253592193
   14      C      -3.4857583431    -0.0225784522     2.4396377605
   15      C      -4.8584024104    -0.0410172919     2.4322103359
   16      H      -5.4240370110    -0.0445352669     1.5089662231
   17      C      -1.2834096447    -0.0247806403     5.9359291319
   18      H      -0.6651870876    -0.0248277552     6.8250111193
   19      C      -2.6529243760    -0.0402027510     6.0740647958
   20      H      -3.0963979871    -0.0528020538     7.0624636563
   21      C      -4.8974573639    -0.0574354551     4.8843904425
   22      H      -5.4679663621    -0.0718486833     5.8052067275
   23      C      -5.5455580873    -0.0579026178     3.6701923409
   24      H      -6.6279380134    -0.0725963227     3.6556750598
   25      B       1.3079112740    -0.0242281675    -0.7863551803
   26      C       1.2956557750    -0.0157737244    -2.3133915987
   27      C       2.4992382226    -0.0100124216    -3.0508587048
   28      H       3.4548629811    -0.0118158282    -2.5333465352
   29      C       2.4790930639     0.0000622180    -4.4202274766
   30      C       1.2418149409     0.0033766087    -5.1308659925
   31      C       0.0581148072    -0.0004977534    -4.4279959961
   32      H      -0.8876263110     0.0077901889    -4.9601888187
   33      C       0.0500559653    -0.0118147000    -3.0158763379
   34      C       3.5692863901     0.0078146419    -5.3881059657
   35      C       4.9396272529     0.0093719939    -5.3041693069
   36      H       5.4548661527     0.0056738591    -4.3509084155
   37      C       2.9636743275     0.0143723312    -6.6597739004
   38      C       3.6767628949     0.0213634313    -7.8551550445
   39      C       1.5547657966     0.0128402614    -6.5608067659
   40      C       0.8287345383     0.0186788786    -7.7254881555
   41      H      -0.2541496715     0.0177818959    -7.7237352443
   42      C       5.6871701416     0.0163382699    -6.5038375175
   43      H       6.7681982925     0.0174447556    -6.4411116214
   44      C       5.0897487200     0.0219348129    -7.7444899152
   45      H       5.7029225158     0.0271870866    -8.6375348187
   46      C       1.5261713873     0.0258879202    -8.9576077189
   47      H       0.9487486451     0.0303230198    -9.8732636845
   48      C       2.9003484544     0.0273019003    -9.0394030810
   49      H       3.3858174368     0.0330730226   -10.0076502860
   50      B      -1.2790097433    -0.0124388576    -2.2348972412
   51      C      -2.6619292077    -0.0407170306    -2.9971028136
   52      C      -3.4123745035     1.1256233739    -3.1783385890
   53      C      -4.6300014676     1.0994969752    -3.8603367882
   54      H      -5.1755797428     2.0275138589    -3.9825609256
   55      C      -5.1203310178    -0.0960507984    -4.3674501954
   56      O      -6.2864737056    -0.2216769512    -5.0412971947
   57      C      -4.3854713366    -1.2643671599    -4.1865065773
   58      H      -4.7736488696    -2.1974956800    -4.5811436498
   59      C      -3.1730855104    -1.2444103053    -3.5140925443
   60      C      -7.0527145932     0.9357887888    -5.2680409196
   61      H      -7.9309370585     0.6236964679    -5.8294641754
   62      H      -6.5103944051     1.6825173460    -5.8562910561
   63      H      -7.3839508819     1.4028936190    -4.3353701243
   64      C      -2.8979192047     2.4564097877    -2.6900040697
   65      H      -2.3489989455     2.3280909168    -1.7542806919
   66      H      -3.7409964867     3.1134861292    -2.4598357757
   67      C      -2.4425383998    -2.5485555958    -3.3098356062
   68      H      -1.3632222113    -2.3874415734    -3.3590235709
   69      H      -2.6856670270    -3.2333067962    -4.1265528763
   70      C      -1.9906607394     3.1407903112    -3.7105845121
   71      H      -1.1074025561     2.5363920898    -3.9182012591
   72      H      -2.5121847732     3.3037645841    -4.6548868391
   73      H      -1.6502803098     4.1100668810    -3.3429482819
   74      C      -2.7892754421    -3.2141159931    -1.9790119007
   75      H      -2.5077844795    -2.5827522809    -1.1361468654
   76      H      -3.8597419974    -3.4106730716    -1.9045341637
   77      H      -2.2655744532    -4.1653405786    -1.8705700624
   78      C       2.6776466622    -0.0907804001    -0.0003951160
   79      C       3.4511112209     1.0922327073     0.2475170337
   80      C       4.6149160551     1.0088166437     0.9531421824
   81      H       5.2177537851     1.8879018776     1.1488989774
   82      C       5.0656328658    -0.2401062284     1.4610550852
   83      O       6.1848227189    -0.1982632314     2.1258860154
   84      C       4.3201372008    -1.4155993268     1.2342872208
   85      H       4.6572811212    -2.3682438864     1.6218289575
   86      C       3.1614235660    -1.3520775989     0.5104142872
   87      C       6.7556932300    -1.3799187816     2.6948835705
   88      H       7.6715558413    -1.0602160039     3.1806107551
   89      H       6.9882310603    -2.1100719211     1.9199745260
   90      H       6.0842053068    -1.8180063909     3.4330714620
   91      C       2.4188205906    -2.6205036729     0.2194059686
   92      H       1.3473936451    -2.4245388146     0.1721783806
   93      H       2.5799114506    -3.3279168475     1.0353627771
   94      C       2.9640465446     2.4331268499    -0.2149675448
   95      H       2.3952283696     2.3260789505    -1.1392823780
   96      H       3.8228042694     3.0679365969    -0.4429892877
   97      C       2.0972064989     3.1084169261     0.8477305234
   98      H       1.7627553340     4.0843654753     0.4974589548
   99      H       1.2108178939     2.5163206801     1.0737992931
  100      H       2.6532448388     3.2541576856     1.7746732160
  101      C       2.8828808528    -3.2476496366    -1.0971127122
  102      H       2.7083744532    -2.5789675386    -1.9389266927
  103      H       2.3321613412    -4.1685777306    -1.2852282815
  104      H       3.9459607195    -3.4887245685    -1.0667248964
 ----------------------------------------------------------------

   15   -2280.7283262551      5.94E-09 Convergence criterion met
 Total energy in the final basis set = -2280.72832626

         TDDFT/TDA Excitation Energies
 ---------------------------------------------------

 Excited state   1: excitation energy (eV) =    2.2190
 Total energy for state  1:                 -2280.64677818 au
    Multiplicity: Triplet
    Trans. Mom.:  0.0000 X   0.0000 Y   0.0000 Z
    Strength   :     0.0000000000
    D(191) --> V(  2) amplitude =  0.2383
    D(195) --> V(  1) amplitude =  0.9172

 Excited state   2: excitation energy (eV) =    2.4168
 Total energy for state  2:                 -2280.63950947 au
    Multiplicity: Triplet
    Trans. Mom.:  0.0000 X   0.0000 Y   0.0000 Z
    Strength   :     0.0000000000
    D(194) --> V(  2) amplitude = -0.3524
    D(196) --> V(  1) amplitude =  0.6103
    D(198) --> V(  1) amplitude =  0.6021

 Excited state   3: excitation energy (eV) =    2.4379
 Total energy for state  3:                 -2280.63873651 au
    Multiplicity: Triplet
    Trans. Mom.:  0.0000 X   0.0000 Y   0.0000 Z
    Strength   :     0.0000000000
    D(194) --> V(  2) amplitude =  0.2943
    D(196) --> V(  1) amplitude = -0.5281
    D(198) --> V(  1) amplitude =  0.6807

 Excited state   4: excitation energy (eV) =    2.4934
 Total energy for state  4:                 -2280.63669463 au
    Multiplicity: Triplet
    Trans. Mom.:  0.0000 X   0.0000 Y   0.0000 Z
    Strength   :     0.0000000000
    D(194) --> V(  1) amplitude =  0.6698
    D(194) --> V(  4) amplitude =  0.2154
    D(196) --> V(  2) amplitude = -0.5079
    D(197) --> V(  1) amplitude = -0.2588
    D(198) --> V(  1) amplitude =  0.2920

 Excited state   5: excitation energy (eV) =    2.4987
 Total energy for state  5:                 -2280.63650240 au
    Multiplicity: Singlet
    Trans. Mom.: -0.4145 X   0.0386 Y  -0.3524 Z
    Strength   :     0.0182104687
    D(198) --> V(  1) amplitude =  0.9741

 Excited state   6: excitation energy (eV) =    2.7332
 Total energy for state  6:                 -2280.62788405 au
    Multiplicity: Triplet
    Trans. Mom.:  0.0000 X   0.0000 Y   0.0000 Z
    Strength   :     0.0000000000
    D(191) --> V(  1) amplitude = -0.6629
    D(195) --> V(  2) amplitude = -0.5274
    D(197) --> V(  1) amplitude = -0.2711

 Excited state   7: excitation energy (eV) =    2.8826
 Total energy for state  7:                 -2280.62239174 au
    Multiplicity: Singlet
    Trans. Mom.: -0.0079 X   0.0017 Y  -0.0496 Z
    Strength   :     0.0001782944
    D(195) --> V(  1) amplitude =  0.9608

 Excited state   8: excitation energy (eV) =    2.8907
 Total energy for state  8:                 -2280.62209603 au
    Multiplicity: Triplet
    Trans. Mom.:  0.0000 X   0.0000 Y   0.0000 Z
    Strength   :     0.0000000000
    D(191) --> V(  1) amplitude = -0.2263
    D(197) --> V(  1) amplitude =  0.8812

 Excited state   9: excitation energy (eV) =    2.9281
 Total energy for state  9:                 -2280.62071915 au
    Multiplicity: Singlet
    Trans. Mom.:  0.4470 X  -0.0068 Y   0.2228 Z
    Strength   :     0.0178973224
    D(197) --> V(  1) amplitude =  0.9648

 Excited state  10: excitation energy (eV) =    3.1220
 Total energy for state 10:                 -2280.61359425 au
    Multiplicity: Singlet
    Trans. Mom.:  1.9794 X   0.0136 Y  -3.5144 Z
    Strength   :     1.2443811871
    D(196) --> V(  1) amplitude =  0.9533

 Excited state  11: excitation energy (eV) =    3.4436
 Total energy for state 11:                 -2280.60177736 au
    Multiplicity: Singlet
    Trans. Mom.: -0.0325 X  -0.0155 Y   0.0128 Z
    Strength   :     0.0001230447
    D(194) --> V(  1) amplitude =  0.9398

 Excited state  12: excitation energy (eV) =    3.6705
 Total energy for state 12:                 -2280.59343772 au
    Multiplicity: Singlet
    Trans. Mom.: -0.8141 X   0.0154 Y  -0.4618 Z
    Strength   :     0.0787962845
    D(191) --> V(  1) amplitude = -0.7683
    D(195) --> V(  2) amplitude = -0.5399

 ---------------------------------------------------

                    Orbital Energies (a.u.)
 --------------------------------------------------------------

 Alpha MOs
 -- Occupied --
-19.529 -19.527 -10.507 -10.505 -10.488 -10.483 -10.467 -10.467
-10.466 -10.466 -10.465 -10.465 -10.464 -10.464 -10.464 -10.464
-10.464 -10.464 -10.462 -10.461 -10.461 -10.461 -10.461 -10.461
-10.458 -10.458 -10.458 -10.458 -10.456 -10.456 -10.454 -10.454
-10.453 -10.452 -10.451 -10.450 -10.449 -10.449 -10.438 -10.437
-10.436 -10.435 -10.435 -10.434 -10.433 -10.433 -10.432 -10.432
-10.432 -10.429 -10.421 -10.421 -10.420 -10.420 -10.420 -10.420
 -6.949  -6.943  -1.195  -1.182  -1.017  -1.016  -0.963  -0.959
 -0.956  -0.949  -0.933  -0.933  -0.909  -0.900  -0.891  -0.889
 -0.867  -0.862  -0.856  -0.855  -0.847  -0.846  -0.825  -0.821
 -0.819  -0.814  -0.812  -0.805  -0.803  -0.802  -0.773  -0.770
 -0.736  -0.729  -0.727  -0.721  -0.712  -0.710  -0.704  -0.703
 -0.689  -0.682  -0.679  -0.667  -0.656  -0.647  -0.646  -0.645
 -0.631  -0.628  -0.595  -0.593  -0.590  -0.587  -0.583  -0.582
 -0.582  -0.575  -0.575  -0.564  -0.563  -0.545  -0.543  -0.539
 -0.537  -0.533  -0.526  -0.523  -0.515  -0.508  -0.504  -0.504
 -0.503  -0.501  -0.500  -0.495  -0.493  -0.490  -0.489  -0.487
 -0.486  -0.485  -0.483  -0.481  -0.480  -0.479  -0.477  -0.465
 -0.463  -0.460  -0.459  -0.456  -0.454  -0.452  -0.442  -0.440
 -0.436  -0.435  -0.433  -0.430  -0.430  -0.428  -0.426  -0.418
 -0.417  -0.413  -0.408  -0.407  -0.402  -0.401  -0.397  -0.397
 -0.396  -0.394  -0.393  -0.392  -0.391  -0.388  -0.382  -0.381
 -0.379  -0.374  -0.364  -0.363  -0.359  -0.357  -0.354  -0.350
 -0.343  -0.338  -0.321  -0.315  -0.297  -0.296  -0.284  -0.281
 -0.278  -0.263  -0.258  -0.256  -0.253  -0.238

          Ground-State Mulliken Net Atomic Charges

     Atom                 Charge (a.u.)
  ----------------------------------------
      1 C                    -0.145372
      2 C                    -0.391332
      3 H                     0.249077
      4 C                     0.076015
      5 C                     0.105649
      6 C                    -0.403601
      7 H                     0.247860
      8 C                    -0.150194
      9 C                     0.181685
     10 C                    -0.388589
     11 H                     0.249392
     12 C                    -0.067870
     13 C                     0.222260
     14 C                     0.181520
     15 C                    -0.397271
     16 H                     0.249544
     17 C                    -0.231264
     18 H                     0.254867
     19 C                    -0.344040
     20 H                     0.251851
     21 C                    -0.348052
     22 H                     0.252450
     23 C                    -0.228894
     24 H                     0.254214
     25 B                     0.624842
     26 C                    -0.146340
     27 C                    -0.392609
     28 H                     0.247811
     29 C                     0.075819
     30 C                     0.104840
     31 C                    -0.404861
     32 H                     0.247865
     33 C                    -0.148427
     34 C                     0.181415
     35 C                    -0.387140
     36 H                     0.249876
     37 C                    -0.067833
     38 C                     0.222928
     39 C                     0.180453
     40 C                    -0.395659
     41 H                     0.249957
     42 C                    -0.231798
     43 H                     0.254963
     44 C                    -0.344440
     45 H                     0.251877
     46 C                    -0.229209
     47 H                     0.254416
     48 C                    -0.348001
     49 H                     0.252328
     50 B                     0.642753
     51 C                    -0.220348
     52 C                     0.068145
     53 C                    -0.443734
     54 H                     0.252469
     55 C                     0.388866
     56 O                    -0.468599
     57 C                    -0.399975
     58 H                     0.237431
     59 C                     0.065104
     60 C                    -0.426748
     61 H                     0.251551
     62 H                     0.217948
     63 H                     0.217837
     64 C                    -0.551610
     65 H                     0.253537
     66 H                     0.239333
     67 C                    -0.552363
     68 H                     0.253159
     69 H                     0.241499
     70 C                    -0.658060
     71 H                     0.240411
     72 H                     0.221093
     73 H                     0.227007
     74 C                    -0.659103
     75 H                     0.240174
     76 H                     0.222382
     77 H                     0.226676
     78 C                    -0.261900
     79 C                     0.093090
     80 C                    -0.413855
     81 H                     0.233265
     82 C                     0.389738
     83 O                    -0.453383
     84 C                    -0.463817
     85 H                     0.248708
     86 C                     0.086789
     87 C                    -0.422828
     88 H                     0.256829
     89 H                     0.226353
     90 H                     0.226276
     91 C                    -0.551349
     92 H                     0.255651
     93 H                     0.238743
     94 C                    -0.550091
     95 H                     0.252110
     96 H                     0.240442
     97 C                    -0.658888
     98 H                     0.225835
     99 H                     0.239852
    100 H                     0.222453
    101 C                    -0.657698
    102 H                     0.241687
    103 H                     0.225278
    104 H                     0.220901
  ----------------------------------------
  Sum of atomic charges =     0.000000

                    Cartesian Multipole Moments
 -----------------------------------------------------------------
    Charge (ESU x 10^10)
                 0.0000
    Dipole Moment (Debye)
         X       0.4367      Y      -0.1549      Z       0.8259
       Tot       0.9470
    Quadrupole Moments (Debye-Ang)
        XX    -275.1056     XY     -22.0830     YY    -333.9361
        XZ      -1.7978     YZ     -13.2938     ZZ    -273.9496

 Total job time:  10528.16s(wall), 35774.63s(cpu)
        *  Thank you very much for using Q-Chem.  Have a nice day.  *
