 Q-Chem 5.0, Q-Chem, Inc., Pleasanton, CA (2017)
 Q-Chem 5.0.1 for Intel X86 EM64T Linux

User input:
--------------------------------------------------------------
$rem
threads 4
jobtype	opt
method PBEh-3c
basis def2-mSVP
mem_static	1024
mem_total	4000
sym_ignore	true
scf_convergence	9
solvent_method	pcm
$end

$molecule
read gsopt.mol
$end

$solvent
dielectric	2.38
$end

$pcm
theory iefpcm
$end
--------------------------------------------------------------

   17   -2202.2686326240      4.41E-10 Convergence criterion met
 Total energy in the final basis set = -2202.26863262
   15   -2202.2704223867      5.01E-10 Convergence criterion met
 Total energy in the final basis set = -2202.27042239
   15   -2202.2710582312      4.38E-10 Convergence criterion met
 Total energy in the final basis set = -2202.27105823
   15   -2202.2709539795      4.30E-10 Convergence criterion met
 Total energy in the final basis set = -2202.27095398
   15   -2202.2710866940      3.83E-10 Convergence criterion met
 Total energy in the final basis set = -2202.27108669
   15   -2202.2712465013      3.68E-10 Convergence criterion met
 Total energy in the final basis set = -2202.27124650
   14   -2202.2712057615      9.64E-10 Convergence criterion met
 Total energy in the final basis set = -2202.27120576
   14   -2202.2712169469      8.22E-10 Convergence criterion met
 Total energy in the final basis set = -2202.27121695
   14   -2202.2712254651      8.53E-10 Convergence criterion met
 Total energy in the final basis set = -2202.27122547
   14   -2202.2712177016      8.64E-10 Convergence criterion met
 Total energy in the final basis set = -2202.27121770
   14   -2202.2712130710      7.97E-10 Convergence criterion met
 Total energy in the final basis set = -2202.27121307
   14   -2202.2712113316      7.97E-10 Convergence criterion met
 Total energy in the final basis set = -2202.27121133
   14   -2202.2712096138      7.94E-10 Convergence criterion met
 Total energy in the final basis set = -2202.27120961

             Standard Nuclear Orientation (Angstroms)
    I     Atom           X                Y                Z
 ----------------------------------------------------------------
    1      C       0.0645000095    -0.4820941271     0.0783687082
    2      C       0.0588783678    -0.4897545713     1.4794785171
    3      H       0.9989229098    -0.4953903529     2.0206196964
    4      C      -1.1420777609    -0.4871374884     2.1703710470
    5      C      -2.3588197231    -0.4676111198     1.4530844357
    6      C      -2.3659317716    -0.4535633303     0.0720862377
    7      H      -3.3060980638    -0.4377298102    -0.4690802687
    8      C      -1.1612149748    -0.4623867380    -0.6312595635
    9      C      -1.4694108967    -0.4977865202     3.6008180043
   10      C      -0.7562628952    -0.5173498113     4.7700215116
   11      H       0.3264476482    -0.5289233567     4.7807527359
   12      C      -2.8763437017    -0.4843101607     3.6818742610
   13      C      -3.6040083869    -0.4892610198     4.8659927665
   14      C      -3.4637274085    -0.4653885200     2.4045471852
   15      C      -4.8300213639    -0.4500502777     2.2979741436
   16      H      -5.3299710093    -0.4345478695     1.3369987730
   17      C      -1.4674999548    -0.5227652663     5.9951708044
   18      H      -0.9015040823    -0.5383994847     6.9172692987
   19      C      -2.8418157387    -0.5093821195     6.0582533341
   20      H      -3.3384108472    -0.5143636765     7.0207435074
   21      C      -5.5955788003    -0.4544724006     3.4873556027
   22      H      -6.6750203863    -0.4422929529     3.4089214217
   23      C      -5.0149852371    -0.4735491700     4.7348262823
   24      H      -5.6410279667    -0.4762995135     5.6187400493
   25      B      -1.1804569374    -0.4468728558    -2.1861337829
   26      B       1.4097365160    -0.4889457016    -0.7087334656
   27      C       1.3984911775    -0.5318330458    -2.2653032194
   28      C       2.6013061071    -0.6073719714    -2.9788655835
   29      H       3.5418401055    -0.6446722190    -2.4404863112
   30      C       2.5847064445    -0.6362539588    -4.3636305796
   31      C       1.3508746666    -0.5759953586    -5.0483113812
   32      C       0.1587917901    -0.5033725012    -4.3562785110
   33      H      -0.7817642704    -0.4623326364    -4.8945647843
   34      C       0.1661860271    -0.4909457456    -2.9617949322
   35      C       1.6098354766    -0.6175516420    -6.4838992455
   36      C       0.8284376992    -0.5943460430    -7.6100843476
   37      H      -0.2513000176    -0.5262051605    -7.5567435899
   38      C       3.0049444711    -0.7072973205    -6.6254844568
   39      C       3.6544730568    -0.7784145833    -7.8538538572
   40      C       3.6485863283    -0.7229365531    -5.3727362712
   41      C       5.0154096510    -0.8159674914    -5.3545252470
   42      H       5.5752846484    -0.8369028698    -4.4280754700
   43      C       1.4624345247    -0.6628554127    -8.8731213568
   44      H       0.8470719111    -0.6443122739    -9.7633974264
   45      C       2.8287734449    -0.7529994704    -9.0048237482
   46      H       3.2731374143    -0.8048558757    -9.9913977247
   47      C       5.0652167950    -0.8718490394    -7.8041305927
   48      H       5.6388546059    -0.9316515550    -8.7210490882
   49      C       5.7080948272    -0.8889216707    -6.5882217096
   50      H       6.7875069305    -0.9624725896    -6.5676337957
   51      C       2.7730495114    -0.4711438115     0.0632797333
   52      C       3.4791852549     0.7131167130     0.2669896996
   53      C       4.6824892440     0.7090557955     0.9741190317
   54      H       5.2032116502     1.6483418418     1.1143611686
   55      C       5.1926112751    -0.4802420779     1.4746804861
   56      O       6.3450350105    -0.5863654381     2.1689152610
   57      C       4.4984127792    -1.6701936664     1.2577930060
   58      H       4.9121871426    -2.5969651363     1.6385087663
   59      C       3.3024441111    -1.6731114849     0.5628875662
   60      C       7.0815933182     0.5835146706     2.4248587247
   61      H       7.9520845850     0.2829651570     3.0039299087
   62      H       7.4252717771     1.0660768895     1.5045306420
   63      H       6.5098782106     1.3126289029     3.0073863603
   64      C       2.5706279695    -2.9663656725     0.3281430957
   65      H       3.1337126486    -3.8230602128     0.6970771013
   66      H       1.5985249417    -2.9729777045     0.8258887366
   67      H       2.3825294990    -3.1308386529    -0.7355806586
   68      C       2.9354767859     2.0277816943    -0.2317755260
   69      H       3.7645518014     2.6918045261    -0.4897928505
   70      H       2.3767585846     1.8779674454    -1.1600909778
   71      C       2.0364607234     2.7194377096     0.7913646364
   72      H       1.1596477893     2.1146622702     1.0238549135
   73      H       1.6839372954     3.6798823820     0.4133347579
   74      H       2.5702636983     2.9013354442     1.7248878555
   75      C      -2.5398352299    -0.3758161315    -2.9748615434
   76      C      -3.1451125846    -1.5214421251    -3.4897699747
   77      C      -4.3395749778    -1.4368495176    -4.2078402467
   78      H      -4.7768003214    -2.3502668628    -4.5936221902
   79      C      -4.9411596353    -0.2068438917    -4.4221331087
   80      O      -6.0921695282    -0.0262104901    -5.1034307173
   81      C      -4.3385449250     0.9447443369    -3.9171676035
   82      H      -4.8079310722     1.9050753744    -4.0968387265
   83      C      -3.1561563019     0.8680091422    -3.2030610720
   84      C      -6.7388156541    -1.1553541231    -5.6370842770
   85      H      -7.6376955522    -0.7943218593    -6.1322535172
   86      H      -7.0313575051    -1.8698341016    -4.8614785370
   87      H      -6.1207213773    -1.6764915389    -6.3747241217
   88      C      -2.5183044945     2.1249641409    -2.6814459895
   89      H      -3.0838476827     3.0122476017    -2.9638278033
   90      H      -2.4456713958     2.1134474737    -1.5920844195
   91      H      -1.5037601389     2.2459967737    -3.0683563908
   92      C      -2.5625514552    -2.8908619003    -3.2473245251
   93      H      -1.4843541623    -2.8243060675    -3.0782053972
   94      H      -2.6836100587    -3.5036807994    -4.1447128117
   95      C      -3.2173664929    -3.5968340287    -2.0621429959
   96      H      -3.0705564994    -3.0342856949    -1.1398201456
   97      H      -2.7941061439    -4.5912806121    -1.9166257306
   98      H      -4.2915474985    -3.7088137043    -2.2148033618
 ----------------------------------------------------------------

   14   -2202.2712099514      7.93E-10 Convergence criterion met
 Total energy in the final basis set = -2202.27120995
 Final energy is   -2202.27120995137
 **  OPTIMIZATION CONVERGED  **

                    Orbital Energies (a.u.)
 --------------------------------------------------------------

 Alpha MOs
 -- Occupied --
-19.525 -19.524 -10.501 -10.501 -10.485 -10.484 -10.463 -10.463
-10.463 -10.463 -10.463 -10.462 -10.462 -10.462 -10.461 -10.461
-10.461 -10.460 -10.460 -10.460 -10.460 -10.459 -10.458 -10.458
-10.457 -10.457 -10.457 -10.457 -10.453 -10.452 -10.452 -10.451
-10.451 -10.450 -10.450 -10.449 -10.445 -10.445 -10.433 -10.433
-10.433 -10.432 -10.432 -10.432 -10.432 -10.431 -10.429 -10.429
-10.424 -10.424 -10.420 -10.418 -10.416 -10.414  -6.947  -6.947
 -1.181  -1.181  -1.015  -1.014  -0.961  -0.958  -0.954  -0.952
 -0.931  -0.931  -0.907  -0.899  -0.882  -0.881  -0.860  -0.854
 -0.852  -0.849  -0.845  -0.844  -0.820  -0.816  -0.815  -0.811
 -0.810  -0.803  -0.774  -0.773  -0.762  -0.762  -0.733  -0.727
 -0.724  -0.718  -0.707  -0.707  -0.687  -0.680  -0.677  -0.663
 -0.657  -0.646  -0.646  -0.644  -0.636  -0.636  -0.593  -0.591
 -0.589  -0.586  -0.583  -0.582  -0.581  -0.573  -0.572  -0.560
 -0.559  -0.543  -0.541  -0.535  -0.532  -0.532  -0.526  -0.521
 -0.511  -0.506  -0.500  -0.498  -0.496  -0.495  -0.494  -0.491
 -0.490  -0.488  -0.483  -0.483  -0.483  -0.479  -0.476  -0.473
 -0.472  -0.471  -0.467  -0.465  -0.463  -0.462  -0.460  -0.452
 -0.446  -0.443  -0.439  -0.438  -0.434  -0.427  -0.426  -0.424
 -0.422  -0.421  -0.418  -0.413  -0.412  -0.409  -0.405  -0.404
 -0.396  -0.394  -0.393  -0.392  -0.390  -0.389  -0.384  -0.382
 -0.377  -0.371  -0.367  -0.364  -0.361  -0.355  -0.354  -0.350
 -0.339  -0.337  -0.317  -0.312  -0.294  -0.293  -0.280  -0.275
 -0.275  -0.261  -0.256  -0.254  -0.250  -0.248

          Ground-State Mulliken Net Atomic Charges

     Atom                 Charge (a.u.)
  ----------------------------------------
      1 C                    -0.153028
      2 C                    -0.403660
      3 H                     0.245313
      4 C                     0.104326
      5 C                     0.078365
      6 C                    -0.395604
      7 H                     0.243983
      8 C                    -0.150146
      9 C                     0.188425
     10 C                    -0.393580
     11 H                     0.237752
     12 C                    -0.064638
     13 C                     0.237878
     14 C                     0.187037
     15 C                    -0.384005
     16 H                     0.237722
     17 C                    -0.218135
     18 H                     0.242230
     19 C                    -0.345241
     20 H                     0.237666
     21 C                    -0.221270
     22 H                     0.242660
     23 C                    -0.340601
     24 H                     0.237253
     25 B                     0.679798
     26 B                     0.679915
     27 C                    -0.156945
     28 C                    -0.392661
     29 H                     0.241122
     30 C                     0.103403
     31 C                     0.077392
     32 C                    -0.382175
     33 H                     0.240541
     34 C                    -0.157398
     35 C                     0.187158
     36 C                    -0.384520
     37 H                     0.236993
     38 C                    -0.063745
     39 C                     0.237270
     40 C                     0.187900
     41 C                    -0.394505
     42 H                     0.237318
     43 C                    -0.220896
     44 H                     0.242279
     45 C                    -0.340357
     46 H                     0.237129
     47 C                    -0.345223
     48 H                     0.237572
     49 C                    -0.217729
     50 H                     0.241860
     51 C                    -0.220288
     52 C                     0.077171
     53 C                    -0.441154
     54 H                     0.237292
     55 C                     0.395733
     56 O                    -0.462614
     57 C                    -0.396896
     58 H                     0.230835
     59 C                     0.056913
     60 C                    -0.418203
     61 H                     0.247165
     62 H                     0.212115
     63 H                     0.212096
     64 C                    -0.768520
     65 H                     0.245040
     66 H                     0.248991
     67 H                     0.247708
     68 C                    -0.553472
     69 H                     0.233390
     70 H                     0.254841
     71 C                    -0.651627
     72 H                     0.242725
     73 H                     0.222836
     74 H                     0.217011
     75 C                    -0.227163
     76 C                     0.074823
     77 C                    -0.435404
     78 H                     0.237532
     79 C                     0.396103
     80 O                    -0.462593
     81 C                    -0.396222
     82 H                     0.231300
     83 C                     0.055519
     84 C                    -0.418275
     85 H                     0.247530
     86 H                     0.212135
     87 H                     0.212132
     88 C                    -0.767632
     89 H                     0.245156
     90 H                     0.248558
     91 H                     0.247292
     92 C                    -0.550577
     93 H                     0.255172
     94 H                     0.233518
     95 C                    -0.647148
     96 H                     0.237347
     97 H                     0.223654
     98 H                     0.215961
  ----------------------------------------
  Sum of atomic charges =    -0.000000

                    Cartesian Multipole Moments
 -----------------------------------------------------------------
    Charge (ESU x 10^10)
                -0.0000
    Dipole Moment (Debye)
         X      -0.1530      Y      -0.1426      Z      -0.2212
       Tot       0.3044
    Quadrupole Moments (Debye-Ang)
        XX    -272.0023     XY      17.9742     YY    -323.2348
        XZ      -1.4227     YZ      12.3395     ZZ    -268.5862

 Total job time:  42179.18s(wall), 93633.78s(cpu)
        *  Thank you very much for using Q-Chem.  Have a nice day.  *
