 Q-Chem 5.0, Q-Chem, Inc., Pleasanton, CA (2017)
 Q-Chem 5.0.1 for Intel X86 EM64T Linux

User input:
--------------------------------------------------------------
$rem
threads 4
jobtype	opt
method PBEh-3c
basis def2-mSVP
mem_static	1024
mem_total	4000
sym_ignore	true
scf_convergence	9
solvent_method	pcm
$end

$molecule
read gsopt.mol
$end

$solvent
dielectric	1.0001
$end

$pcm
theory iefpcm
$end
--------------------------------------------------------------

   17   -2202.2554159862      6.61E-10 Convergence criterion met
 Total energy in the final basis set = -2202.25541599
   15   -2202.2571481207      5.36E-10 Convergence criterion met
 Total energy in the final basis set = -2202.25714812
   15   -2202.2578075950      4.55E-10 Convergence criterion met
 Total energy in the final basis set = -2202.25780760
   15   -2202.2577785809      3.89E-10 Convergence criterion met
 Total energy in the final basis set = -2202.25777858
   14   -2202.2579440783      4.61E-10 Convergence criterion met
 Total energy in the final basis set = -2202.25794408
   14   -2202.2579754199      4.85E-10 Convergence criterion met
 Total energy in the final basis set = -2202.25797542
   13   -2202.2579897758      6.91E-10 Convergence criterion met
 Total energy in the final basis set = -2202.25798978
   12   -2202.2579967571      8.52E-10 Convergence criterion met
 Total energy in the final basis set = -2202.25799676
   12   -2202.2580010208      5.96E-10 Convergence criterion met
 Total energy in the final basis set = -2202.25800102
   12   -2202.2579971703      4.50E-10 Convergence criterion met
 Total energy in the final basis set = -2202.25799717
   11   -2202.2579930682      4.80E-10 Convergence criterion met
 Total energy in the final basis set = -2202.25799307
   10   -2202.2579915534      3.94E-10 Convergence criterion met
 Total energy in the final basis set = -2202.25799155

             Standard Nuclear Orientation (Angstroms)
    I     Atom           X                Y                Z
 ----------------------------------------------------------------
    1      C       0.0625798490    -0.4824315025     0.0789425059
    2      C       0.0575050543    -0.4860055589     1.4798650120
    3      H       0.9992935694    -0.4898258611     2.0182183711
    4      C      -1.1427691891    -0.4806705337     2.1709657246
    5      C      -2.3595111918    -0.4634535806     1.4544211531
    6      C      -2.3671326449    -0.4541498954     0.0738139294
    7      H      -3.3062058927    -0.4401212351    -0.4695736749
    8      C      -1.1628801780    -0.4645472119    -0.6299413744
    9      C      -1.4695975093    -0.4854423017     3.6014792224
   10      C      -0.7565204400    -0.5001549935     4.7700319141
   11      H       0.3260961881    -0.5122403038     4.7799035074
   12      C      -2.8761739640    -0.4708963564     3.6837370531
   13      C      -3.6028799886    -0.4701139238     4.8679195210
   14      C      -3.4637147550    -0.4569391215     2.4067069284
   15      C      -4.8294715408    -0.4409862814     2.3014992528
   16      H      -5.3298468467    -0.4289649168     1.3408113989
   17      C      -1.4664084572    -0.4997664364     5.9953591228
   18      H      -0.9000466976    -0.5115566638     6.9171972243
   19      C      -2.8399202812    -0.4853002324     6.0591278021
   20      H      -3.3355407390    -0.4856429029     7.0220464816
   21      C      -5.5943622028    -0.4398628501     3.4907285594
   22      H      -6.6737763546    -0.4271732693     3.4130268216
   23      C      -5.0133696516    -0.4539658776     4.7372395924
   24      H      -5.6391884844    -0.4523790708     5.6212117565
   25      B      -1.1821910936    -0.4514699119    -2.1846942192
   26      B       1.4073789989    -0.4913086455    -0.7087302167
   27      C       1.3958979320    -0.5322914131    -2.2647555648
   28      C       2.5984786806    -0.6047335637    -2.9785014179
   29      H       3.5378617575    -0.6419691446    -2.4380002904
   30      C       2.5815148985    -0.6299169171    -4.3628666142
   31      C       1.3479122113    -0.5695439821    -5.0469141706
   32      C       0.1560992144    -0.5009066896    -4.3548818451
   33      H      -0.7858966441    -0.4594958773    -4.8907223368
   34      C       0.1637820119    -0.4919877302    -2.9606256943
   35      C       1.6069817141    -0.6062905435    -6.4825779048
   36      C       0.8262337079    -0.5805268645    -7.6083814667
   37      H      -0.2534684974    -0.5139658385    -7.5543974665
   38      C       3.0018845309    -0.6934561767    -6.6251788337
   39      C       3.6511591334    -0.7594406240    -7.8534629110
   40      C       3.6451224184    -0.7119160479    -5.3725587594
   41      C       5.0114590595    -0.8026296775    -5.3552894918
   42      H       5.5712074411    -0.8255964978    -4.4289297413
   43      C       1.4595812061    -0.6439102373    -8.8714275989
   44      H       0.8442005293    -0.6233493036    -9.7615628981
   45      C       2.8252834845    -0.7315924177    -9.0036269034
   46      H       3.2690979677    -0.7795139231    -9.9905696427
   47      C       5.0615350414    -0.8505233604    -7.8037291575
   48      H       5.6355719496    -0.9063224677    -8.7205572990
   49      C       5.7042195199    -0.8703269472    -6.5886287530
   50      H       6.7836941274    -0.9420655517    -6.5685736958
   51      C       2.7702162020    -0.4777839090     0.0633797996
   52      C       3.4814994651     0.7031021214     0.2658140244
   53      C       4.6833340538     0.6936282206     0.9744935437
   54      H       5.2081652810     1.6307469461     1.1138268598
   55      C       5.1867339302    -0.4969132242     1.4773103690
   56      O       6.3376049101    -0.6085485846     2.1734700312
   57      C       4.4878277973    -1.6833481505     1.2610658302
   58      H       4.8987907225    -2.6100472523     1.6439296574
   59      C       3.2935088320    -1.6814422465     0.5650551001
   60      C       7.0779292829     0.5541266796     2.4281867739
   61      H       7.9466590320     0.2498710411     3.0083696430
   62      H       7.4264201164     1.0359143289     1.5084781926
   63      H       6.5112595740     1.2886915950     3.0100553746
   64      C       2.5556533754    -2.9710152091     0.3292572369
   65      H       3.1140970677    -3.8306719312     0.6982746528
   66      H       1.5829053069    -2.9734848584     0.8256115499
   67      H       2.3685798062    -3.1342981684    -0.7347767539
   68      C       2.9441134303     2.0191539668    -0.2358414332
   69      H       3.7764214859     2.6811298256    -0.4892698319
   70      H       2.3917865429     1.8707377626    -1.1681801273
   71      C       2.0403449953     2.7127841436     0.7815314822
   72      H       1.1597020906     2.1111880111     1.0069882269
   73      H       1.6939484145     3.6753835631     0.4033875387
   74      H       2.5678532939     2.8906512715     1.7192569383
   75      C      -2.5414657036    -0.3853765995    -2.9733724796
   76      C      -3.1396692020    -1.5317604910    -3.4937528266
   77      C      -4.3327719111    -1.4499253536    -4.2134476451
   78      H      -4.7640402163    -2.3642320382    -4.6036668114
   79      C      -4.9400536074    -0.2226794042    -4.4239262198
   80      O      -6.0904114694    -0.0441946335    -5.1071301008
   81      C      -4.3449076229     0.9293074965    -3.9133072286
   82      H      -4.8202284941     1.8865381382    -4.0916959125
   83      C      -3.1639910746     0.8559040399    -3.1980116159
   84      C      -6.7276486608    -1.1700284335    -5.6479477132
   85      H      -7.6264124548    -0.8108260314    -6.1451247445
   86      H      -7.0214931131    -1.8918835985    -4.8787390273
   87      H      -6.1055981058    -1.6861172653    -6.3868039002
   88      C      -2.5317899990     2.1138118572    -2.6720868934
   89      H      -3.1003321123     2.9997041189    -2.9526688952
   90      H      -2.4598723935     2.1000950776    -1.5827863318
   91      H      -1.5176509780     2.2399311450    -3.0582147302
   92      C      -2.5508092729    -2.8988240669    -3.2541565387
   93      H      -1.4708322965    -2.8286103078    -3.0987026315
   94      H      -2.6800440891    -3.5144491607    -4.1486094751
   95      C      -3.1898294886    -3.6027847491    -2.0593311537
   96      H      -3.0299360715    -3.0393017030    -1.1399519860
   97      H      -2.7663151227    -4.5976421502    -1.9175106185
   98      H      -4.2661242230    -3.7132168185    -2.1967378667
 ----------------------------------------------------------------

   10   -2202.2579908468      3.72E-10 Convergence criterion met
 Total energy in the final basis set = -2202.25799085
 Final energy is   -2202.25799084677
 **  OPTIMIZATION CONVERGED  **

                    Orbital Energies (a.u.)
 --------------------------------------------------------------

 Alpha MOs
 -- Occupied --
-19.523 -19.522 -10.499 -10.498 -10.489 -10.488 -10.463 -10.462
-10.462 -10.462 -10.462 -10.461 -10.461 -10.460 -10.460 -10.460
-10.460 -10.459 -10.459 -10.459 -10.458 -10.458 -10.458 -10.457
-10.457 -10.457 -10.457 -10.456 -10.451 -10.450 -10.449 -10.449
-10.448 -10.447 -10.447 -10.446 -10.444 -10.443 -10.433 -10.432
-10.431 -10.431 -10.430 -10.430 -10.429 -10.428 -10.427 -10.426
-10.424 -10.423 -10.419 -10.417 -10.413 -10.411  -6.944  -6.944
 -1.180  -1.180  -1.014  -1.013  -0.960  -0.956  -0.952  -0.950
 -0.931  -0.930  -0.906  -0.898  -0.881  -0.879  -0.858  -0.852
 -0.851  -0.847  -0.845  -0.844  -0.819  -0.815  -0.814  -0.811
 -0.809  -0.801  -0.774  -0.772  -0.761  -0.761  -0.732  -0.726
 -0.724  -0.718  -0.706  -0.705  -0.687  -0.679  -0.677  -0.662
 -0.657  -0.646  -0.645  -0.643  -0.635  -0.634  -0.593  -0.590
 -0.590  -0.586  -0.583  -0.582  -0.581  -0.573  -0.572  -0.559
 -0.558  -0.541  -0.541  -0.534  -0.533  -0.533  -0.526  -0.521
 -0.510  -0.505  -0.500  -0.497  -0.495  -0.495  -0.494  -0.491
 -0.489  -0.487  -0.483  -0.481  -0.480  -0.479  -0.477  -0.473
 -0.472  -0.470  -0.466  -0.465  -0.463  -0.461  -0.459  -0.452
 -0.445  -0.442  -0.438  -0.437  -0.432  -0.426  -0.425  -0.422
 -0.421  -0.420  -0.416  -0.413  -0.411  -0.408  -0.404  -0.403
 -0.396  -0.393  -0.392  -0.392  -0.390  -0.388  -0.383  -0.381
 -0.375  -0.370  -0.365  -0.362  -0.359  -0.353  -0.352  -0.348
 -0.337  -0.335  -0.315  -0.309  -0.293  -0.292  -0.277  -0.272
 -0.272  -0.259  -0.254  -0.252  -0.248  -0.245

          Ground-State Mulliken Net Atomic Charges

     Atom                 Charge (a.u.)
  ----------------------------------------
      1 C                    -0.152257
      2 C                    -0.403060
      3 H                     0.238854
      4 C                     0.113015
      5 C                     0.086911
      6 C                    -0.395315
      7 H                     0.237289
      8 C                    -0.148417
      9 C                     0.197099
     10 C                    -0.387647
     11 H                     0.220998
     12 C                    -0.063811
     13 C                     0.252961
     14 C                     0.195575
     15 C                    -0.377722
     16 H                     0.220915
     17 C                    -0.202750
     18 H                     0.225915
     19 C                    -0.337592
     20 H                     0.219891
     21 C                    -0.206155
     22 H                     0.226281
     23 C                    -0.332721
     24 H                     0.219514
     25 B                     0.680754
     26 B                     0.681538
     27 C                    -0.156277
     28 C                    -0.389246
     29 H                     0.234130
     30 C                     0.112349
     31 C                     0.085752
     32 C                    -0.378209
     33 H                     0.233603
     34 C                    -0.156578
     35 C                     0.195889
     36 C                    -0.378068
     37 H                     0.220254
     38 C                    -0.062994
     39 C                     0.252573
     40 C                     0.196876
     41 C                    -0.388447
     42 H                     0.220420
     43 C                    -0.205652
     44 H                     0.225696
     45 C                    -0.332526
     46 H                     0.219153
     47 C                    -0.337724
     48 H                     0.219633
     49 C                    -0.202308
     50 H                     0.225380
     51 C                    -0.221065
     52 C                     0.084209
     53 C                    -0.430867
     54 H                     0.221074
     55 C                     0.402369
     56 O                    -0.453679
     57 C                    -0.382394
     58 H                     0.220415
     59 C                     0.062625
     60 C                    -0.405674
     61 H                     0.238693
     62 H                     0.203080
     63 H                     0.203231
     64 C                    -0.761727
     65 H                     0.237338
     66 H                     0.246661
     67 H                     0.244486
     68 C                    -0.551927
     69 H                     0.226190
     70 H                     0.254068
     71 C                    -0.644402
     72 H                     0.244597
     73 H                     0.217480
     74 H                     0.213743
     75 C                    -0.227325
     76 C                     0.080650
     77 C                    -0.425325
     78 H                     0.221432
     79 C                     0.402629
     80 O                    -0.453671
     81 C                    -0.381483
     82 H                     0.220866
     83 C                     0.061744
     84 C                    -0.405744
     85 H                     0.239096
     86 H                     0.203196
     87 H                     0.203124
     88 C                    -0.760637
     89 H                     0.237387
     90 H                     0.246315
     91 H                     0.243937
     92 C                    -0.549225
     93 H                     0.254224
     94 H                     0.226592
     95 C                    -0.639613
     96 H                     0.238771
     97 H                     0.218323
     98 H                     0.212465
  ----------------------------------------
  Sum of atomic charges =    -0.000000

                    Cartesian Multipole Moments
 -----------------------------------------------------------------
    Charge (ESU x 10^10)
                -0.0000
    Dipole Moment (Debye)
         X      -0.1171      Y      -0.0971      Z      -0.1967
       Tot       0.2486
    Quadrupole Moments (Debye-Ang)
        XX    -278.5842     XY      15.6181     YY    -324.7971
        XZ      -0.0938     YZ      10.7578     ZZ    -276.6770

 Total job time:  36063.20s(wall), 79848.01s(cpu)
        *  Thank you very much for using Q-Chem.  Have a nice day.  *
