 Q-Chem 5.0, Q-Chem, Inc., Pleasanton, CA (2017)
 Q-Chem 5.0.1 for Intel X86 EM64T Linux

User input:
--------------------------------------------------------------
$rem
threads 4
jobtype	opt
method PBEh-3c
basis def2-mSVP
mem_static	1024
mem_total	4000
sym_ignore	true
scf_convergence	9
solvent_method	pcm
$end

$molecule
read gsopt.mol
$end

$solvent
dielectric	4.33
$end

$pcm
theory iefpcm
$end
--------------------------------------------------------------

   17   -2202.2754873054      3.40E-10 Convergence criterion met
 Total energy in the final basis set = -2202.27548731
   15   -2202.2773255499      5.52E-10 Convergence criterion met
 Total energy in the final basis set = -2202.27732555
   15   -2202.2779573843      4.95E-10 Convergence criterion met
 Total energy in the final basis set = -2202.27795738
   15   -2202.2778300099      4.66E-10 Convergence criterion met
 Total energy in the final basis set = -2202.27783001
   15   -2202.2779833845      4.35E-10 Convergence criterion met
 Total energy in the final basis set = -2202.27798338
   15   -2202.2781377607      4.30E-10 Convergence criterion met
 Total energy in the final basis set = -2202.27813776
   15   -2202.2781014467      3.90E-10 Convergence criterion met
 Total energy in the final basis set = -2202.27810145
   15   -2202.2781029510      3.67E-10 Convergence criterion met
   15   -2202.2780889967      3.83E-10 Convergence criterion met
 Total energy in the final basis set = -2202.27808900
   15   -2202.2780866622      3.61E-10 Convergence criterion met
 Total energy in the final basis set = -2202.27808666
   15   -2202.2780843143      3.63E-10 Convergence criterion met
 Total energy in the final basis set = -2202.27808431
   15   -2202.2780812614      3.61E-10 Convergence criterion met
 Total energy in the final basis set = -2202.27808126
   15   -2202.2780832576      3.58E-10 Convergence criterion met
 Total energy in the final basis set = -2202.27808326
   15   -2202.2780846661      3.58E-10 Convergence criterion met
 Total energy in the final basis set = -2202.27808467

             Standard Nuclear Orientation (Angstroms)
    I     Atom           X                Y                Z
 ----------------------------------------------------------------
    1      C       0.0665057176    -0.4843871080     0.0787109477
    2      C       0.0607501296    -0.4951809492     1.4799013021
    3      H       0.9999012874    -0.5011326128     2.0224836831
    4      C      -1.1405196225    -0.4959499003     2.1707713881
    5      C      -2.3574318736    -0.4758351069     1.4532553687
    6      C      -2.3643818487    -0.4578124747     0.0720383827
    7      H      -3.3051556124    -0.4410993403    -0.4678911565
    8      C      -1.1594376739    -0.4641964429    -0.6311940567
    9      C      -1.4678409819    -0.5114422946     3.6011892898
   10      C      -0.7544558673    -0.5335012585     4.7706397906
   11      H       0.3283017359    -0.5434037515     4.7816231032
   12      C      -2.8749812179    -0.5002961470     3.6818489235
   13      C      -3.6029172111    -0.5099843492     4.8660945408
   14      C      -3.4625508154    -0.4781508111     2.4044710881
   15      C      -4.8292045000    -0.4643627312     2.2975566464
   16      H      -5.3291512501    -0.4465979290     1.3365785017
   17      C      -1.4661656911    -0.5437924133     5.9957981712
   18      H      -0.9001960348    -0.5614108890     6.9178984150
   19      C      -2.8409176248    -0.5327003205     6.0587606309
   20      H      -3.3379514774    -0.5414585287     7.0210144393
   21      C      -5.5948493804    -0.4735917543     3.4871711547
   22      H      -6.6743123447    -0.4627078839     3.4085954878
   23      C      -5.0141941700    -0.4958278411     4.7350163194
   24      H      -5.6400664861    -0.5023017136     5.6190547797
   25      B      -1.1789206397    -0.4465145123    -2.1862152525
   26      B       1.4119593633    -0.4880945315    -0.7082534279
   27      C       1.4004919777    -0.5343993796    -2.2650302860
   28      C       2.6034773213    -0.6115647978    -2.9783945886
   29      H       3.5447320127    -0.6462900806    -2.4411652464
   30      C       2.5870074944    -0.6455541042    -4.3633040242
   31      C       1.3528618739    -0.5888424560    -5.0483713886
   32      C       0.1606085053    -0.5132641891    -4.3564125521
   33      H      -0.7791940295    -0.4741281353    -4.8961103075
   34      C       0.1679654394    -0.4955174669    -2.9618383729
   35      C       1.6117399921    -0.6358223270    -6.4838248186
   36      C       0.8299856516    -0.6177763840    -7.6103095160
   37      H      -0.2498894461    -0.5509137412    -7.5573882495
   38      C       3.0071522703    -0.7245068431    -6.6247566096
   39      C       3.6569492994    -0.7991338707    -7.8530832307
   40      C       3.6511355751    -0.7347349619    -5.3719442576
   41      C       5.0184815969    -0.8255095510    -5.3531934752
   42      H       5.5785536748    -0.8419344945    -4.4267296930
   43      C       1.4644287050    -0.6901835875    -8.8732055461
   44      H       0.8490210099    -0.6757930103    -9.7635448739
   45      C       2.8313018556    -0.7789548905    -9.0045307129
   46      H       3.2761382089    -0.8338023018    -9.9907469612
   47      C       5.0681156547    -0.8902320213    -7.8032823851
   48      H       5.6415455169    -0.9523918466    -8.7201916981
   49      C       5.7112240857    -0.9018631995    -6.5869567968
   50      H       6.7907713699    -0.9735044389    -6.5660449436
   51      C       2.7755539287    -0.4637911471     0.0633418175
   52      C       3.4760187182     0.7243231046     0.2660015074
   53      C       4.6804418528     0.7271586968     0.9716442128
   54      H       5.1965135618     1.6691578657     1.1109178627
   55      C       5.1973837541    -0.4595736940     1.4720936543
   56      O       6.3510426077    -0.5591032711     2.1649654845
   57      C       4.5088230866    -1.6534893903     1.2564461536
   58      H       4.9267162694    -2.5787627015     1.6368123066
   59      C       3.3116395047    -1.6629238983     0.5628418260
   60      C       7.0819777165     0.6166846477     2.4213362641
   61      H       7.9539781136     0.3209206681     3.0004051082
   62      H       7.4221410700     1.1004487881     1.5007168512
   63      H       6.5052471461     1.3417028817     3.0034182324
   64      C       2.5868026881    -2.9604477306     0.3298884962
   65      H       3.1536684819    -3.8133009747     0.7019113713
   66      H       1.6139433797    -2.9707792570     0.8261834353
   67      H       2.4010706194    -3.1282463559    -0.7337694102
   68      C       2.9252851949     2.0362542557    -0.2324215327
   69      H       3.7507288387     2.7033595404    -0.4936713742
   70      H       2.3631908050     1.8830946503    -1.1581880616
   71      C       2.0275573405     2.7256321088     0.7934537757
   72      H       1.1549614096     2.1167615675     1.0315635102
   73      H       1.6685279891     3.6832754083     0.4144282466
   74      H       2.5651317075     2.9129459753     1.7237767414
   75      C      -2.5381753677    -0.3678044192    -2.9745640176
   76      C      -3.1509882527    -1.5102009579    -3.4882530459
   77      C      -4.3457378749    -1.4191267554    -4.2055271247
   78      H      -4.7890917377    -2.3300268070    -4.5903143260
   79      C      -4.9401161758    -0.1853652235    -4.4199954058
   80      O      -6.0905761227     0.0012831143    -5.1003442370
   81      C      -4.3301272201     0.9632270628    -3.9158086086
   82      H      -4.7932295663     1.9269702332    -4.0945858610
   83      C      -3.1472902160     0.8797048690    -3.2024494189
   84      C      -6.7437251740    -1.1260042486    -5.6354127816
   85      H      -7.6405439410    -0.7600639324    -6.1304973471
   86      H      -7.0392616151    -1.8386337059    -4.8597010986
   87      H      -6.1273063948    -1.6491536174    -6.3725403551
   88      C      -2.5029173116     2.1332081334    -2.6803606881
   89      H      -3.0626684550     3.0236026446    -2.9644942000
   90      H      -2.4330775652     2.1216351602    -1.5907635883
   91      H      -1.4866295381     2.2481293023    -3.0646789487
   92      C      -2.5770493087    -2.8832693681    -3.2455726108
   93      H      -1.5005425744    -2.8224060227    -3.0637187847
   94      H      -2.6913662533    -3.4918261953    -4.1466579981
   95      C      -3.2484105973    -3.5914299967    -2.0709746595
   96      H      -3.1134484092    -3.0312072675    -1.1452900044
   97      H      -2.8280936555    -4.5867399019    -1.9228872458
   98      H      -4.3205077046    -3.7020983879    -2.2386778051
 ----------------------------------------------------------------

   15   -2202.2780842297      3.62E-10 Convergence criterion met
 Total energy in the final basis set = -2202.27808423
 Final energy is   -2202.27808422965
 **  OPTIMIZATION CONVERGED  **

                    Orbital Energies (a.u.)
 --------------------------------------------------------------

 Alpha MOs
 -- Occupied --
-19.526 -19.526 -10.503 -10.503 -10.484 -10.483 -10.465 -10.465
-10.464 -10.464 -10.464 -10.464 -10.463 -10.463 -10.463 -10.462
-10.462 -10.462 -10.461 -10.460 -10.460 -10.460 -10.460 -10.460
-10.457 -10.457 -10.457 -10.457 -10.455 -10.455 -10.454 -10.453
-10.453 -10.452 -10.452 -10.451 -10.447 -10.447 -10.435 -10.435
-10.434 -10.434 -10.434 -10.434 -10.434 -10.433 -10.431 -10.431
-10.425 -10.425 -10.421 -10.419 -10.418 -10.416  -6.949  -6.949
 -1.182  -1.182  -1.016  -1.016  -0.963  -0.959  -0.956  -0.954
 -0.932  -0.932  -0.909  -0.901  -0.883  -0.883  -0.861  -0.855
 -0.854  -0.850  -0.846  -0.845  -0.822  -0.817  -0.816  -0.813
 -0.812  -0.805  -0.775  -0.773  -0.763  -0.763  -0.734  -0.728
 -0.726  -0.720  -0.709  -0.708  -0.688  -0.681  -0.679  -0.665
 -0.658  -0.647  -0.647  -0.645  -0.637  -0.637  -0.594  -0.593
 -0.590  -0.587  -0.584  -0.583  -0.582  -0.574  -0.573  -0.561
 -0.561  -0.544  -0.542  -0.536  -0.532  -0.532  -0.527  -0.522
 -0.513  -0.507  -0.502  -0.499  -0.497  -0.496  -0.495  -0.493
 -0.492  -0.489  -0.485  -0.485  -0.484  -0.480  -0.477  -0.473
 -0.473  -0.472  -0.468  -0.466  -0.464  -0.463  -0.461  -0.453
 -0.448  -0.444  -0.440  -0.438  -0.435  -0.428  -0.427  -0.426
 -0.423  -0.422  -0.419  -0.415  -0.413  -0.410  -0.406  -0.405
 -0.397  -0.395  -0.395  -0.393  -0.391  -0.390  -0.385  -0.384
 -0.379  -0.373  -0.368  -0.366  -0.363  -0.357  -0.355  -0.352
 -0.341  -0.339  -0.319  -0.314  -0.296  -0.295  -0.282  -0.277
 -0.277  -0.262  -0.258  -0.256  -0.252  -0.250

          Ground-State Mulliken Net Atomic Charges

     Atom                 Charge (a.u.)
  ----------------------------------------
      1 C                    -0.153536
      2 C                    -0.403445
      3 H                     0.248491
      4 C                     0.099095
      5 C                     0.073541
      6 C                    -0.395341
      7 H                     0.247164
      8 C                    -0.151319
      9 C                     0.183460
     10 C                    -0.396042
     11 H                     0.246088
     12 C                    -0.065709
     13 C                     0.229096
     14 C                     0.182142
     15 C                    -0.386663
     16 H                     0.246077
     17 C                    -0.225812
     18 H                     0.250633
     19 C                    -0.348433
     20 H                     0.247086
     21 C                    -0.228808
     22 H                     0.251082
     23 C                    -0.343966
     24 H                     0.246678
     25 B                     0.678920
     26 B                     0.678608
     27 C                    -0.157195
     28 C                    -0.393994
     29 H                     0.244574
     30 C                     0.098217
     31 C                     0.072549
     32 C                    -0.383974
     33 H                     0.244077
     34 C                    -0.157884
     35 C                     0.182128
     36 C                    -0.387231
     37 H                     0.245351
     38 C                    -0.064770
     39 C                     0.228415
     40 C                     0.182795
     41 C                    -0.397043
     42 H                     0.245715
     43 C                    -0.228459
     44 H                     0.250818
     45 C                    -0.343664
     46 H                     0.246642
     47 C                    -0.348366
     48 H                     0.247085
     49 C                    -0.225426
     50 H                     0.250341
     51 C                    -0.220236
     52 C                     0.072760
     53 C                    -0.445748
     54 H                     0.246535
     55 C                     0.392253
     56 O                    -0.466779
     57 C                    -0.403827
     58 H                     0.236160
     59 C                     0.054084
     60 C                    -0.424103
     61 H                     0.250857
     62 H                     0.216639
     63 H                     0.216579
     64 C                    -0.771559
     65 H                     0.249392
     66 H                     0.249576
     67 H                     0.248609
     68 C                    -0.553774
     69 H                     0.237783
     70 H                     0.254324
     71 C                    -0.655039
     72 H                     0.240682
     73 H                     0.225602
     74 H                     0.219298
     75 C                    -0.227271
     76 C                     0.071489
     77 C                    -0.439699
     78 H                     0.246814
     79 C                     0.392695
     80 O                    -0.466754
     81 C                    -0.403472
     82 H                     0.236602
     83 C                     0.051941
     84 C                    -0.424223
     85 H                     0.251178
     86 H                     0.216637
     87 H                     0.216708
     88 C                    -0.770783
     89 H                     0.249560
     90 H                     0.249091
     91 H                     0.248331
     92 C                    -0.550642
     93 H                     0.254613
     94 H                     0.237611
     95 C                    -0.650664
     96 H                     0.235443
     97 H                     0.226316
     98 H                     0.218626
  ----------------------------------------
  Sum of atomic charges =    -0.000000

                    Cartesian Multipole Moments
 -----------------------------------------------------------------
    Charge (ESU x 10^10)
                -0.0000
    Dipole Moment (Debye)
         X      -0.1789      Y      -0.1703      Z      -0.2530
       Tot       0.3536
    Quadrupole Moments (Debye-Ang)
        XX    -268.1252     XY      19.3892     YY    -322.3541
        XZ      -2.1281     YZ      13.2664     ZZ    -263.7035

 Total job time:  35902.50s(wall), 83709.76s(cpu)
        *  Thank you very much for using Q-Chem.  Have a nice day.  *
