 Q-Chem 5.0, Q-Chem, Inc., Pleasanton, CA (2017)
 Q-Chem 5.0.1 for Intel X86 EM64T Linux

User input:
--------------------------------------------------------------
$rem
threads 8
jobtype	sp
method PBEh-3c
basis def2-mSVP
mem_static	1024
mem_total	8000
sym_ignore	true
unrestricted true
scf_convergence	9
solvent_method	pcm
$end

$molecule
read incoords.mol
$end

$solvent
dielectric	1.0001
$end

$pcm
theory iefpcm
$end
--------------------------------------------------------------

   17   -2123.3711127414      7.53E-10 Convergence criterion met
 Total energy in the final basis set = -2123.37111274
 Total job time:  2084.73s(wall), 6322.13s(cpu)
        *  Thank you very much for using Q-Chem.  Have a nice day.  *
 Q-Chem 5.0, Q-Chem, Inc., Pleasanton, CA (2017)
 Q-Chem 5.0.1 for Intel X86 EM64T Linux

User input:
--------------------------------------------------------------

$rem
threads 8
jobtype opt
method PBEh-3c
basis def2-mSVP
scf_guess	read
mem_static      1024
mem_total       8000
sym_ignore      true
unrestricted true
mom_start       1
scf_algorithm	diis
scf_max_cycles	250
solvent_method	pcm
geom_opt_tol_energy 25
geom_opt_tol_gradient 75
$end

$solvent
dielectric      1.0001
$end

$pcm
theory iefpcm
$end

$occupied
1 2 3 4 5 6 7 8 9 10 11 12 13 14 15 16 17 18 19 20 21 22 23 24 25 26 27 28 29 30 31 32 33 34 35 36 37 38 39 40 41 42 43 44 45 46 47 48 49 50 51 52 53 54 55 56 57 58 59 60 61 62 63 64 65 66 67 68 69 70 71 72 73 74 75 76 77 78 79 80 81 82 83 84 85 86 87 88 89 90 91 92 93 94 95 96 97 98 99 100 101 102 103 104 105 106 107 108 109 110 111 112 113 114 115 116 117 118 119 120 121 122 123 124 125 126 127 128 129 130 131 132 133 134 135 136 137 138 139 140 141 142 143 144 145 146 147 148 149 150 151 152 153 154 155 156 157 158 159 160 161 162 163 164 165 166 167 168 169 170 171 172 173 174 175 176 177 178 179 180 181 182 183  185
1 2 3 4 5 6 7 8 9 10 11 12 13 14 15 16 17 18 19 20 21 22 23 24 25 26 27 28 29 30 31 32 33 34 35 36 37 38 39 40 41 42 43 44 45 46 47 48 49 50 51 52 53 54 55 56 57 58 59 60 61 62 63 64 65 66 67 68 69 70 71 72 73 74 75 76 77 78 79 80 81 82 83 84 85 86 87 88 89 90 91 92 93 94 95 96 97 98 99 100 101 102 103 104 105 106 107 108 109 110 111 112 113 114 115 116 117 118 119 120 121 122 123 124 125 126 127 128 129 130 131 132 133 134 135 136 137 138 139 140 141 142 143 144 145 146 147 148 149 150 151 152 153 154 155 156 157 158 159 160 161 162 163 164 165 166 167 168 169 170 171 172 173 174 175 176 177 178 179 180 181 182 183 184
$end

$molecule
read
$end

--------------------------------------------------------------

   40   -2123.2803395564      7.49E-09 Convergence criterion met
 Total energy in the final basis set = -2123.28033956
   24   -2123.2850884637      9.23E-09 Convergence criterion met
 Total energy in the final basis set = -2123.28508846
   20   -2123.2825421704      8.10E-09 Convergence criterion met
 Total energy in the final basis set = -2123.28254217
   18   -2123.2871490609      7.65E-09 Convergence criterion met
 Total energy in the final basis set = -2123.28714906
   15   -2123.2872707399      8.22E-09 Convergence criterion met
 Total energy in the final basis set = -2123.28727074
   15   -2123.2873595277      9.36E-09 Convergence criterion met
 Total energy in the final basis set = -2123.28735953
   14   -2123.2874020823      7.90E-09 Convergence criterion met
 Total energy in the final basis set = -2123.28740208
   15   -2123.2874372713      7.07E-09 Convergence criterion met
 Total energy in the final basis set = -2123.28743727
   15   -2123.2874450675      6.86E-09 Convergence criterion met
 Total energy in the final basis set = -2123.28744507
   13   -2123.2874244683      7.47E-09 Convergence criterion met
 Total energy in the final basis set = -2123.28742447
   15   -2123.2873931354      7.73E-09 Convergence criterion met
 Total energy in the final basis set = -2123.28739314
   12   -2123.2873953936      8.26E-09 Convergence criterion met
 Total energy in the final basis set = -2123.28739539

             Standard Nuclear Orientation (Angstroms)
    I     Atom           X                Y                Z
 ----------------------------------------------------------------
    1      C      -0.0150037181     0.0928469028     0.0668960036
    2      C      -0.0151016391     0.0729567325     1.4773007215
    3      H       0.9321599580     0.0720749846     2.0043652603
    4      C      -1.1981535923     0.0543904363     2.1698090030
    5      C      -2.4562466374     0.0544695257     1.4486709939
    6      C      -2.4830575739     0.0649659053     0.0792496973
    7      H      -3.4282863307     0.0605132708    -0.4517764876
    8      C      -1.2855244632     0.0854866778    -0.6508006171
    9      C      -3.5307996064     0.0403719008     2.4143307745
   10      C      -4.9026085349     0.0385689717     2.3302840154
   11      H      -5.4154495905     0.0497856529     1.3768989921
   12      C      -2.9213510360     0.0287430212     3.6856033866
   13      C      -3.6330709714     0.0135157594     4.8820060781
   14      C      -1.5127278718     0.0351905039     3.5884311981
   15      C      -0.7829321246     0.0235770010     4.7508759268
   16      H       0.2992326102     0.0255916697     4.7442675751
   17      C      -1.4776378290     0.0072650147     5.9796840223
   18      H      -0.9018366977    -0.0021232367     6.8956143163
   19      C      -2.8527401213     0.0026445326     6.0607255681
   20      H      -3.3351309946    -0.0095864856     7.0300850361
   21      C      -5.6443381901     0.0239164057     3.5280137424
   22      H      -6.7249262880     0.0230034680     3.4689414449
   23      C      -5.0436081004     0.0112843369     4.7684591361
   24      H      -5.6575364951     0.0001671080     5.6604824941
   25      B       1.3073134194     0.1262338492    -0.7041989985
   26      C       1.2702317364     0.1481673424    -2.2335099726
   27      C       2.4723473860     0.1683208381    -2.9718738454
   28      H       3.4173353185     0.1602103518    -2.4410926432
   29      C       2.4424314688     0.1935377168    -4.3418361516
   30      C       1.1687243095     0.2071940469    -5.0340863603
   31      C      -0.0113228036     0.1832517195    -4.3415402401
   32      H      -0.9574054275     0.1897546429    -4.8709486106
   33      C      -0.0048064239     0.1481742644    -2.9396582254
   34      C       1.4259413552     0.2369550407    -6.4563661192
   35      C       0.6362191482     0.2604707667    -7.5813835776
   36      H      -0.4445938718     0.2645557005    -7.5193859704
   37      C       2.8276616733     0.2353071700    -6.6047824501
   38      C       3.4725041185     0.2532791786    -7.8401433213
   39      C       3.4862349556     0.2092720781    -5.3563222640
   40      C       4.8594189065     0.1996123911    -5.3504635778
   41      H       5.4252394075     0.1765352335    -4.4283382247
   42      C       1.2665411091     0.2805539597    -8.8419503502
   43      H       0.6486924158     0.2992451931    -9.7303165218
   44      C       2.6372315558     0.2767146667    -8.9820266480
   45      H       3.0758683455     0.2914539391    -9.9721811791
   46      C       5.5396519470     0.2174213639    -6.5876358689
   47      H       6.6215736207     0.2090983170    -6.5797313967
   48      C       4.8850882019     0.2436882413    -7.7990383714
   49      H       5.4544091060     0.2560269882    -8.7202347006
   50      B      -1.3298753102     0.0986556705    -2.1792831887
   51      C       2.6834531767     0.1538188895     0.0624011650
   52      C       3.3430106816    -1.0598864207     0.4001475574
   53      C       2.7988786004    -2.3192439705     0.0444548790
   54      H       1.8618208649    -2.3551778802    -0.4991180998
   55      C       3.4336622629    -3.4841522612     0.3731619293
   56      H       2.9999635230    -4.4345830437     0.0902911218
   57      C       4.6514812856    -3.4553957513     1.0802446747
   58      H       5.1457677584    -4.3831838654     1.3374685375
   59      C       5.2050869717    -2.2585615432     1.4379702385
   60      H       6.1427665270    -2.2308814988     1.9806827469
   61      C       4.5712044194    -1.0388027520     1.1087544958
   62      C       5.1226066737     0.2096849109     1.4631926751
   63      H       6.0604610713     0.2386279160     2.0052246807
   64      C       4.4835717401     1.3686046601     1.1261599578
   65      H       4.9201488801     2.3209132905     1.4039064964
   66      C       3.2588588275     1.3557383458     0.4224982696
   67      C       2.5879816361     2.6552687741     0.0712621759
   68      H       3.1632261053     3.5141313058     0.4169035088
   69      H       2.4580343104     2.7586721476    -1.0079659141
   70      H       1.5929483105     2.7253844304     0.5156619529
   71      C      -2.6982925192     0.0318884180    -2.9686104927
   72      C      -3.2196889775    -1.1890125998    -3.3533391456
   73      C      -4.4248776675    -1.2468540939    -4.0883104854
   74      H      -4.8151204269    -2.2149010233    -4.3806782735
   75      C      -5.1014692110    -0.1140033827    -4.4365910015
   76      H      -6.0241617668    -0.1778916311    -5.0013732106
   77      C      -4.6069150842     1.1526533541    -4.0646076363
   78      C      -5.2816479906     2.3453470983    -4.4094164210
   79      H      -6.2045865671     2.2786845647    -4.9737827874
   80      C      -4.7851940242     3.5632369238    -4.0405968744
   81      H      -5.3102212207     4.4703687407    -4.3100677624
   82      C      -3.5854029983     3.6393258372    -3.3070532822
   83      H      -3.1950787589     4.6060478898    -3.0168757838
   84      C      -2.9129367027     2.5004935655    -2.9615332141
   85      H      -1.9901314989     2.5731259936    -2.3980902860
   86      C      -3.3976724435     1.2200745222    -3.3248900278
   87      C      -2.5111605382    -2.4707952753    -3.0105886367
   88      H      -3.0812537340    -3.3434300768    -3.3298028707
   89      H      -1.5315337303    -2.5265037588    -3.4900394706
   90      H      -2.3433880645    -2.5630104483    -1.9360723000
 ----------------------------------------------------------------

   11   -2123.2874017838      7.37E-09 Convergence criterion met
 Total energy in the final basis set = -2123.28740178
 Final energy is   -2123.28740178383
 **  OPTIMIZATION CONVERGED  **

                    Orbital Energies (a.u.)
 --------------------------------------------------------------

 Alpha MOs
 -- Occupied --
-10.475 -10.475 -10.473 -10.473 -10.470 -10.470 -10.468 -10.468
-10.467 -10.467 -10.467 -10.467 -10.467 -10.466 -10.466 -10.466
-10.466 -10.466 -10.464 -10.464 -10.464 -10.463 -10.460 -10.460
-10.455 -10.455 -10.453 -10.452 -10.445 -10.445 -10.444 -10.444
-10.444 -10.444 -10.444 -10.444 -10.443 -10.442 -10.439 -10.439
-10.438 -10.438 -10.437 -10.437 -10.437 -10.437 -10.435 -10.435
-10.435 -10.435 -10.421 -10.421 -10.418 -10.417  -6.914  -6.914
 -1.021  -1.021  -0.968  -0.968  -0.963  -0.961  -0.939  -0.938
 -0.916  -0.915  -0.908  -0.901  -0.867  -0.862  -0.860  -0.857
 -0.852  -0.852  -0.839  -0.838  -0.821  -0.818  -0.816  -0.803
 -0.802  -0.801  -0.758  -0.757  -0.738  -0.736  -0.733  -0.723
 -0.696  -0.693  -0.690  -0.685  -0.682  -0.670  -0.666  -0.663
 -0.662  -0.653  -0.647  -0.647  -0.601  -0.597  -0.594  -0.593
 -0.587  -0.580  -0.579  -0.569  -0.569  -0.561  -0.560  -0.547
 -0.542  -0.541  -0.534  -0.531  -0.528  -0.511  -0.510  -0.505
 -0.501  -0.499  -0.497  -0.497  -0.496  -0.494  -0.486  -0.486
 -0.484  -0.484  -0.483  -0.473  -0.473  -0.471  -0.470  -0.467
 -0.465  -0.464  -0.449  -0.448  -0.447  -0.443  -0.438  -0.434
 -0.432  -0.430  -0.429  -0.428  -0.425  -0.420  -0.419  -0.409
 -0.404  -0.402  -0.401  -0.400  -0.400  -0.398  -0.393  -0.387
 -0.379  -0.378  -0.378  -0.363  -0.363  -0.361  -0.348  -0.346
 -0.341  -0.330  -0.329  -0.324  -0.314  -0.311  -0.301  -0.299
 -0.270  -0.269  -0.269  -0.265  -0.259  -0.238  -0.237  -0.166

 Beta MOs
 -- Occupied --
-10.476 -10.476 -10.474 -10.474 -10.470 -10.470 -10.468 -10.468
-10.467 -10.467 -10.466 -10.466 -10.466 -10.466 -10.466 -10.466
-10.466 -10.465 -10.464 -10.464 -10.464 -10.464 -10.461 -10.461
-10.454 -10.454 -10.452 -10.451 -10.447 -10.446 -10.445 -10.445
-10.444 -10.444 -10.444 -10.444 -10.444 -10.444 -10.439 -10.439
-10.438 -10.438 -10.437 -10.437 -10.437 -10.437 -10.435 -10.435
-10.435 -10.435 -10.421 -10.421 -10.419 -10.417  -6.911  -6.910
 -1.024  -1.023  -0.969  -0.967  -0.964  -0.964  -0.938  -0.938
 -0.916  -0.915  -0.911  -0.904  -0.866  -0.861  -0.860  -0.856
 -0.852  -0.851  -0.838  -0.838  -0.825  -0.818  -0.816  -0.808
 -0.803  -0.802  -0.758  -0.757  -0.738  -0.735  -0.733  -0.724
 -0.694  -0.694  -0.690  -0.685  -0.684  -0.672  -0.665  -0.663
 -0.662  -0.653  -0.648  -0.648  -0.600  -0.597  -0.592  -0.592
 -0.587  -0.580  -0.578  -0.569  -0.569  -0.560  -0.559  -0.547
 -0.541  -0.541  -0.534  -0.532  -0.526  -0.512  -0.509  -0.505
 -0.501  -0.499  -0.497  -0.497  -0.496  -0.494  -0.492  -0.492
 -0.484  -0.483  -0.483  -0.473  -0.473  -0.471  -0.470  -0.468
 -0.465  -0.462  -0.449  -0.448  -0.447  -0.444  -0.438  -0.435
 -0.434  -0.433  -0.431  -0.428  -0.427  -0.424  -0.418  -0.409
 -0.404  -0.402  -0.400  -0.399  -0.399  -0.398  -0.394  -0.387
 -0.379  -0.378  -0.378  -0.371  -0.363  -0.361  -0.356  -0.347
 -0.344  -0.330  -0.325  -0.322  -0.314  -0.311  -0.300  -0.300
 -0.285  -0.269  -0.269  -0.264  -0.263  -0.258  -0.238  -0.237

          Ground-State Mulliken Net Atomic Charges

     Atom                 Charge (a.u.)    Spin (a.u.)
  --------------------------------------------------------
      1 C                    -0.120513      -0.154532
      2 C                    -0.391190       0.060474
      3 H                     0.237901      -0.003023
      4 C                     0.121264      -0.075737
      5 C                     0.095591      -0.081094
      6 C                    -0.382336       0.058337
      7 H                     0.236599      -0.002896
      8 C                    -0.122077      -0.131491
      9 C                     0.198485      -0.011247
     10 C                    -0.371188       0.051099
     11 H                     0.226824      -0.002884
     12 C                    -0.059711      -0.088606
     13 C                     0.255418       0.000217
     14 C                     0.202027      -0.010328
     15 C                    -0.381710       0.054752
     16 H                     0.226182      -0.003130
     17 C                    -0.201897      -0.027003
     18 H                     0.229883       0.001323
     19 C                    -0.337777       0.032709
     20 H                     0.223001      -0.001935
     21 C                    -0.204817      -0.025633
     22 H                     0.230666       0.001291
     23 C                    -0.333100       0.027179
     24 H                     0.223123      -0.001622
     25 B                     0.595311       0.361008
     26 C                    -0.122217      -0.154907
     27 C                    -0.392068       0.060976
     28 H                     0.238016      -0.003058
     29 C                     0.121352      -0.076138
     30 C                     0.094060      -0.079288
     31 C                    -0.380609       0.057438
     32 H                     0.238204      -0.002855
     33 C                    -0.118083      -0.130492
     34 C                     0.199650      -0.011242
     35 C                    -0.371687       0.050374
     36 H                     0.226839      -0.002845
     37 C                    -0.060145      -0.087068
     38 C                     0.253445       0.000282
     39 C                     0.203199      -0.009808
     40 C                    -0.382725       0.053322
     41 H                     0.226092      -0.003049
     42 C                    -0.204808      -0.025236
     43 H                     0.230514       0.001271
     44 C                    -0.331940       0.026747
     45 H                     0.222950      -0.001596
     46 C                    -0.201778      -0.026287
     47 H                     0.229763       0.001290
     48 C                    -0.337332       0.031619
     49 H                     0.222993      -0.001868
     50 B                     0.593286       0.360052
     51 C                    -0.213196      -0.032295
     52 C                     0.073250       0.004020
     53 C                    -0.323346       0.002681
     54 H                     0.239073      -0.002605
     55 C                    -0.235015      -0.001423
     56 H                     0.216362       0.000169
     57 C                    -0.231881      -0.000333
     58 H                     0.214547       0.000120
     59 C                    -0.286457      -0.001873
     60 H                     0.207546       0.000134
     61 C                     0.131232       0.000057
     62 C                    -0.315431      -0.000327
     63 H                     0.206245       0.000009
     64 C                    -0.265912       0.000266
     65 H                     0.204628       0.000286
     66 C                     0.012739       0.003404
     67 C                    -0.745772      -0.000308
     68 H                     0.228750       0.001754
     69 H                     0.243640      -0.000918
     70 H                     0.243352      -0.000931
     71 C                    -0.217118      -0.032566
     72 C                     0.011580       0.003683
     73 C                    -0.265560       0.000003
     74 H                     0.204963       0.000293
     75 C                    -0.315414       0.000042
     76 H                     0.206446      -0.000012
     77 C                     0.133519      -0.000159
     78 C                    -0.285819      -0.001185
     79 H                     0.207586       0.000093
     80 C                    -0.232281      -0.000343
     81 H                     0.214577       0.000108
     82 C                    -0.234829      -0.001085
     83 H                     0.216418       0.000146
     84 C                    -0.323574       0.002693
     85 H                     0.238334      -0.002362
     86 C                     0.073352       0.004209
     87 C                    -0.745373      -0.000225
     88 H                     0.228890       0.001694
     89 H                     0.242836      -0.000706
     90 H                     0.244184      -0.001070
  --------------------------------------------------------
  Sum of atomic charges =    -0.000000

                    Cartesian Multipole Moments
 -----------------------------------------------------------------
    Charge (ESU x 10^10)
                -0.0000
    Dipole Moment (Debye)
         X      -0.1160      Y       0.0138      Z      -0.0413
       Tot       0.1239
    Quadrupole Moments (Debye-Ang)
        XX    -281.6241     XY       3.2549     YY    -318.0390
        XZ     -14.5389     YZ       1.4457     ZZ    -261.7362

 Total job time:  29037.49s(wall), 85677.95s(cpu)
        *  Thank you very much for using Q-Chem.  Have a nice day.  *
