 Q-Chem 5.0, Q-Chem, Inc., Pleasanton, CA (2017)
 Q-Chem 5.0.1 for Intel X86 EM64T Linux

User input:
--------------------------------------------------------------
$rem
threads 8
jobtype	sp
method PBEh-3c
basis def2-mSVP
mem_static	1024
mem_total	8000
sym_ignore	true
unrestricted true
scf_convergence	9
solvent_method	pcm
$end

$molecule
read incoords.mol
$end

$solvent
dielectric	2.38
$end

$pcm
theory iefpcm
$end
--------------------------------------------------------------

   17   -2123.3843778090      3.97E-10 Convergence criterion met
 Total energy in the final basis set = -2123.38437781
 Total job time:  1803.54s(wall), 5498.59s(cpu)
        *  Thank you very much for using Q-Chem.  Have a nice day.  *
 Q-Chem 5.0, Q-Chem, Inc., Pleasanton, CA (2017)
 Q-Chem 5.0.1 for Intel X86 EM64T Linux

User input:
--------------------------------------------------------------

$rem
threads 8
jobtype opt
method PBEh-3c
basis def2-mSVP
scf_guess	read
mem_static      1024
mem_total       8000
sym_ignore      true
unrestricted true
mom_start       1
scf_algorithm	diis
scf_max_cycles	250
solvent_method	pcm
geom_opt_tol_energy 25
geom_opt_tol_gradient 75
$end

$solvent
dielectric      2.38
$end

$pcm
theory iefpcm
$end

$occupied
1 2 3 4 5 6 7 8 9 10 11 12 13 14 15 16 17 18 19 20 21 22 23 24 25 26 27 28 29 30 31 32 33 34 35 36 37 38 39 40 41 42 43 44 45 46 47 48 49 50 51 52 53 54 55 56 57 58 59 60 61 62 63 64 65 66 67 68 69 70 71 72 73 74 75 76 77 78 79 80 81 82 83 84 85 86 87 88 89 90 91 92 93 94 95 96 97 98 99 100 101 102 103 104 105 106 107 108 109 110 111 112 113 114 115 116 117 118 119 120 121 122 123 124 125 126 127 128 129 130 131 132 133 134 135 136 137 138 139 140 141 142 143 144 145 146 147 148 149 150 151 152 153 154 155 156 157 158 159 160 161 162 163 164 165 166 167 168 169 170 171 172 173 174 175 176 177 178 179 180 181 182 183  185
1 2 3 4 5 6 7 8 9 10 11 12 13 14 15 16 17 18 19 20 21 22 23 24 25 26 27 28 29 30 31 32 33 34 35 36 37 38 39 40 41 42 43 44 45 46 47 48 49 50 51 52 53 54 55 56 57 58 59 60 61 62 63 64 65 66 67 68 69 70 71 72 73 74 75 76 77 78 79 80 81 82 83 84 85 86 87 88 89 90 91 92 93 94 95 96 97 98 99 100 101 102 103 104 105 106 107 108 109 110 111 112 113 114 115 116 117 118 119 120 121 122 123 124 125 126 127 128 129 130 131 132 133 134 135 136 137 138 139 140 141 142 143 144 145 146 147 148 149 150 151 152 153 154 155 156 157 158 159 160 161 162 163 164 165 166 167 168 169 170 171 172 173 174 175 176 177 178 179 180 181 182 183 184
$end

$molecule
read
$end

--------------------------------------------------------------

   21   -2123.2997881380      7.62E-09 Convergence criterion met
 Total energy in the final basis set = -2123.29978814
   17   -2123.3000398796      7.12E-09 Convergence criterion met
 Total energy in the final basis set = -2123.30003988
   16   -2123.3000808452      9.66E-09 Convergence criterion met
 Total energy in the final basis set = -2123.30008085
   16   -2123.3001127064      9.70E-09 Convergence criterion met
 Total energy in the final basis set = -2123.30011271
   16   -2123.3001306895      9.59E-09 Convergence criterion met
 Total energy in the final basis set = -2123.30013069
   16   -2123.3001655529      9.62E-09 Convergence criterion met
 Total energy in the final basis set = -2123.30016555
   16   -2123.3001938197      9.60E-09 Convergence criterion met
 Total energy in the final basis set = -2123.30019382
   16   -2123.3001913210      9.57E-09 Convergence criterion met
 Total energy in the final basis set = -2123.30019132
   16   -2123.3001761825      9.58E-09 Convergence criterion met
 Total energy in the final basis set = -2123.30017618
   16   -2123.3001754252      9.57E-09 Convergence criterion met
 Total energy in the final basis set = -2123.30017543
   16   -2123.3001764641      9.81E-09 Convergence criterion met
 Total energy in the final basis set = -2123.30017646

             Standard Nuclear Orientation (Angstroms)
    I     Atom           X                Y                Z
 ----------------------------------------------------------------
    1      C      -0.0307252909     0.0744257479     0.0826884254
    2      C      -0.0365199910     0.0422063428     1.4989808197
    3      H       0.9028005392     0.0311613857     2.0449980423
    4      C      -1.2211472091     0.0177968692     2.1933675019
    5      C      -2.4567247702     0.0253204901     1.4811761297
    6      C      -2.4733171116     0.0511984897     0.1083103003
    7      H      -3.4196212370     0.0531815644    -0.4229279747
    8      C      -1.2742633558     0.0764317387    -0.6240794128
    9      C      -3.5453536112    -0.0015756275     2.4469626669
   10      C      -4.9153696472    -0.0046148963     2.3611671325
   11      H      -5.4274791032     0.0169026190     1.4069510511
   12      C      -2.9446531945    -0.0271121686     3.7204215960
   13      C      -3.6596905228    -0.0573808240     4.9139884040
   14      C      -1.5376564739    -0.0173741746     3.6241603028
   15      C      -0.8138696469    -0.0404906983     4.7886321014
   16      H       0.2691172249    -0.0351702777     4.7886864937
   17      C      -1.5110856147    -0.0722491528     6.0197987756
   18      H      -0.9356526755    -0.0903752732     6.9365349524
   19      C      -2.8851843263    -0.0805970728     6.0979477196
   20      H      -3.3720494956    -0.1046662019     7.0652592872
   21      C      -5.6653853051    -0.0344202907     3.5587725603
   22      H      -6.7460826561    -0.0361232091     3.4920533789
   23      C      -5.0726495400    -0.0607170019     4.8006810898
   24      H      -5.6880721451    -0.0831945328     5.6917949312
   25      B       1.2660241848     0.1136260019    -0.7208553578
   26      C       1.2696198234     0.1294854432    -2.2462244193
   27      C       2.4732697828     0.1447835044    -2.9940628299
   28      H       3.4312586140     0.1387569484    -2.4818705903
   29      C       2.4429812016     0.1596570009    -4.3665805612
   30      C       1.1878074477     0.1630127129    -5.0436322118
   31      C       0.0106004390     0.1475949310    -4.3389936336
   32      H      -0.9365060117     0.1484245728    -4.8686057441
   33      C       0.0167214112     0.1299278325    -2.9343729546
   34      C       1.4366986865     0.1785563530    -6.4781613923
   35      C       0.6453703590     0.1888502702    -7.6003568944
   36      H      -0.4358599658     0.1889244105    -7.5363334439
   37      C       2.8358344824     0.1820578432    -6.6364487981
   38      C       3.4757429300     0.1939592712    -7.8738899967
   39      C       3.4953586058     0.1710791090    -5.3900536510
   40      C       4.8673724730     0.1717265790    -5.3914387092
   41      H       5.4399350341     0.1632452121    -4.4722700595
   42      C       1.2704209340     0.2015084967    -8.8685302259
   43      H       0.6453696050     0.2100056820    -9.7526805973
   44      C       2.6383368267     0.2037283756    -9.0173271231
   45      H       3.0747052150     0.2132264674   -10.0088302151
   46      C       5.5473717723     0.1833844431    -6.6327703412
   47      H       6.6299284455     0.1838013442    -6.6264930282
   48      C       4.8898949410     0.1943436307    -7.8416047505
   49      H       5.4544618141     0.2032692657    -8.7661993120
   50      B      -1.3081743145     0.0983114215    -2.1593318716
   51      C       2.6409093798     0.1633350734     0.0427714091
   52      C       3.3412683108    -1.0233557012     0.3807520202
   53      C       2.8308636597    -2.2789696071     0.0161489580
   54      H       1.8971487451    -2.3344278535    -0.5301970036
   55      C       3.5108389581    -3.4440568251     0.3468253027
   56      H       3.1038268077    -4.4027504997     0.0563200172
   57      C       4.7057759569    -3.3782026153     1.0483991209
   58      H       5.2321580216    -4.2869229348     1.3070759427
   59      C       5.2323861902    -2.1461776438     1.4220786998
   60      H       6.1654813618    -2.1011287762     1.9699769363
   61      C       4.5645563827    -0.9655832515     1.0945100509
   62      C       5.0750335081     0.3033125020     1.4572458150
   63      H       6.0084195962     0.3587628722     2.0041060390
   64      C       4.4041238466     1.4661054692     1.1201910566
   65      H       4.8214956304     2.4222960309     1.4077682357
   66      C       3.2057705518     1.4235618968     0.4181090354
   67      C       2.4885751228     2.6736641521     0.0475356185
   68      H       3.0245826386     3.5638282841     0.3705208295
   69      H       2.3414032943     2.7234357423    -1.0336329716
   70      H       1.4891311046     2.6861396519     0.4884519864
   71      C      -2.6814516885     0.0632240321    -2.9481987572
   72      C      -3.2410427207    -1.1441950441    -3.3221317752
   73      C      -4.4474992440    -1.1725860675    -4.0573743195
   74      H      -4.8664463639    -2.1315790403    -4.3408715307
   75      C      -5.0900297716    -0.0230265728    -4.4187672290
   76      H      -6.0137110653    -0.0638806967    -4.9844330411
   77      C      -4.5559344720     1.2311704630    -4.0577787444
   78      C      -5.1927383031     2.4418657450    -4.4158699037
   79      H      -6.1163807643     2.3982179689    -4.9817846235
   80      C      -4.6585948734     3.6474592533    -4.0575158898
   81      H      -5.1539940258     4.5683760299    -4.3372100616
   82      C      -3.4580979733     3.6927307025    -3.3205081859
   83      H      -3.0386617885     4.6496944272    -3.0378096462
   84      C      -2.8228259182     2.5361237489    -2.9623128824
   85      H      -1.8999982882     2.5844594538    -2.3961006802
   86      C      -3.3459064418     1.2675644885    -3.3161564264
   87      C      -2.5704966259    -2.4424054353    -2.9661403895
   88      H      -3.1592781637    -3.3016227128    -3.2885321411
   89      H      -1.5867686011    -2.5222611633    -3.4338864749
   90      H      -2.4176220201    -2.5308754832    -1.8889093687
 ----------------------------------------------------------------

   17   -2123.3001772248      7.12E-09 Convergence criterion met
 Total energy in the final basis set = -2123.30017722
 Final energy is   -2123.30017722481
 **  OPTIMIZATION CONVERGED  **

                    Orbital Energies (a.u.)
 --------------------------------------------------------------

 Alpha MOs
 -- Occupied --
-10.515 -10.514 -10.504 -10.503 -10.499 -10.498 -10.497 -10.497
-10.493 -10.492 -10.452 -10.452 -10.451 -10.451 -10.450 -10.450
-10.449 -10.448 -10.448 -10.448 -10.448 -10.446 -10.446 -10.446
-10.446 -10.445 -10.445 -10.445 -10.445 -10.443 -10.443 -10.440
-10.440 -10.440 -10.439 -10.437 -10.437 -10.437 -10.434 -10.434
-10.434 -10.433 -10.432 -10.431 -10.431 -10.431 -10.430 -10.430
-10.417 -10.417 -10.414 -10.411 -10.408 -10.408  -6.910  -6.902
 -1.026  -1.000  -1.000  -0.970  -0.962  -0.943  -0.941  -0.919
 -0.919  -0.914  -0.909  -0.895  -0.889  -0.881  -0.856  -0.854
 -0.838  -0.838  -0.833  -0.833  -0.833  -0.806  -0.802  -0.797
 -0.796  -0.794  -0.785  -0.751  -0.748  -0.723  -0.718  -0.712
 -0.712  -0.709  -0.704  -0.685  -0.674  -0.669  -0.664  -0.657
 -0.649  -0.648  -0.631  -0.629  -0.623  -0.613  -0.594  -0.582
 -0.578  -0.578  -0.575  -0.568  -0.562  -0.560  -0.559  -0.552
 -0.549  -0.541  -0.535  -0.528  -0.528  -0.518  -0.513  -0.512
 -0.503  -0.501  -0.493  -0.492  -0.490  -0.486  -0.484  -0.479
 -0.476  -0.476  -0.474  -0.474  -0.471  -0.470  -0.469  -0.467
 -0.465  -0.462  -0.457  -0.455  -0.452  -0.451  -0.441  -0.439
 -0.430  -0.429  -0.428  -0.426  -0.423  -0.418  -0.415  -0.412
 -0.409  -0.401  -0.399  -0.390  -0.384  -0.383  -0.383  -0.381
 -0.378  -0.375  -0.372  -0.361  -0.357  -0.357  -0.354  -0.348
 -0.335  -0.328  -0.326  -0.322  -0.309  -0.306  -0.301  -0.286
 -0.284  -0.271  -0.265  -0.254  -0.243  -0.240  -0.232  -0.155

 Beta MOs
 -- Occupied --
-10.519 -10.518 -10.506 -10.502 -10.502 -10.501 -10.498 -10.496
-10.493 -10.492 -10.452 -10.452 -10.451 -10.450 -10.450 -10.449
-10.449 -10.448 -10.448 -10.447 -10.447 -10.446 -10.446 -10.446
-10.446 -10.445 -10.445 -10.445 -10.445 -10.443 -10.443 -10.440
-10.440 -10.440 -10.439 -10.437 -10.436 -10.436 -10.434 -10.434
-10.434 -10.433 -10.432 -10.432 -10.431 -10.431 -10.430 -10.430
-10.417 -10.417 -10.414 -10.411 -10.407 -10.407  -6.906  -6.900
 -1.031  -0.999  -0.999  -0.978  -0.962  -0.942  -0.940  -0.924
 -0.919  -0.918  -0.909  -0.896  -0.889  -0.881  -0.863  -0.855
 -0.837  -0.837  -0.832  -0.832  -0.832  -0.807  -0.803  -0.798
 -0.795  -0.794  -0.784  -0.751  -0.751  -0.724  -0.717  -0.717
 -0.711  -0.710  -0.704  -0.685  -0.673  -0.667  -0.664  -0.657
 -0.647  -0.647  -0.631  -0.629  -0.625  -0.616  -0.597  -0.580
 -0.577  -0.576  -0.574  -0.568  -0.562  -0.559  -0.558  -0.552
 -0.550  -0.542  -0.535  -0.530  -0.529  -0.518  -0.516  -0.511
 -0.510  -0.503  -0.492  -0.491  -0.490  -0.486  -0.485  -0.484
 -0.479  -0.476  -0.475  -0.474  -0.469  -0.469  -0.468  -0.467
 -0.464  -0.462  -0.457  -0.455  -0.452  -0.451  -0.441  -0.438
 -0.431  -0.431  -0.429  -0.425  -0.423  -0.421  -0.416  -0.413
 -0.411  -0.405  -0.400  -0.390  -0.387  -0.383  -0.381  -0.381
 -0.380  -0.377  -0.371  -0.371  -0.358  -0.357  -0.353  -0.350
 -0.334  -0.330  -0.326  -0.321  -0.307  -0.302  -0.300  -0.296
 -0.282  -0.281  -0.265  -0.261  -0.246  -0.240  -0.234  -0.231

          Ground-State Mulliken Net Atomic Charges

     Atom                 Charge (a.u.)    Spin (a.u.)
  --------------------------------------------------------
      1 C                    -0.132115      -0.038044
      2 C                    -0.413090       0.014681
      3 H                     0.194938      -0.001164
      4 C                     0.092423       0.011296
      5 C                     0.068063       0.110914
      6 C                    -0.396458      -0.069643
      7 H                     0.228475       0.002877
      8 C                    -0.147190       0.076703
      9 C                     0.186009      -0.061577
     10 C                    -0.394174       0.087394
     11 H                     0.232303      -0.005111
     12 C                    -0.073507       0.022252
     13 C                     0.238558      -0.035206
     14 C                     0.188392      -0.036352
     15 C                    -0.404962       0.056482
     16 H                     0.217265      -0.003348
     17 C                    -0.216774      -0.039504
     18 H                     0.231025       0.001983
     19 C                    -0.354877       0.052567
     20 H                     0.229197      -0.003045
     21 C                    -0.218550      -0.053243
     22 H                     0.235003       0.002568
     23 C                    -0.352240       0.078766
     24 H                     0.228059      -0.004677
     25 B                     0.538128       0.402255
     26 C                    -0.136282      -0.040313
     27 C                    -0.413516       0.015272
     28 H                     0.195680      -0.001263
     29 C                     0.092076       0.010577
     30 C                     0.066691       0.111056
     31 C                    -0.393537      -0.070287
     32 H                     0.229730       0.002878
     33 C                    -0.144739       0.077718
     34 C                     0.187317      -0.061374
     35 C                    -0.394396       0.087012
     36 H                     0.232371      -0.005090
     37 C                    -0.073920       0.022148
     38 C                     0.236709      -0.034965
     39 C                     0.189427      -0.035970
     40 C                    -0.405964       0.055885
     41 H                     0.217436      -0.003313
     42 C                    -0.218618      -0.052889
     43 H                     0.235006       0.002551
     44 C                    -0.351150       0.078074
     45 H                     0.228152      -0.004634
     46 C                    -0.216566      -0.039095
     47 H                     0.231033       0.001963
     48 C                    -0.354275       0.051869
     49 H                     0.229359      -0.003002
     50 B                     0.594889       0.265763
     51 C                    -0.122643      -0.352872
     52 C                     0.076838       0.104652
     53 C                    -0.291634      -0.188779
     54 H                     0.307571       0.008515
     55 C                    -0.222531      -0.021931
     56 H                     0.277195       0.002521
     57 C                    -0.213511      -0.042330
     58 H                     0.273863       0.003441
     59 C                    -0.273906      -0.167754
     60 H                     0.266096       0.009030
     61 C                     0.152705       0.089211
     62 C                    -0.273707      -0.369315
     63 H                     0.272821       0.020153
     64 C                    -0.261399       0.136832
     65 H                     0.265957      -0.004563
     66 C                     0.052080      -0.202520
     67 C                    -0.755724       0.017339
     68 H                     0.254532       0.002762
     69 H                     0.287167      -0.013332
     70 H                     0.287794      -0.014021
     71 C                    -0.204227      -0.023633
     72 C                     0.004696       0.001936
     73 C                    -0.278784       0.000077
     74 H                     0.215714       0.000237
     75 C                    -0.329762      -0.000119
     76 H                     0.218530       0.000003
     77 C                     0.119788      -0.000114
     78 C                    -0.298643      -0.000002
     79 H                     0.220602       0.000021
     80 C                    -0.248094       0.000031
     81 H                     0.226095       0.000059
     82 C                    -0.249959      -0.000636
     83 H                     0.226811       0.000095
     84 C                    -0.331259       0.003669
     85 H                     0.247950      -0.001756
     86 C                     0.065117       0.002218
     87 C                    -0.755324       0.000504
     88 H                     0.231923       0.001478
     89 H                     0.245579      -0.000668
     90 H                     0.246870      -0.000833
  --------------------------------------------------------
  Sum of atomic charges =    -0.000000

                    Cartesian Multipole Moments
 -----------------------------------------------------------------
    Charge (ESU x 10^10)
                -0.0000
    Dipole Moment (Debye)
         X      13.4242      Y      -2.8636      Z       7.3598
       Tot      15.5749
    Quadrupole Moments (Debye-Ang)
        XX    -245.1518     XY      -7.7097     YY    -299.8341
        XZ      26.6136     YZ       1.5118     ZZ    -321.6002

 Total job time:  23462.40s(wall), 70978.32s(cpu)
        *  Thank you very much for using Q-Chem.  Have a nice day.  *
