 Q-Chem 5.0, Q-Chem, Inc., Pleasanton, CA (2017)
 Q-Chem 5.0.1 for Intel X86 EM64T Linux

User input:
--------------------------------------------------------------
$rem
threads 8
jobtype	sp
method PBEh-3c
basis def2-mSVP
mem_static	1024
mem_total	8000
sym_ignore	true
unrestricted true
scf_convergence	9
solvent_method	pcm
$end

$molecule
read incoords.mol
$end

$solvent
dielectric	8.93
$end

$pcm
theory iefpcm
$end
--------------------------------------------------------------

   16   -2123.3970809810      8.90E-10 Convergence criterion met
 Total energy in the final basis set = -2123.39708098
 Total job time:  1935.58s(wall), 5861.65s(cpu)
        *  Thank you very much for using Q-Chem.  Have a nice day.  *
 Q-Chem 5.0, Q-Chem, Inc., Pleasanton, CA (2017)
 Q-Chem 5.0.1 for Intel X86 EM64T Linux

User input:
--------------------------------------------------------------

$rem
threads 8
jobtype opt
method PBEh-3c
basis def2-mSVP
scf_guess	read
mem_static      1024
mem_total       8000
sym_ignore      true
unrestricted true
mom_start       1
scf_algorithm	diis
scf_max_cycles	250
solvent_method	pcm
geom_opt_tol_energy 25
geom_opt_tol_gradient 75
$end

$solvent
dielectric      8.93
$end
$pcm
theory iefpcm
$end

$occupied
1 2 3 4 5 6 7 8 9 10 11 12 13 14 15 16 17 18 19 20 21 22 23 24 25 26 27 28 29 30 31 32 33 34 35 36 37 38 39 40 41 42 43 44 45 46 47 48 49 50 51 52 53 54 55 56 57 58 59 60 61 62 63 64 65 66 67 68 69 70 71 72 73 74 75 76 77 78 79 80 81 82 83 84 85 86 87 88 89 90 91 92 93 94 95 96 97 98 99 100 101 102 103 104 105 106 107 108 109 110 111 112 113 114 115 116 117 118 119 120 121 122 123 124 125 126 127 128 129 130 131 132 133 134 135 136 137 138 139 140 141 142 143 144 145 146 147 148 149 150 151 152 153 154 155 156 157 158 159 160 161 162 163 164 165 166 167 168 169 170 171 172 173 174 175 176 177 178 179 180 181 182 183  185
1 2 3 4 5 6 7 8 9 10 11 12 13 14 15 16 17 18 19 20 21 22 23 24 25 26 27 28 29 30 31 32 33 34 35 36 37 38 39 40 41 42 43 44 45 46 47 48 49 50 51 52 53 54 55 56 57 58 59 60 61 62 63 64 65 66 67 68 69 70 71 72 73 74 75 76 77 78 79 80 81 82 83 84 85 86 87 88 89 90 91 92 93 94 95 96 97 98 99 100 101 102 103 104 105 106 107 108 109 110 111 112 113 114 115 116 117 118 119 120 121 122 123 124 125 126 127 128 129 130 131 132 133 134 135 136 137 138 139 140 141 142 143 144 145 146 147 148 149 150 151 152 153 154 155 156 157 158 159 160 161 162 163 164 165 166 167 168 169 170 171 172 173 174 175 176 177 178 179 180 181 182 183 184
$end

$molecule
read
$end

--------------------------------------------------------------

   21   -2123.3196477282      8.10E-09 Convergence criterion met
 Total energy in the final basis set = -2123.31964773
   18   -2123.3201457026      8.13E-09 Convergence criterion met
 Total energy in the final basis set = -2123.32014570
   19   -2123.3202204243      8.49E-09 Convergence criterion met
 Total energy in the final basis set = -2123.32022042
   19   -2123.3202377060      8.68E-09 Convergence criterion met
 Total energy in the final basis set = -2123.32023771
   19   -2123.3202502135      9.11E-09 Convergence criterion met
 Total energy in the final basis set = -2123.32025021
   19   -2123.3202701724      8.79E-09 Convergence criterion met
 Total energy in the final basis set = -2123.32027017
   19   -2123.3202996347      8.32E-09 Convergence criterion met
 Total energy in the final basis set = -2123.32029963
   19   -2123.3203018401      9.17E-09 Convergence criterion met
 Total energy in the final basis set = -2123.32030184
   19   -2123.3202878075      8.56E-09 Convergence criterion met
 Total energy in the final basis set = -2123.32028781
   19   -2123.3202921927      9.42E-09 Convergence criterion met
 Total energy in the final basis set = -2123.32029219
   19   -2123.3202925895      9.72E-09 Convergence criterion met
 Total energy in the final basis set = -2123.32029259

             Standard Nuclear Orientation (Angstroms)
    I     Atom           X                Y                Z
 ----------------------------------------------------------------
    1      C      -0.0300355144     0.0802467064     0.0791620291
    2      C      -0.0347853079     0.0596078995     1.4954449689
    3      H       0.9044370137     0.0643460674     2.0409748607
    4      C      -1.2195814837     0.0313101121     2.1912143103
    5      C      -2.4567160721     0.0201671602     1.4797548081
    6      C      -2.4743549242     0.0362435169     0.1066702904
    7      H      -3.4223758218     0.0247897576    -0.4218203595
    8      C      -1.2750114921     0.0676469049    -0.6274607695
    9      C      -3.5446851817    -0.0086954614     2.4473310688
   10      C      -4.9154287948    -0.0277525889     2.3633390788
   11      H      -5.4297551836    -0.0234367977     1.4099034030
   12      C      -2.9414030742    -0.0141828192     3.7202848514
   13      C      -3.6548440286    -0.0381544576     4.9156756265
   14      C      -1.5341414077     0.0088713929     3.6224391313
   15      C      -0.8078332509     0.0070400918     4.7864618212
   16      H       0.2750155843     0.0240054798     4.7849550700
   17      C      -1.5040990267    -0.0175202327     6.0190690975
   18      H      -0.9270051931    -0.0186239780     6.9349156917
   19      C      -2.8786364988    -0.0394597258     6.0995813090
   20      H      -3.3644145177    -0.0573839353     7.0675774704
   21      C      -5.6635801468    -0.0521982229     3.5629175180
   22      H      -6.7443190826    -0.0666938499     3.4979216316
   23      C      -5.0683422772    -0.0576276434     4.8047748511
   24      H      -5.6818404390    -0.0763698487     5.6973487713
   25      B       1.2707270911     0.1209910599    -0.7212054807
   26      C       1.2682211572     0.1353557555    -2.2481873273
   27      C       2.4717870787     0.1611966986    -2.9952960530
   28      H       3.4290854969     0.1684977573    -2.4825420506
   29      C       2.4420739248     0.1738301221    -4.3687769992
   30      C       1.1866262562     0.1611636253    -5.0473858971
   31      C       0.0092090482     0.1354145797    -4.3433196454
   32      H      -0.9364893895     0.1243342974    -4.8757489910
   33      C       0.0146263202     0.1219361048    -2.9373676893
   34      C       1.4366218178     0.1775046764    -6.4824617314
   35      C       0.6460625397     0.1766322268    -7.6061381674
   36      H      -0.4353457052     0.1617594727    -7.5441788020
   37      C       2.8362422603     0.1991108545    -6.6385123406
   38      C       3.4776950875     0.2195520958    -7.8757361228
   39      C       3.4950445089     0.1981325621    -5.3910710723
   40      C       4.8676439179     0.2185751910    -5.3903014720
   41      H       5.4391436444     0.2194844165    -4.4704528941
   42      C       1.2729127592     0.1971337557    -8.8739773227
   43      H       0.6490150423     0.1966562368    -9.7590219026
   44      C       2.6416635504     0.2178714502    -9.0208282879
   45      H       3.0797156925     0.2331639150   -10.0115510033
   46      C       5.5485391502     0.2391281437    -6.6317735330
   47      H       6.6309434638     0.2550679567    -6.6238201787
   48      C       4.8923646351     0.2399852105    -7.8422001844
   49      H       5.4574777355     0.2566067951    -8.7663693483
   50      B      -1.3097772736     0.0841728865    -2.1624486579
   51      C       2.6484441209     0.1558377181     0.0445169199
   52      C       3.3319323554    -1.0389453542     0.3840343031
   53      C       2.8105344457    -2.2916152358     0.0221297451
   54      H       1.8778150608    -2.3450358357    -0.5259621012
   55      C       3.4777636794    -3.4639019062     0.3568305364
   56      H       3.0608532679    -4.4187468610     0.0675347859
   57      C       4.6717888564    -3.4095868213     1.0600359771
   58      H       5.1886530998    -4.3227328779     1.3219683202
   59      C       5.2106956122    -2.1806115905     1.4316305998
   60      H       6.1433293792    -2.1424879691     1.9806645845
   61      C       4.5552898092    -0.9939729730     1.0999977567
   62      C       5.0814292505     0.2671021831     1.4621711309
   63      H       6.0144383263     0.3116877660     2.0104070247
   64      C       4.4237828234     1.4385968090     1.1219382856
   65      H       4.8523110118     2.3898132342     1.4092849699
   66      C       3.2271709745     1.4082630648     0.4192683812
   67      C       2.5266850130     2.6685839272     0.0476121656
   68      H       3.0723925783     3.5499057703     0.3778967458
   69      H       2.3906949401     2.7261110245    -1.0346360725
   70      H       1.5254176731     2.6940766896     0.4836800126
   71      C      -2.6843166714     0.0482403472    -2.9509825741
   72      C      -3.2464581216    -1.1580487580    -3.3264187000
   73      C      -4.4544770876    -1.1843624685    -4.0606664558
   74      H      -4.8747904145    -2.1425865943    -4.3448380806
   75      C      -5.0965891851    -0.0333521675    -4.4203061024
   76      H      -6.0209529301    -0.0720440171    -4.9850669655
   77      C      -4.5597955096     1.2200332969    -4.0580165585
   78      C      -5.1965204946     2.4320087022    -4.4148290880
   79      H      -6.1207944436     2.3891026529    -4.9798565602
   80      C      -4.6607087752     3.6374957797    -4.0560377713
   81      H      -5.1553975364     4.5592072483    -4.3345045480
   82      C      -3.4587754420     3.6810699973    -3.3199058975
   83      H      -3.0381789824     4.6375518014    -3.0368962874
   84      C      -2.8240693744     2.5228996692    -2.9630107059
   85      H      -1.9005672016     2.5717089125    -2.3975264948
   86      C      -3.3484156724     1.2541071086    -3.3172533629
   87      C      -2.5787344012    -2.4588085299    -2.9739660271
   88      H      -3.1698138279    -3.3155872195    -3.2981410304
   89      H      -1.5953939414    -2.5404579447    -3.4423161765
   90      H      -2.4245864224    -2.5508209210    -1.8971554700
 ----------------------------------------------------------------

   19   -2123.3202923843      9.71E-09 Convergence criterion met
 Total energy in the final basis set = -2123.32029238
 Final energy is   -2123.32029238432
 **  OPTIMIZATION CONVERGED  **

                    Orbital Energies (a.u.)
 --------------------------------------------------------------

 Alpha MOs
 -- Occupied --
-10.508 -10.504 -10.495 -10.493 -10.493 -10.491 -10.490 -10.488
-10.484 -10.484 -10.458 -10.458 -10.456 -10.456 -10.455 -10.455
-10.453 -10.453 -10.453 -10.453 -10.452 -10.452 -10.452 -10.452
-10.452 -10.452 -10.451 -10.451 -10.450 -10.450 -10.449 -10.449
-10.446 -10.446 -10.446 -10.445 -10.445 -10.444 -10.443 -10.442
-10.441 -10.441 -10.441 -10.440 -10.439 -10.439 -10.439 -10.438
-10.422 -10.422 -10.420 -10.420 -10.416 -10.415  -6.915  -6.909
 -1.018  -1.007  -1.006  -0.971  -0.962  -0.950  -0.948  -0.925
 -0.925  -0.918  -0.907  -0.895  -0.888  -0.887  -0.863  -0.848
 -0.844  -0.843  -0.841  -0.839  -0.838  -0.812  -0.807  -0.802
 -0.802  -0.792  -0.792  -0.759  -0.739  -0.725  -0.722  -0.718
 -0.710  -0.707  -0.704  -0.693  -0.680  -0.675  -0.670  -0.665
 -0.655  -0.655  -0.636  -0.635  -0.615  -0.605  -0.587  -0.586
 -0.583  -0.582  -0.578  -0.573  -0.569  -0.565  -0.565  -0.560
 -0.543  -0.540  -0.536  -0.533  -0.520  -0.519  -0.517  -0.515
 -0.504  -0.499  -0.498  -0.496  -0.493  -0.492  -0.485  -0.481
 -0.481  -0.479  -0.478  -0.478  -0.476  -0.474  -0.471  -0.470
 -0.469  -0.464  -0.463  -0.457  -0.456  -0.448  -0.446  -0.439
 -0.438  -0.433  -0.432  -0.430  -0.426  -0.422  -0.420  -0.416
 -0.416  -0.406  -0.397  -0.390  -0.390  -0.390  -0.389  -0.386
 -0.383  -0.380  -0.380  -0.367  -0.366  -0.364  -0.358  -0.347
 -0.342  -0.330  -0.329  -0.319  -0.317  -0.314  -0.309  -0.293
 -0.291  -0.279  -0.274  -0.261  -0.250  -0.248  -0.241  -0.161

 Beta MOs
 -- Occupied --
-10.510 -10.509 -10.497 -10.496 -10.495 -10.492 -10.489 -10.489
-10.484 -10.482 -10.459 -10.459 -10.457 -10.457 -10.454 -10.454
-10.453 -10.453 -10.453 -10.453 -10.452 -10.452 -10.452 -10.452
-10.451 -10.451 -10.450 -10.450 -10.450 -10.449 -10.449 -10.449
-10.446 -10.445 -10.445 -10.444 -10.444 -10.444 -10.443 -10.441
-10.441 -10.441 -10.441 -10.440 -10.440 -10.439 -10.439 -10.438
-10.423 -10.423 -10.421 -10.420 -10.415 -10.414  -6.912  -6.907
 -1.023  -1.006  -1.006  -0.971  -0.969  -0.949  -0.947  -0.924
 -0.924  -0.918  -0.916  -0.895  -0.888  -0.888  -0.863  -0.855
 -0.843  -0.843  -0.841  -0.838  -0.837  -0.810  -0.806  -0.802
 -0.801  -0.798  -0.790  -0.758  -0.742  -0.724  -0.721  -0.717
 -0.710  -0.710  -0.708  -0.693  -0.679  -0.673  -0.669  -0.665
 -0.653  -0.653  -0.636  -0.635  -0.617  -0.607  -0.589  -0.585
 -0.582  -0.581  -0.577  -0.573  -0.569  -0.564  -0.564  -0.559
 -0.543  -0.541  -0.537  -0.533  -0.521  -0.520  -0.518  -0.513
 -0.509  -0.504  -0.498  -0.497  -0.494  -0.491  -0.485  -0.482
 -0.481  -0.480  -0.478  -0.477  -0.476  -0.475  -0.474  -0.471
 -0.470  -0.464  -0.463  -0.456  -0.456  -0.449  -0.445  -0.439
 -0.438  -0.434  -0.432  -0.429  -0.424  -0.423  -0.418  -0.415
 -0.413  -0.413  -0.406  -0.396  -0.390  -0.388  -0.388  -0.385
 -0.384  -0.383  -0.379  -0.373  -0.366  -0.363  -0.358  -0.357
 -0.341  -0.336  -0.328  -0.318  -0.314  -0.310  -0.305  -0.294
 -0.289  -0.288  -0.274  -0.269  -0.253  -0.247  -0.242  -0.240

          Ground-State Mulliken Net Atomic Charges

     Atom                 Charge (a.u.)    Spin (a.u.)
  --------------------------------------------------------
      1 C                    -0.139205      -0.019079
      2 C                    -0.416824       0.001078
      3 H                     0.218185      -0.000376
      4 C                     0.079502       0.026528
      5 C                     0.057617       0.099296
      6 C                    -0.405740      -0.060849
      7 H                     0.231831       0.002366
      8 C                    -0.147114       0.066364
      9 C                     0.174775      -0.059377
     10 C                    -0.402027       0.085595
     11 H                     0.244737      -0.004972
     12 C                    -0.076315       0.022747
     13 C                     0.221134      -0.036223
     14 C                     0.176869      -0.040843
     15 C                    -0.410657       0.062477
     16 H                     0.239128      -0.003646
     17 C                    -0.231105      -0.042502
     18 H                     0.248761       0.002089
     19 C                    -0.361859       0.057638
     20 H                     0.246665      -0.003310
     21 C                    -0.232835      -0.052756
     22 H                     0.250343       0.002522
     23 C                    -0.359421       0.077570
     24 H                     0.245713      -0.004536
     25 B                     0.546157       0.384261
     26 C                    -0.142581      -0.020754
     27 C                    -0.417416       0.001554
     28 H                     0.218729      -0.000448
     29 C                     0.079332       0.025917
     30 C                     0.056313       0.099251
     31 C                    -0.402928      -0.061042
     32 H                     0.232815       0.002352
     33 C                    -0.144800       0.067026
     34 C                     0.176039      -0.059127
     35 C                    -0.402259       0.085229
     36 H                     0.244616      -0.004953
     37 C                    -0.076765       0.022634
     38 C                     0.219253      -0.036003
     39 C                     0.177934      -0.040465
     40 C                    -0.411662       0.061896
     41 H                     0.239218      -0.003613
     42 C                    -0.232915      -0.052418
     43 H                     0.250369       0.002505
     44 C                    -0.358299       0.076946
     45 H                     0.245817      -0.004497
     46 C                    -0.230916      -0.042107
     47 H                     0.248745       0.002070
     48 C                    -0.361262       0.056962
     49 H                     0.246877      -0.003268
     50 B                     0.569520       0.278081
     51 C                    -0.128898      -0.370480
     52 C                     0.082582       0.114704
     53 C                    -0.301573      -0.211657
     54 H                     0.305240       0.009616
     55 C                    -0.226405      -0.007453
     56 H                     0.288513       0.001836
     57 C                    -0.220226      -0.055903
     58 H                     0.288563       0.004119
     59 C                    -0.270833      -0.173663
     60 H                     0.285894       0.009146
     61 C                     0.139173       0.088844
     62 C                    -0.270811      -0.361084
     63 H                     0.292559       0.019295
     64 C                    -0.265260       0.113421
     65 H                     0.281116      -0.003436
     66 C                     0.055126      -0.169278
     67 C                    -0.760150       0.014518
     68 H                     0.267259       0.002599
     69 H                     0.279932      -0.011577
     70 H                     0.280572      -0.012081
     71 C                    -0.198456      -0.024196
     72 C                    -0.002605       0.002342
     73 C                    -0.290443      -0.000149
     74 H                     0.231941       0.000257
     75 C                    -0.339518       0.000350
     76 H                     0.235893      -0.000024
     77 C                     0.104297      -0.000297
     78 C                    -0.308262       0.000192
     79 H                     0.238317       0.000010
     80 C                    -0.262060      -0.000071
     81 H                     0.242390       0.000065
     82 C                    -0.261582      -0.000510
     83 H                     0.242709       0.000091
     84 C                    -0.344861       0.003805
     85 H                     0.256350      -0.001845
     86 C                     0.056219       0.002229
     87 C                    -0.758365       0.000467
     88 H                     0.242401       0.001507
     89 H                     0.245172      -0.000664
     90 H                     0.246001      -0.000837
  --------------------------------------------------------
  Sum of atomic charges =    -0.000000

                    Cartesian Multipole Moments
 -----------------------------------------------------------------
    Charge (ESU x 10^10)
                -0.0000
    Dipole Moment (Debye)
         X      15.4580      Y      -3.3201      Z       8.5143
       Tot      17.9574
    Quadrupole Moments (Debye-Ang)
        XX    -231.6832     XY      -8.5086     YY    -297.0208
        XZ      28.0079     YZ       1.4200     ZZ    -316.2105

 Total job time:  28540.55s(wall), 85950.15s(cpu)
        *  Thank you very much for using Q-Chem.  Have a nice day.  *
