 Q-Chem 5.0, Q-Chem, Inc., Pleasanton, CA (2017)
 Q-Chem 5.0.1 for Intel X86 EM64T Linux

User input:
--------------------------------------------------------------
$rem
threads 8
jobtype	sp
method PBEh-3c
basis def2-mSVP
mem_static	1024
mem_total	8000
sym_ignore	true
unrestricted true
scf_convergence	9
solvent_method	pcm
$end

$molecule
read incoords.mol
$end

$solvent
dielectric	4.33
$end

$pcm
theory iefpcm
$end
--------------------------------------------------------------

   17   -2123.3913967885      3.91E-10 Convergence criterion met
 Total energy in the final basis set = -2123.39139679
 Total job time:  2133.44s(wall), 6353.95s(cpu)
        *  Thank you very much for using Q-Chem.  Have a nice day.  *
 Q-Chem 5.0, Q-Chem, Inc., Pleasanton, CA (2017)
 Q-Chem 5.0.1 for Intel X86 EM64T Linux

User input:
--------------------------------------------------------------

$rem
threads 8
jobtype opt
method PBEh-3c
basis def2-mSVP
scf_guess	read
mem_static      1024
mem_total       8000
sym_ignore      true
unrestricted true
mom_start       1
scf_algorithm	diis
scf_max_cycles	250
solvent_method	pcm
geom_opt_tol_energy 25
geom_opt_tol_gradient 75
$end

$solvent
dielectric      4.33
$end

$pcm
theory iefpcm
$end

$occupied
1 2 3 4 5 6 7 8 9 10 11 12 13 14 15 16 17 18 19 20 21 22 23 24 25 26 27 28 29 30 31 32 33 34 35 36 37 38 39 40 41 42 43 44 45 46 47 48 49 50 51 52 53 54 55 56 57 58 59 60 61 62 63 64 65 66 67 68 69 70 71 72 73 74 75 76 77 78 79 80 81 82 83 84 85 86 87 88 89 90 91 92 93 94 95 96 97 98 99 100 101 102 103 104 105 106 107 108 109 110 111 112 113 114 115 116 117 118 119 120 121 122 123 124 125 126 127 128 129 130 131 132 133 134 135 136 137 138 139 140 141 142 143 144 145 146 147 148 149 150 151 152 153 154 155 156 157 158 159 160 161 162 163 164 165 166 167 168 169 170 171 172 173 174 175 176 177 178 179 180 181 182 183  185
1 2 3 4 5 6 7 8 9 10 11 12 13 14 15 16 17 18 19 20 21 22 23 24 25 26 27 28 29 30 31 32 33 34 35 36 37 38 39 40 41 42 43 44 45 46 47 48 49 50 51 52 53 54 55 56 57 58 59 60 61 62 63 64 65 66 67 68 69 70 71 72 73 74 75 76 77 78 79 80 81 82 83 84 85 86 87 88 89 90 91 92 93 94 95 96 97 98 99 100 101 102 103 104 105 106 107 108 109 110 111 112 113 114 115 116 117 118 119 120 121 122 123 124 125 126 127 128 129 130 131 132 133 134 135 136 137 138 139 140 141 142 143 144 145 146 147 148 149 150 151 152 153 154 155 156 157 158 159 160 161 162 163 164 165 166 167 168 169 170 171 172 173 174 175 176 177 178 179 180 181 182 183 184
$end

$molecule
read
$end

--------------------------------------------------------------

   20   -2123.3107848644      9.76E-09 Convergence criterion met
 Total energy in the final basis set = -2123.31078486
   18   -2123.3111514757      9.37E-09 Convergence criterion met
 Total energy in the final basis set = -2123.31115148
   18   -2123.3112102490      8.04E-09 Convergence criterion met
 Total energy in the final basis set = -2123.31121025
   18   -2123.3112341682      7.94E-09 Convergence criterion met
 Total energy in the final basis set = -2123.31123417
   18   -2123.3112482759      7.97E-09 Convergence criterion met
 Total energy in the final basis set = -2123.31124828
   18   -2123.3112758791      7.78E-09 Convergence criterion met
 Total energy in the final basis set = -2123.31127588
   18   -2123.3113049439      7.80E-09 Convergence criterion met
 Total energy in the final basis set = -2123.31130494
   18   -2123.3113046897      7.99E-09 Convergence criterion met
 Total energy in the final basis set = -2123.31130469
   18   -2123.3112920605      7.73E-09 Convergence criterion met
 Total energy in the final basis set = -2123.31129206

             Standard Nuclear Orientation (Angstroms)
    I     Atom           X                Y                Z
 ----------------------------------------------------------------
    1      C      -0.0302774340     0.0778097255     0.0806217620
    2      C      -0.0355626740     0.0506133966     1.4968109097
    3      H       0.9037686986     0.0470256139     2.0425270277
    4      C      -1.2203100334     0.0242777297     2.1919656919
    5      C      -2.4567149433     0.0237842339     1.4801857116
    6      C      -2.4738451489     0.0452580274     0.1071969295
    7      H      -3.4211093218     0.0413443144    -0.4225433729
    8      C      -1.2746298550     0.0728272739    -0.6260557512
    9      C      -3.5450308061    -0.0041035283     2.4468031324
   10      C      -4.9154470950    -0.0140566161     2.3617420193
   11      H      -5.4286220767     0.0003141574     1.4078679753
   12      C      -2.9430635791    -0.0212960810     3.7200700866
   13      C      -3.6573786986    -0.0494063155     4.9144846923
   14      C      -1.5358760072    -0.0057026263     3.6230162905
   15      C      -0.8108054943    -0.0201505273     4.7873320140
   16      H       0.2721384282    -0.0098077086     4.7866676698
   17      C      -1.5076319618    -0.0494000017     6.0191904808
   18      H      -0.9313769101    -0.0606054601     6.9355232160
   19      C      -2.8820123760    -0.0636886989     6.0984990850
   20      H      -3.3682987121    -0.0855654967     7.0661639615
   21      C      -5.6646248964    -0.0420036047     3.5603243579
   22      H      -6.7453701975    -0.0492345975     3.4943342469
   23      C      -5.0706890815    -0.0597583343     4.8022731156
   24      H      -5.6851999608    -0.0810028146     5.6940810283
   25      B       1.2686571003     0.1181047905    -0.7212824058
   26      C       1.2689989293     0.1330566570    -2.2473930416
   27      C       2.4725440974     0.1534533186    -2.9949076682
   28      H       3.4301623675     0.1539700047    -2.4823716154
   29      C       2.4425695018     0.1673502559    -4.3679293686
   30      C       1.1872290992     0.1630378514    -5.0458219800
   31      C       0.0099112862     0.1423048486    -4.3415169503
   32      H      -0.9363736100     0.1372856495    -4.8727781321
   33      C       0.0156936191     0.1263959531    -2.9361435214
   34      C       1.4366904634     0.1790677468    -6.4806319020
   35      C       0.6456911291     0.1839315695    -7.6035833742
   36      H      -0.4356639844     0.1768368660    -7.5406016188
   37      C       2.8361173999     0.1912472938    -6.6377604939
   38      C       3.4768076803     0.2070191008    -7.8751505370
   39      C       3.4953121159     0.1849860769    -5.3908142002
   40      C       4.8677191316     0.1947561938    -5.3912054045
   41      H       5.4398720418     0.1905801756    -4.4717512507
   42      C       1.2716668793     0.2002470336    -8.8716040364
   43      H       0.6471446303     0.2044383702    -9.7561918781
   44      C       2.6400850867     0.2112456862    -9.0194476439
   45      H       3.0773383145     0.2233966710   -10.0105569310
   46      C       5.5481471723     0.2105009533    -6.6326440229
   47      H       6.6306699721     0.2181175300    -6.6255307125
   48      C       4.8912876816     0.2167276758    -7.8423261852
   49      H       5.4561479131     0.2291955708    -8.7667172101
   50      B      -1.3088303367     0.0917688965    -2.1612168885
   51      C       2.6452599977     0.1597460856     0.0436993126
   52      C       3.3361500033    -1.0308720279     0.3842677208
   53      C       2.8191373418    -2.2854736963     0.0238532361
   54      H       1.8856331497    -2.3407632085    -0.5227789248
   55      C       3.4919923500    -3.4541036178     0.3586471880
   56      H       3.0789778730    -4.4111279648     0.0710843902
   57      C       4.6869997287    -3.3935079025     1.0600216769
   58      H       5.2080510147    -4.3043066466     1.3219941921
   59      C       5.2211515487    -2.1625063159     1.4296140705
   60      H       6.1545964419    -2.1205196879     1.9770704246
   61      C       4.5601505985    -0.9791009232     1.0981276858
   62      C       5.0801244675     0.2860799966     1.4574261981
   63      H       6.0139547164     0.3362535940     2.0038913911
   64      C       4.4165776974     1.4532504780     1.1170327073
   65      H       4.8407716846     2.4071586420     1.4020216637
   66      C       3.2182518036     1.4163791155     0.4162698191
   67      C       2.5100582211     2.6715614886     0.0437830082
   68      H       3.0503509977     3.5572801447     0.3714290388
   69      H       2.3706972704     2.7254290762    -1.0382606312
   70      H       1.5087326151     2.6908235959     0.4800534075
   71      C      -2.6829897821     0.0559818826    -2.9497053232
   72      C      -3.2436254147    -1.1510316901    -3.3242413178
   73      C      -4.4511835918    -1.1787302971    -4.0585522457
   74      H      -4.8706105228    -2.1374748559    -4.3422767993
   75      C      -5.0939888578    -0.0286182972    -4.4189695660
   76      H      -6.0181910345    -0.0686661939    -4.9838877530
   77      C      -4.5587362675     1.2253202150    -4.0574687468
   78      C      -5.1958387456     2.4365645730    -4.4148435677
   79      H      -6.1199126529     2.3930942879    -4.9801368322
   80      C      -4.6610539558     3.6422360010    -4.0563085746
   81      H      -5.1563507856     4.5634689539    -4.3352693393
   82      C      -3.4597411515     3.6869259763    -3.3198144915
   83      H      -3.0399008607     4.6437252184    -3.0369402759
   84      C      -2.8244618688     2.5296467921    -2.9623610119
   85      H      -1.9013011031     2.5784383133    -2.3965208919
   86      C      -3.3478324803     1.2608415390    -3.3165720162
   87      C      -2.5741545670    -2.4504505858    -2.9702899475
   88      H      -3.1624576362    -3.3084368691    -3.2965433385
   89      H      -1.5892447047    -2.5295613082    -3.4356785835
   90      H      -2.4234895520    -2.5423176495    -1.8929976700
 ----------------------------------------------------------------

   18   -2123.3112921234      8.54E-09 Convergence criterion met
 Total energy in the final basis set = -2123.31129212
 Final energy is   -2123.31129212341
 **  OPTIMIZATION CONVERGED  **

                    Orbital Energies (a.u.)
 --------------------------------------------------------------

 Alpha MOs
 -- Occupied --
-10.511 -10.508 -10.498 -10.497 -10.495 -10.494 -10.493 -10.492
-10.488 -10.487 -10.455 -10.455 -10.454 -10.453 -10.453 -10.453
-10.451 -10.451 -10.450 -10.450 -10.450 -10.450 -10.449 -10.449
-10.449 -10.449 -10.448 -10.448 -10.447 -10.446 -10.446 -10.445
-10.444 -10.443 -10.443 -10.442 -10.442 -10.442 -10.439 -10.438
-10.438 -10.438 -10.437 -10.435 -10.435 -10.435 -10.435 -10.434
-10.420 -10.419 -10.417 -10.416 -10.412 -10.412  -6.913  -6.906
 -1.022  -1.003  -1.003  -0.967  -0.966  -0.947  -0.944  -0.922
 -0.922  -0.914  -0.910  -0.893  -0.890  -0.885  -0.860  -0.850
 -0.841  -0.841  -0.837  -0.836  -0.836  -0.809  -0.804  -0.799
 -0.799  -0.795  -0.789  -0.755  -0.743  -0.723  -0.720  -0.715
 -0.708  -0.707  -0.707  -0.690  -0.677  -0.672  -0.667  -0.661
 -0.652  -0.652  -0.634  -0.632  -0.618  -0.608  -0.589  -0.584
 -0.581  -0.580  -0.577  -0.571  -0.566  -0.562  -0.562  -0.556
 -0.544  -0.540  -0.538  -0.530  -0.522  -0.519  -0.515  -0.514
 -0.503  -0.499  -0.495  -0.494  -0.492  -0.489  -0.482  -0.482
 -0.478  -0.477  -0.475  -0.474  -0.474  -0.472  -0.471  -0.471
 -0.467  -0.462  -0.461  -0.455  -0.453  -0.450  -0.443  -0.439
 -0.434  -0.431  -0.429  -0.427  -0.425  -0.421  -0.418  -0.414
 -0.413  -0.404  -0.394  -0.393  -0.387  -0.387  -0.387  -0.383
 -0.381  -0.378  -0.376  -0.364  -0.362  -0.361  -0.356  -0.347
 -0.338  -0.329  -0.325  -0.322  -0.313  -0.310  -0.305  -0.289
 -0.287  -0.275  -0.270  -0.257  -0.247  -0.244  -0.237  -0.158

 Beta MOs
 -- Occupied --
-10.513 -10.513 -10.501 -10.499 -10.498 -10.496 -10.493 -10.492
-10.488 -10.486 -10.456 -10.456 -10.454 -10.454 -10.452 -10.452
-10.451 -10.451 -10.450 -10.450 -10.450 -10.450 -10.449 -10.449
-10.448 -10.448 -10.448 -10.448 -10.446 -10.446 -10.446 -10.445
-10.444 -10.443 -10.443 -10.442 -10.440 -10.440 -10.439 -10.438
-10.438 -10.438 -10.437 -10.436 -10.436 -10.435 -10.435 -10.434
-10.420 -10.420 -10.417 -10.416 -10.411 -10.411  -6.909  -6.903
 -1.027  -1.003  -1.003  -0.973  -0.967  -0.946  -0.943  -0.922
 -0.922  -0.919  -0.914  -0.893  -0.891  -0.884  -0.860  -0.858
 -0.840  -0.840  -0.837  -0.835  -0.835  -0.807  -0.804  -0.800
 -0.798  -0.797  -0.787  -0.755  -0.746  -0.722  -0.719  -0.714
 -0.712  -0.711  -0.707  -0.689  -0.676  -0.670  -0.667  -0.661
 -0.651  -0.650  -0.633  -0.632  -0.620  -0.611  -0.592  -0.583
 -0.580  -0.579  -0.575  -0.571  -0.565  -0.562  -0.561  -0.556
 -0.545  -0.539  -0.539  -0.531  -0.524  -0.519  -0.516  -0.512
 -0.510  -0.503  -0.495  -0.494  -0.492  -0.489  -0.484  -0.482
 -0.480  -0.478  -0.477  -0.474  -0.473  -0.473  -0.472  -0.470
 -0.467  -0.462  -0.461  -0.455  -0.453  -0.451  -0.443  -0.439
 -0.435  -0.432  -0.429  -0.427  -0.426  -0.420  -0.416  -0.415
 -0.413  -0.409  -0.403  -0.393  -0.388  -0.385  -0.385  -0.383
 -0.383  -0.380  -0.376  -0.372  -0.362  -0.360  -0.356  -0.353
 -0.338  -0.333  -0.325  -0.322  -0.310  -0.306  -0.302  -0.296
 -0.285  -0.285  -0.270  -0.265  -0.250  -0.244  -0.238  -0.236

          Ground-State Mulliken Net Atomic Charges

     Atom                 Charge (a.u.)    Spin (a.u.)
  --------------------------------------------------------
      1 C                    -0.136063      -0.027060
      2 C                    -0.415225       0.006910
      3 H                     0.207217      -0.000716
      4 C                     0.085550       0.019759
      5 C                     0.062353       0.104681
      6 C                    -0.401348      -0.064884
      7 H                     0.230382       0.002598
      8 C                    -0.147251       0.070980
      9 C                     0.179942      -0.060405
     10 C                    -0.398653       0.086565
     11 H                     0.239365      -0.005043
     12 C                    -0.074886       0.022578
     13 C                     0.229200      -0.035837
     14 C                     0.182124      -0.038842
     15 C                    -0.408549       0.059866
     16 H                     0.229113      -0.003518
     17 C                    -0.224846      -0.041206
     18 H                     0.240748       0.002043
     19 C                    -0.359119       0.055453
     20 H                     0.238765      -0.003197
     21 C                    -0.226553      -0.053056
     22 H                     0.243472       0.002546
     23 C                    -0.356584       0.078295
     24 H                     0.237678      -0.004611
     25 B                     0.543624       0.391865
     26 C                    -0.139485      -0.028768
     27 C                    -0.415829       0.007388
     28 H                     0.207888      -0.000790
     29 C                     0.085220       0.019139
     30 C                     0.061108       0.104798
     31 C                    -0.398582      -0.065271
     32 H                     0.231475       0.002591
     33 C                    -0.144780       0.071873
     34 C                     0.181247      -0.060230
     35 C                    -0.398851       0.086288
     36 H                     0.239302      -0.005029
     37 C                    -0.075382       0.022501
     38 C                     0.227301      -0.035662
     39 C                     0.183265      -0.038520
     40 C                    -0.409560       0.059369
     41 H                     0.229239      -0.003490
     42 C                    -0.226657      -0.052779
     43 H                     0.243476       0.002533
     44 C                    -0.355489       0.077757
     45 H                     0.237787      -0.004577
     46 C                    -0.224629      -0.040870
     47 H                     0.240740       0.002027
     48 C                    -0.358502       0.054860
     49 H                     0.238951      -0.003160
     50 B                     0.581669       0.272553
     51 C                    -0.126397      -0.363274
     52 C                     0.079838       0.110691
     53 C                    -0.296923      -0.202497
     54 H                     0.306786       0.009174
     55 C                    -0.224609      -0.013689
     56 H                     0.283949       0.002130
     57 C                    -0.217307      -0.049993
     58 H                     0.282339       0.003828
     59 C                    -0.272408      -0.171380
     60 H                     0.277236       0.009111
     61 C                     0.145293       0.089091
     62 C                    -0.272324      -0.364885
     63 H                     0.283962       0.019679
     64 C                    -0.263877       0.124179
     65 H                     0.274596      -0.003950
     66 C                     0.053497      -0.184410
     67 C                    -0.758313       0.015735
     68 H                     0.261542       0.002677
     69 H                     0.283566      -0.012423
     70 H                     0.284223      -0.012925
     71 C                    -0.201046      -0.023877
     72 C                     0.000680       0.002206
     73 C                    -0.285534      -0.000081
     74 H                     0.224528       0.000249
     75 C                    -0.335511       0.000219
     76 H                     0.227942      -0.000016
     77 C                     0.111558      -0.000242
     78 C                    -0.304304       0.000139
     79 H                     0.230199       0.000013
     80 C                    -0.255995      -0.000038
     81 H                     0.235031       0.000063
     82 C                    -0.256681      -0.000548
     83 H                     0.235667       0.000092
     84 C                    -0.338521       0.003756
     85 H                     0.253098      -0.001804
     86 C                     0.060368       0.002218
     87 C                    -0.757242       0.000483
     88 H                     0.237390       0.001498
     89 H                     0.245688      -0.000670
     90 H                     0.246639      -0.000826
  --------------------------------------------------------
  Sum of atomic charges =    -0.000000

                    Cartesian Multipole Moments
 -----------------------------------------------------------------
    Charge (ESU x 10^10)
                -0.0000
    Dipole Moment (Debye)
         X      14.5709      Y      -3.1234      Z       8.0135
       Tot      16.9199
    Quadrupole Moments (Debye-Ang)
        XX    -238.0081     XY      -8.2259     YY    -298.2094
        XZ      27.5564     YZ       1.3868     ZZ    -319.3145

 Total job time:  22789.69s(wall), 68939.07s(cpu)
        *  Thank you very much for using Q-Chem.  Have a nice day.  *
