 Q-Chem 5.0, Q-Chem, Inc., Pleasanton, CA (2017)
 Q-Chem 5.0.1 for Intel X86 EM64T Linux

User input:
--------------------------------------------------------------
$rem
threads 8
jobtype	sp
method PBEh-3c
basis def2-mSVP
mem_static	1024
mem_total	8000
sym_ignore	true
unrestricted true
scf_convergence	9
solvent_method	pcm
$end

$molecule
read incoords.mol
$end

$solvent
dielectric	2.03
$end

$pcm
theory iefpcm
$end
--------------------------------------------------------------

   17   -2123.3821660747      4.06E-10 Convergence criterion met
 Total energy in the final basis set = -2123.38216607
 Total job time:  2293.81s(wall), 6469.46s(cpu)
        *  Thank you very much for using Q-Chem.  Have a nice day.  *
 Q-Chem 5.0, Q-Chem, Inc., Pleasanton, CA (2017)
 Q-Chem 5.0.1 for Intel X86 EM64T Linux

User input:
--------------------------------------------------------------

$rem
threads 8
jobtype opt
method PBEh-3c
basis def2-mSVP
scf_guess	read
mem_static      1024
mem_total       8000
sym_ignore      true
unrestricted true
mom_start       1
scf_algorithm	diis
scf_max_cycles	250
solvent_method	pcm
geom_opt_tol_energy 25
geom_opt_tol_gradient 75
$end

$solvent
dielectric      2.03
$end
$pcm
theory iefpcm
$end

$occupied
1 2 3 4 5 6 7 8 9 10 11 12 13 14 15 16 17 18 19 20 21 22 23 24 25 26 27 28 29 30 31 32 33 34 35 36 37 38 39 40 41 42 43 44 45 46 47 48 49 50 51 52 53 54 55 56 57 58 59 60 61 62 63 64 65 66 67 68 69 70 71 72 73 74 75 76 77 78 79 80 81 82 83 84 85 86 87 88 89 90 91 92 93 94 95 96 97 98 99 100 101 102 103 104 105 106 107 108 109 110 111 112 113 114 115 116 117 118 119 120 121 122 123 124 125 126 127 128 129 130 131 132 133 134 135 136 137 138 139 140 141 142 143 144 145 146 147 148 149 150 151 152 153 154 155 156 157 158 159 160 161 162 163 164 165 166 167 168 169 170 171 172 173 174 175 176 177 178 179 180 181 182 183  185
1 2 3 4 5 6 7 8 9 10 11 12 13 14 15 16 17 18 19 20 21 22 23 24 25 26 27 28 29 30 31 32 33 34 35 36 37 38 39 40 41 42 43 44 45 46 47 48 49 50 51 52 53 54 55 56 57 58 59 60 61 62 63 64 65 66 67 68 69 70 71 72 73 74 75 76 77 78 79 80 81 82 83 84 85 86 87 88 89 90 91 92 93 94 95 96 97 98 99 100 101 102 103 104 105 106 107 108 109 110 111 112 113 114 115 116 117 118 119 120 121 122 123 124 125 126 127 128 129 130 131 132 133 134 135 136 137 138 139 140 141 142 143 144 145 146 147 148 149 150 151 152 153 154 155 156 157 158 159 160 161 162 163 164 165 166 167 168 169 170 171 172 173 174 175 176 177 178 179 180 181 182 183 184
$end

$molecule
read
$end

--------------------------------------------------------------

   21   -2123.2962983645      8.02E-09 Convergence criterion met
 Total energy in the final basis set = -2123.29629836
   17   -2123.2965225581      6.25E-09 Convergence criterion met
 Total energy in the final basis set = -2123.29652256
   17   -2123.2965589883      6.43E-09 Convergence criterion met
 Total energy in the final basis set = -2123.29655899
   17   -2123.2965935508      6.39E-09 Convergence criterion met
 Total energy in the final basis set = -2123.29659355
   17   -2123.2966138890      6.21E-09 Convergence criterion met
 Total energy in the final basis set = -2123.29661389
   17   -2123.2966501536      6.25E-09 Convergence criterion met
 Total energy in the final basis set = -2123.29665015
   17   -2123.2966809956      6.28E-09 Convergence criterion met
 Total energy in the final basis set = -2123.29668100
   17   -2123.2966773302      6.13E-09 Convergence criterion met
 Total energy in the final basis set = -2123.29667733
   17   -2123.2966598102      6.29E-09 Convergence criterion met
 Total energy in the final basis set = -2123.29665981
   17   -2123.2966583348      6.03E-09 Convergence criterion met
 Total energy in the final basis set = -2123.29665833

             Standard Nuclear Orientation (Angstroms)
    I     Atom           X                Y                Z
 ----------------------------------------------------------------
    1      C      -0.0315275849     0.0721929329     0.0835554176
    2      C      -0.0375250827     0.0383388130     1.4998548689
    3      H       0.9017604468     0.0242693471     2.0459874938
    4      C      -1.2221983297     0.0149750316     2.1938913392
    5      C      -2.4574375362     0.0255022403     1.4814761898
    6      C      -2.4737669016     0.0528351062     0.1086075293
    7      H      -3.4197273906     0.0570162561    -0.4231728399
    8      C      -1.2747212188     0.0771500610    -0.6233793372
    9      C      -3.5462526789    -0.0008306843     2.4468677234
   10      C      -4.9161204256    -0.0012454863     2.3606501671
   11      H      -5.4277667470     0.0227500628     1.4062785606
   12      C      -2.9460969501    -0.0293662805     3.7204477166
   13      C      -3.6615158346    -0.0602259549     4.9136454524
   14      C      -1.5391678537    -0.0220014407     3.6245785303
   15      C      -0.8159055299    -0.0483055973     4.7891448741
   16      H       0.2670848537    -0.0449830473     4.7895048940
   17      C      -1.5134089157    -0.0807656965     6.0200123086
   18      H      -0.9383462213    -0.1014351297     6.9369190386
   19      C      -2.8874176300    -0.0867236996     6.0976617519
   20      H      -3.3745518771    -0.1114429000     7.0648117681
   21      C      -5.6665589222    -0.0315274599     3.5578660555
   22      H      -6.7472225855    -0.0311379023     3.4908106043
   23      C      -5.0743459245    -0.0608503048     4.7998064091
   24      H      -5.6901484846    -0.0836287214     5.6906336297
   25      B       1.2647560475     0.1107079279    -0.7203106695
   26      C       1.2695807745     0.1268039546    -2.2454206128
   27      C       2.4734449856     0.1403179221    -2.9932112229
   28      H       3.4314694452     0.1320381700    -2.4810378503
   29      C       2.4431894523     0.1552800500    -4.3655358078
   30      C       1.1881291159     0.1609949406    -5.0424972894
   31      C       0.0108295843     0.1476771133    -4.3379051268
   32      H      -0.9364271552     0.1503168672    -4.8671796074
   33      C       0.0168402895     0.1300469198    -2.9335181578
   34      C       1.4370004804     0.1758671304    -6.4768776531
   35      C       0.6456954747     0.1874559336    -7.5989570645
   36      H      -0.4354939435     0.1898560042    -7.5347560933
   37      C       2.8360631887     0.1763831062    -6.6353373137
   38      C       3.4758438479     0.1864324509    -7.8727502926
   39      C       3.4955732736     0.1641785805    -5.3890774602
   40      C       4.8674527851     0.1616506360    -5.3906406259
   41      H       5.4400559210     0.1520625496    -4.4715122450
   42      C       1.2705827356     0.1983763930    -8.8670858129
   43      H       0.6454882223     0.2079284618    -9.7511770217
   44      C       2.6383724691     0.1975928460    -9.0160009853
   45      H       3.0746012495     0.2057617344   -10.0075624639
   46      C       5.5474204612     0.1714415901    -6.6318703846
   47      H       6.6299690351     0.1693960724    -6.6257275735
   48      C       4.8898713040     0.1835786423    -7.8405136338
   49      H       5.4544201795     0.1909263911    -8.7651197570
   50      B      -1.3083092851     0.1004866429    -2.1587111026
   51      C       2.6388269146     0.1647681082     0.0429441104
   52      C       3.3448249392    -1.0196473014     0.3780888059
   53      C       2.8385675024    -2.2761250116     0.0110946013
   54      H       1.9043565484    -2.3326297989    -0.5343377495
   55      C       3.5232950497    -3.4391318278     0.3383913273
   56      H       3.1198054476    -4.3988173563     0.0462581112
   57      C       4.7187965524    -3.3701380823     1.0389538148
   58      H       5.2488805734    -4.2774670231     1.2950076302
   59      C       5.2410222542    -2.1372819871     1.4148864436
   60      H       6.1745367976    -2.0901881741     1.9619172677
   61      C       4.5684154124    -0.9584762829     1.0907254372
   62      C       5.0737830856     0.3121650518     1.4555536761
   63      H       6.0074891305     0.3704132172     2.0016174824
   64      C       4.3977576615     1.4725274615     1.1218528348
   65      H       4.8113403199     2.4299258472     1.4109424925
   66      C       3.1985317274     1.4266565237     0.4207982883
   67      C       2.4753285943     2.6743587941     0.0540722976
   68      H       3.0090666565     3.5664244977     0.3757023460
   69      H       2.3233362744     2.7240770653    -1.0264005771
   70      H       1.4775305440     2.6822820523     0.4987729977
   71      C      -2.6812558361     0.0667396869    -2.9477570829
   72      C      -3.2410386368    -1.1403486239    -3.3222833610
   73      C      -4.4471735414    -1.1679734816    -4.0578104459
   74      H      -4.8663824690    -2.1266735712    -4.3418627121
   75      C      -5.0891294894    -0.0180738759    -4.4187340786
   76      H      -6.0126896965    -0.0584284901    -4.9846020110
   77      C      -4.5547947976     1.2357545055    -4.0572049107
   78      C      -5.1909341344     2.4467794021    -4.4148395833
   79      H      -6.1144820806     2.4038081213    -4.9809245222
   80      C      -4.6564208924     3.6519008350    -4.0558896173
   81      H      -5.1514301623     4.5731009735    -4.3352725737
   82      C      -3.4561412440     3.6963910164    -3.3187329310
   83      H      -3.0363972532     4.6530670829    -3.0355947484
   84      C      -2.8213947006     2.5394883440    -2.9609914083
   85      H      -1.8986507530     2.5869216309    -2.3946281294
   86      C      -3.3450070210     1.2714395783    -3.3153828109
   87      C      -2.5707523209    -2.4387425525    -2.9665801083
   88      H      -3.1594286958    -3.2978253812    -3.2895812275
   89      H      -1.5868426437    -2.5183928522    -3.4339610649
   90      H      -2.4185006997    -2.5276156655    -1.8893020382
 ----------------------------------------------------------------

   17   -2123.2966602527      6.18E-09 Convergence criterion met
 Total energy in the final basis set = -2123.29666025
 Final energy is   -2123.29666025267
 **  OPTIMIZATION CONVERGED  **

                    Orbital Energies (a.u.)
 --------------------------------------------------------------

 Alpha MOs
 -- Occupied --
-10.517 -10.515 -10.506 -10.505 -10.500 -10.500 -10.499 -10.498
-10.495 -10.494 -10.451 -10.451 -10.451 -10.450 -10.450 -10.449
-10.449 -10.447 -10.447 -10.447 -10.447 -10.445 -10.445 -10.445
-10.445 -10.444 -10.444 -10.443 -10.443 -10.442 -10.442 -10.439
-10.439 -10.438 -10.437 -10.436 -10.436 -10.436 -10.433 -10.433
-10.433 -10.432 -10.431 -10.430 -10.430 -10.429 -10.429 -10.428
-10.416 -10.416 -10.413 -10.410 -10.407 -10.407  -6.909  -6.901
 -1.028  -0.999  -0.998  -0.972  -0.961  -0.942  -0.940  -0.918
 -0.918  -0.916  -0.908  -0.896  -0.888  -0.880  -0.857  -0.853
 -0.837  -0.837  -0.832  -0.832  -0.831  -0.805  -0.803  -0.797
 -0.795  -0.793  -0.784  -0.750  -0.749  -0.723  -0.717  -0.714
 -0.711  -0.709  -0.703  -0.684  -0.673  -0.668  -0.663  -0.656
 -0.648  -0.648  -0.630  -0.628  -0.624  -0.615  -0.596  -0.581
 -0.578  -0.577  -0.574  -0.567  -0.561  -0.559  -0.558  -0.551
 -0.551  -0.542  -0.534  -0.530  -0.527  -0.518  -0.512  -0.511
 -0.503  -0.502  -0.493  -0.491  -0.489  -0.486  -0.484  -0.479
 -0.477  -0.476  -0.474  -0.473  -0.470  -0.469  -0.468  -0.466
 -0.464  -0.462  -0.456  -0.456  -0.452  -0.450  -0.442  -0.438
 -0.431  -0.429  -0.428  -0.424  -0.422  -0.417  -0.415  -0.411
 -0.407  -0.400  -0.400  -0.389  -0.383  -0.382  -0.382  -0.380
 -0.377  -0.375  -0.371  -0.361  -0.356  -0.356  -0.353  -0.349
 -0.334  -0.329  -0.326  -0.321  -0.308  -0.304  -0.300  -0.285
 -0.283  -0.270  -0.263  -0.253  -0.242  -0.239  -0.230  -0.154

 Beta MOs
 -- Occupied --
-10.521 -10.520 -10.508 -10.503 -10.503 -10.503 -10.500 -10.497
-10.494 -10.493 -10.451 -10.451 -10.451 -10.450 -10.450 -10.449
-10.449 -10.448 -10.448 -10.446 -10.446 -10.445 -10.445 -10.445
-10.445 -10.444 -10.444 -10.444 -10.443 -10.442 -10.442 -10.439
-10.439 -10.438 -10.437 -10.436 -10.435 -10.435 -10.433 -10.433
-10.433 -10.432 -10.431 -10.431 -10.430 -10.430 -10.429 -10.428
-10.417 -10.417 -10.412 -10.410 -10.406 -10.406  -6.905  -6.899
 -1.033  -0.998  -0.998  -0.979  -0.961  -0.941  -0.939  -0.925
 -0.918  -0.918  -0.908  -0.898  -0.888  -0.880  -0.865  -0.853
 -0.836  -0.836  -0.831  -0.831  -0.831  -0.808  -0.802  -0.797
 -0.794  -0.793  -0.783  -0.753  -0.749  -0.725  -0.718  -0.716
 -0.710  -0.710  -0.703  -0.684  -0.673  -0.666  -0.663  -0.655
 -0.647  -0.646  -0.630  -0.628  -0.626  -0.617  -0.599  -0.579
 -0.577  -0.576  -0.573  -0.567  -0.560  -0.558  -0.557  -0.552
 -0.551  -0.543  -0.534  -0.531  -0.528  -0.518  -0.517  -0.511
 -0.510  -0.503  -0.493  -0.491  -0.489  -0.486  -0.486  -0.485
 -0.478  -0.476  -0.474  -0.473  -0.468  -0.467  -0.467  -0.465
 -0.464  -0.462  -0.456  -0.456  -0.452  -0.450  -0.441  -0.437
 -0.433  -0.430  -0.428  -0.424  -0.423  -0.421  -0.416  -0.412
 -0.410  -0.404  -0.399  -0.389  -0.388  -0.382  -0.380  -0.380
 -0.380  -0.377  -0.370  -0.370  -0.358  -0.356  -0.353  -0.349
 -0.333  -0.330  -0.327  -0.320  -0.306  -0.301  -0.300  -0.295
 -0.281  -0.280  -0.263  -0.260  -0.245  -0.239  -0.233  -0.230

          Ground-State Mulliken Net Atomic Charges

     Atom                 Charge (a.u.)    Spin (a.u.)
  --------------------------------------------------------
      1 C                    -0.130940      -0.041953
      2 C                    -0.412412       0.017186
      3 H                     0.191429      -0.001308
      4 C                     0.094494       0.008694
      5 C                     0.069840       0.112430
      6 C                    -0.394988      -0.070906
      7 H                     0.227830       0.002955
      8 C                    -0.147062       0.078248
      9 C                     0.187829      -0.061811
     10 C                    -0.392658       0.087405
     11 H                     0.229986      -0.005118
     12 C                    -0.073090       0.022032
     13 C                     0.241366      -0.034903
     14 C                     0.190257      -0.035536
     15 C                    -0.403628       0.055354
     16 H                     0.213689      -0.003290
     17 C                    -0.214144      -0.038904
     18 H                     0.228032       0.001959
     19 C                    -0.353362       0.051583
     20 H                     0.226242      -0.002992
     21 C                    -0.215987      -0.053157
     22 H                     0.232355       0.002568
     23 C                    -0.350666       0.078620
     24 H                     0.225116      -0.004679
     25 B                     0.535968       0.405623
     26 C                    -0.135341      -0.044506
     27 C                    -0.412569       0.017729
     28 H                     0.192164      -0.001417
     29 C                     0.094119       0.008035
     30 C                     0.068414       0.112687
     31 C                    -0.392018      -0.071873
     32 H                     0.229162       0.002971
     33 C                    -0.144657       0.079577
     34 C                     0.189156      -0.061683
     35 C                    -0.392869       0.087055
     36 H                     0.230100      -0.005098
     37 C                    -0.073513       0.021945
     38 C                     0.239533      -0.034672
     39 C                     0.191323      -0.035194
     40 C                    -0.404615       0.054802
     41 H                     0.213866      -0.003257
     42 C                    -0.216034      -0.052826
     43 H                     0.232368       0.002553
     44 C                    -0.349572       0.077915
     45 H                     0.225205      -0.004636
     46 C                    -0.213948      -0.038518
     47 H                     0.228041       0.001941
     48 C                    -0.352774       0.050919
     49 H                     0.226395      -0.002951
     50 B                     0.598792       0.263664
     51 C                    -0.121497      -0.348306
     52 C                     0.076088       0.102315
     53 C                    -0.290125      -0.183747
     54 H                     0.307498       0.008283
     55 C                    -0.221994      -0.024567
     56 H                     0.274743       0.002646
     57 C                    -0.212290      -0.039903
     58 H                     0.270961       0.003316
     59 C                    -0.274306      -0.166282
     60 H                     0.262453       0.008988
     61 C                     0.155111       0.089078
     62 C                    -0.274100      -0.370156
     63 H                     0.269111       0.020276
     64 C                    -0.260586       0.140667
     65 H                     0.263028      -0.004754
     66 C                     0.051484      -0.208087
     67 C                    -0.754817       0.017905
     68 H                     0.252294       0.002779
     69 H                     0.288076      -0.013606
     70 H                     0.288657      -0.014347
     71 C                    -0.205289      -0.023620
     72 C                     0.005928       0.001775
     73 C                    -0.276544       0.000175
     74 H                     0.213035       0.000232
     75 C                    -0.327764      -0.000342
     76 H                     0.215673       0.000016
     77 C                     0.122245      -0.000035
     78 C                    -0.296702      -0.000105
     79 H                     0.217683       0.000026
     80 C                    -0.245502       0.000070
     81 H                     0.223330       0.000057
     82 C                    -0.247708      -0.000695
     83 H                     0.224006       0.000099
     84 C                    -0.329073       0.003623
     85 H                     0.246086      -0.001740
     86 C                     0.066567       0.002226
     87 C                    -0.754583       0.000513
     88 H                     0.230367       0.001471
     89 H                     0.245440      -0.000672
     90 H                     0.246791      -0.000836
  --------------------------------------------------------
  Sum of atomic charges =    -0.000000

                    Cartesian Multipole Moments
 -----------------------------------------------------------------
    Charge (ESU x 10^10)
                -0.0000
    Dipole Moment (Debye)
         X      13.0347      Y      -2.7656      Z       7.1293
       Tot      15.1122
    Quadrupole Moments (Debye-Ang)
        XX    -247.2241     XY      -7.5348     YY    -300.4232
        XZ      26.1599     YZ       1.6097     ZZ    -321.9192

 Total job time:  27426.88s(wall), 77570.96s(cpu)
        *  Thank you very much for using Q-Chem.  Have a nice day.  *
