 Q-Chem 5.0, Q-Chem, Inc., Pleasanton, CA (2017)
 Q-Chem 5.0.1 for Intel X86 EM64T Linux

User input:
--------------------------------------------------------------
$rem
threads 8
jobtype opt
method PBEh-3c
basis def2-mSVP
mem_static      1024
mem_total       8000
sym_ignore      true
unrestricted true
scf_algorithm   diis
scf_max_cycles  250
solvent_method  pcm
geom_opt_tol_energy 25
geom_opt_tol_gradient 75
$end

$pcm
theory  iefpcm
$end

$solvent
dielectric      1.0001
$end

$molecule
read uincoords.mol
$end

--------------------------------------------------------------

   48   -2123.2872998523      8.09E-09 Convergence criterion met
 Total energy in the final basis set = -2123.28729985
   23   -2123.2956703626      7.55E-09 Convergence criterion met
 Total energy in the final basis set = -2123.29567036
   19   -2123.2962253351      8.94E-09 Convergence criterion met
 Total energy in the final basis set = -2123.29622534
   18   -2123.2962910403      9.45E-09 Convergence criterion met
 Total energy in the final basis set = -2123.29629104
   15   -2123.2962895010      8.56E-09 Convergence criterion met
 Total energy in the final basis set = -2123.29628950
   15   -2123.2962947842      6.07E-09 Convergence criterion met
 Total energy in the final basis set = -2123.29629478
   20   -2123.2963087633      6.78E-09 Convergence criterion met
 Total energy in the final basis set = -2123.29630876
   14   -2123.2963140557      9.46E-09 Convergence criterion met
 Total energy in the final basis set = -2123.29631406
   15   -2123.2963264615      6.34E-09 Convergence criterion met
 Total energy in the final basis set = -2123.29632646
   15   -2123.2963287755      5.93E-09 Convergence criterion met
 Total energy in the final basis set = -2123.29632878
   14   -2123.2963280637      7.43E-09 Convergence criterion met
 Total energy in the final basis set = -2123.29632806

             Standard Nuclear Orientation (Angstroms)
    I     Atom           X                Y                Z
 ----------------------------------------------------------------
    1      C      -0.0155982329     0.0924892334     0.0670390513
    2      C      -0.0138360111     0.0711138119     1.4774961058
    3      H       0.9340002177     0.0695774512     2.0036260793
    4      C      -1.1957657751     0.0537727493     2.1719728066
    5      C      -2.4591530113     0.0559351216     1.4482802850
    6      C      -2.4836809039     0.0664311980     0.0785804051
    7      H      -3.4283526428     0.0627014358    -0.4535467641
    8      C      -1.2850446083     0.0838860789    -0.6499246381
    9      C      -3.5307087536     0.0427768065     2.4141534049
   10      C      -4.9039745429     0.0426148394     2.3313458800
   11      H      -5.4173793289     0.0546352363     1.3782718181
   12      C      -2.9202602944     0.0301834107     3.6856155715
   13      C      -3.6311587486     0.0156069896     4.8816388609
   14      C      -1.5111609912     0.0350078745     3.5883358468
   15      C      -0.7808043736     0.0224038771     4.7519980591
   16      H       0.3013673162     0.0231046706     4.7451127822
   17      C      -1.4751836519     0.0067553646     5.9803377693
   18      H      -0.8996310202    -0.0034334311     6.8964353593
   19      C      -2.8508116593     0.0036884004     6.0609904789
   20      H      -3.3335456949    -0.0081557361     7.0301862849
   21      C      -5.6446781505     0.0285723301     3.5292347768
   22      H      -6.7253327547     0.0289210132     3.4710757405
   23      C      -5.0426632048     0.0150220060     4.7694427968
   24      H      -5.6555824935     0.0044779829     5.6621584533
   25      B       1.3054672299     0.1276520802    -0.7053730940
   26      C       1.2700716357     0.1480821012    -2.2343517005
   27      C       2.4729012037     0.1677791914    -2.9713005355
   28      H       3.4175006408     0.1596841848    -2.4397128226
   29      C       2.4450245650     0.1944290072    -4.3413648248
   30      C       1.1654732149     0.2083096289    -5.0368412864
   31      C      -0.0134666899     0.1830091991    -4.3418694842
   32      H      -0.9602956523     0.1886878087    -4.8700294426
   33      C      -0.0046624017     0.1458876886    -2.9401448304
   34      C       1.4241922839     0.2391639365    -6.4562344766
   35      C       0.6344682027     0.2632888151    -7.5831483734
   36      H      -0.4463629652     0.2665229695    -7.5215639161
   37      C       2.8267082407     0.2388007573    -6.6040669204
   38      C       3.4714718769     0.2587829329    -7.8386614386
   39      C       3.4858392560     0.2121916723    -5.3552468154
   40      C       4.8605379823     0.2042417062    -5.3498061108
   41      H       5.4262919485     0.1809740476    -4.4276467543
   42      C       1.2653038102     0.2851670679    -8.8427691763
   43      H       0.6481611332     0.3042918363    -9.7316338544
   44      C       2.6365879569     0.2827084270    -8.9818113263
   45      H       3.0761239023     0.2989536454    -9.9715285686
   46      C       5.5401191620     0.2241133541    -6.5864753165
   47      H       6.6220694263     0.2171450751    -6.5791800422
   48      C       4.8846097124     0.2508089841    -7.7980351061
   49      H       5.4534543093     0.2647894452    -8.7194987430
   50      B      -1.3281479322     0.0938471171    -2.1780796762
   51      C       2.6808608899     0.1535435591     0.0606117330
   52      C       3.3383795087    -1.0609660782     0.3977153876
   53      C       2.7931477509    -2.3198330662     0.0420110138
   54      H       1.8560778608    -2.3565135649    -0.5016665147
   55      C       3.4271364677    -3.4848964331     0.3708586234
   56      H       2.9929108739    -4.4351075873     0.0881714832
   57      C       4.6451353835    -3.4567269818     1.0779808171
   58      H       5.1387137829    -4.3848516547     1.3352404104
   59      C       5.1995720830    -2.2604216019     1.4355480443
   60      H       6.1372733267    -2.2332860721     1.9781989564
   61      C       4.5664774429    -1.0401870911     1.1062292195
   62      C       5.1185554313     0.2081006892     1.4603909307
   63      H       6.0564149469     0.2364441424     2.0023926919
   64      C       4.4805232954     1.3675986546     1.1234773461
   65      H       4.9176578567     2.3196362958     1.4011307260
   66      C       3.2557976512     1.3554054525     0.4199838026
   67      C       2.5840052425     2.6540510563     0.0676425673
   68      H       3.1570068518     3.5137504734     0.4146536304
   69      H       2.4567245167     2.7578109335    -1.0119947079
   70      H       1.5879189117     2.7229444363     0.5101532049
   71      C      -2.6962142148     0.0277424790    -2.9661053336
   72      C      -3.2196282794    -1.1937618989    -3.3445030756
   73      C      -4.4253794150    -1.2519441796    -4.0783788846
   74      H      -4.8180935437    -2.2203065308    -4.3662083208
   75      C      -5.0991057540    -0.1187959201    -4.4311567193
   76      H      -6.0222142692    -0.1828295494    -4.9951832534
   77      C      -4.6014464641     1.1484015922    -4.0650316654
   78      C      -5.2734938214     2.3412724706    -4.4145995616
   79      H      -6.1967903932     2.2744406750    -4.9783042290
   80      C      -4.7740195147     3.5593670563    -4.0509991240
   81      H      -5.2969455686     4.4666286155    -4.3239954502
   82      C      -3.5738147160     3.6358484549    -3.3179966533
   83      H      -3.1813921600     4.6028728564    -3.0317920044
   84      C      -2.9038806308     2.4970957365    -2.9679124626
   85      H      -1.9810861453     2.5712102601    -2.4045052602
   86      C      -3.3918428317     1.2164943000    -3.3262132072
   87      C      -2.5127506876    -2.4745391948    -2.9949709130
   88      H      -3.0810712938    -3.3481699630    -3.3143051415
   89      H      -1.5308604706    -2.5317625139    -3.4697522520
   90      H      -2.3505831077    -2.5640306696    -1.9192258422
 ----------------------------------------------------------------

   13   -2123.2963271546      6.29E-09 Convergence criterion met
 Total energy in the final basis set = -2123.29632715
 Final energy is   -2123.29632715459
 **  OPTIMIZATION CONVERGED  **

                    Orbital Energies (a.u.)
 --------------------------------------------------------------

 Alpha MOs
 -- Occupied --
-10.476 -10.476 -10.474 -10.474 -10.468 -10.468 -10.467 -10.466
-10.466 -10.466 -10.466 -10.466 -10.466 -10.466 -10.465 -10.465
-10.464 -10.464 -10.462 -10.462 -10.462 -10.462 -10.460 -10.459
-10.454 -10.454 -10.452 -10.451 -10.447 -10.447 -10.446 -10.446
-10.446 -10.446 -10.445 -10.445 -10.445 -10.444 -10.440 -10.440
-10.439 -10.439 -10.438 -10.438 -10.438 -10.438 -10.437 -10.437
-10.436 -10.436 -10.423 -10.423 -10.420 -10.419  -6.920  -6.919
 -1.023  -1.022  -0.970  -0.969  -0.965  -0.964  -0.938  -0.937
 -0.918  -0.916  -0.911  -0.903  -0.868  -0.862  -0.861  -0.858
 -0.852  -0.851  -0.840  -0.840  -0.827  -0.818  -0.816  -0.809
 -0.804  -0.804  -0.760  -0.759  -0.738  -0.737  -0.734  -0.724
 -0.697  -0.694  -0.692  -0.687  -0.683  -0.673  -0.667  -0.664
 -0.664  -0.655  -0.647  -0.647  -0.601  -0.597  -0.594  -0.593
 -0.586  -0.580  -0.579  -0.571  -0.570  -0.562  -0.561  -0.547
 -0.543  -0.543  -0.534  -0.532  -0.528  -0.512  -0.511  -0.505
 -0.501  -0.500  -0.499  -0.498  -0.497  -0.494  -0.493  -0.492
 -0.484  -0.483  -0.483  -0.475  -0.474  -0.471  -0.470  -0.469
 -0.467  -0.464  -0.450  -0.449  -0.447  -0.445  -0.440  -0.438
 -0.436  -0.435  -0.432  -0.430  -0.430  -0.426  -0.420  -0.410
 -0.403  -0.403  -0.401  -0.401  -0.401  -0.398  -0.394  -0.388
 -0.384  -0.381  -0.380  -0.376  -0.365  -0.362  -0.357  -0.351
 -0.348  -0.333  -0.332  -0.327  -0.316  -0.313  -0.304  -0.302
 -0.293  -0.272  -0.271  -0.270  -0.270  -0.261  -0.239  -0.239
 -0.174

 Beta MOs
 -- Occupied --
-10.472 -10.472 -10.471 -10.470 -10.469 -10.469 -10.468 -10.468
-10.466 -10.466 -10.464 -10.464 -10.464 -10.464 -10.464 -10.464
-10.463 -10.463 -10.463 -10.463 -10.463 -10.463 -10.457 -10.457
-10.456 -10.456 -10.454 -10.453 -10.446 -10.446 -10.446 -10.445
-10.445 -10.445 -10.444 -10.444 -10.442 -10.441 -10.440 -10.440
-10.439 -10.439 -10.438 -10.438 -10.438 -10.438 -10.437 -10.437
-10.436 -10.436 -10.423 -10.423 -10.420 -10.419  -6.918  -6.918
 -1.019  -1.019  -0.969  -0.969  -0.960  -0.959  -0.936  -0.936
 -0.917  -0.916  -0.907  -0.900  -0.867  -0.861  -0.860  -0.857
 -0.850  -0.849  -0.840  -0.840  -0.818  -0.816  -0.815  -0.804
 -0.803  -0.798  -0.759  -0.759  -0.736  -0.733  -0.731  -0.721
 -0.695  -0.692  -0.691  -0.684  -0.681  -0.668  -0.667  -0.664
 -0.663  -0.653  -0.646  -0.646  -0.599  -0.595  -0.592  -0.591
 -0.585  -0.578  -0.577  -0.570  -0.570  -0.561  -0.561  -0.545
 -0.543  -0.542  -0.533  -0.530  -0.525  -0.510  -0.508  -0.504
 -0.501  -0.500  -0.498  -0.497  -0.495  -0.493  -0.484  -0.483
 -0.483  -0.482  -0.482  -0.474  -0.474  -0.470  -0.470  -0.468
 -0.467  -0.462  -0.449  -0.449  -0.446  -0.443  -0.438  -0.435
 -0.433  -0.431  -0.429  -0.425  -0.424  -0.418  -0.415  -0.409
 -0.402  -0.402  -0.400  -0.397  -0.396  -0.396  -0.392  -0.386
 -0.379  -0.379  -0.377  -0.364  -0.362  -0.357  -0.348  -0.346
 -0.340  -0.330  -0.324  -0.321  -0.315  -0.312  -0.297  -0.296
 -0.270  -0.270  -0.262  -0.256  -0.250  -0.239  -0.238

          Ground-State Mulliken Net Atomic Charges

     Atom                 Charge (a.u.)    Spin (a.u.)
  --------------------------------------------------------
      1 C                    -0.126451       0.231384
      2 C                    -0.389477      -0.143599
      3 H                     0.237755       0.005649
      4 C                     0.118495       0.233047
      5 C                     0.092736       0.241236
      6 C                    -0.380473      -0.143769
      7 H                     0.236648       0.005656
      8 C                    -0.128038       0.206982
      9 C                     0.198233      -0.115606
     10 C                    -0.371209       0.141018
     11 H                     0.225466      -0.008378
     12 C                    -0.060176       0.140042
     13 C                     0.253879      -0.092832
     14 C                     0.201437      -0.114571
     15 C                    -0.381484       0.134077
     16 H                     0.224907      -0.007963
     17 C                    -0.202130      -0.096678
     18 H                     0.228924       0.004772
     19 C                    -0.337915       0.140481
     20 H                     0.222183      -0.008252
     21 C                    -0.205007      -0.099148
     22 H                     0.229671       0.004842
     23 C                    -0.333216       0.150104
     24 H                     0.222252      -0.008830
     25 B                     0.616162       0.202443
     26 C                    -0.128191       0.232810
     27 C                    -0.390089      -0.144836
     28 H                     0.238040       0.005692
     29 C                     0.118397       0.235102
     30 C                     0.091073       0.242067
     31 C                    -0.378209      -0.144422
     32 H                     0.238328       0.005664
     33 C                    -0.124146       0.209557
     34 C                     0.199514      -0.115942
     35 C                    -0.371508       0.141395
     36 H                     0.225596      -0.008404
     37 C                    -0.060665       0.140768
     38 C                     0.252009      -0.093220
     39 C                     0.202774      -0.115007
     40 C                    -0.382321       0.134388
     41 H                     0.224913      -0.007985
     42 C                    -0.204966      -0.099296
     43 H                     0.229634       0.004851
     44 C                    -0.332091       0.150011
     45 H                     0.222179      -0.008821
     46 C                    -0.201993      -0.096777
     47 H                     0.228917       0.004777
     48 C                    -0.337473       0.140532
     49 H                     0.222277      -0.008250
     50 B                     0.613516       0.217090
     51 C                    -0.216193      -0.017630
     52 C                     0.075610       0.001039
     53 C                    -0.324125       0.004455
     54 H                     0.237849      -0.002032
     55 C                    -0.234879      -0.000160
     56 H                     0.216957       0.000052
     57 C                    -0.231818       0.000095
     58 H                     0.215100       0.000035
     59 C                    -0.286424       0.000878
     60 H                     0.208041      -0.000026
     61 C                     0.130592      -0.000234
     62 C                    -0.314873      -0.000003
     63 H                     0.206871      -0.000002
     64 C                    -0.266377       0.000002
     65 H                     0.205278       0.000210
     66 C                     0.014543       0.001077
     67 C                    -0.748140       0.001129
     68 H                     0.230196       0.001277
     69 H                     0.244064      -0.000644
     70 H                     0.244012      -0.000647
     71 C                    -0.220091      -0.019117
     72 C                     0.013281       0.001349
     73 C                    -0.266012      -0.000001
     74 H                     0.205635       0.000211
     75 C                    -0.314846       0.000055
     76 H                     0.207092      -0.000005
     77 C                     0.132950      -0.000232
     78 C                    -0.285776       0.000637
     79 H                     0.208125      -0.000012
     80 C                    -0.232186       0.000050
     81 H                     0.215169       0.000037
     82 C                    -0.234655      -0.000299
     83 H                     0.217053       0.000065
     84 C                    -0.324332       0.004157
     85 H                     0.237280      -0.001896
     86 C                     0.075626       0.001381
     87 C                    -0.747638       0.000923
     88 H                     0.230286       0.001281
     89 H                     0.243471      -0.000568
     90 H                     0.244597      -0.000733
  --------------------------------------------------------
  Sum of atomic charges =    -0.000000

                    Cartesian Multipole Moments
 -----------------------------------------------------------------
    Charge (ESU x 10^10)
                -0.0000
    Dipole Moment (Debye)
         X      -0.0935      Y       0.0214      Z      -0.0823
       Tot       0.1264
    Quadrupole Moments (Debye-Ang)
        XX    -281.9924     XY       3.1323     YY    -317.4859
        XZ     -11.8909     YZ       1.3647     ZZ    -265.2798

 Total job time:  23502.19s(wall), 70690.13s(cpu)
        *  Thank you very much for using Q-Chem.  Have a nice day.  *
