 Q-Chem 5.0, Q-Chem, Inc., Pleasanton, CA (2017)
 Q-Chem 5.0.1 for Intel X86 EM64T Linux

User input:
--------------------------------------------------------------
$rem
threads 8
jobtype opt
method PBEh-3c
basis def2-mSVP
mem_static      1024
mem_total       8000
sym_ignore      true
unrestricted true
scf_algorithm	diis
scf_max_cycles	2500
solvent_method  pcm
geom_opt_tol_energy 25
geom_opt_tol_gradient 75
$end

$pcm
theory  iefpcm
$end

$solvent
dielectric      8.93
$end

$molecule
read uincoords.mol
$end
--------------------------------------------------------------

   21   -2123.3197420003      6.89E-09 Convergence criterion met
 Total energy in the final basis set = -2123.31974200
   18   -2123.3202163500      8.18E-09 Convergence criterion met
 Total energy in the final basis set = -2123.32021635
   18   -2123.3202875267      8.23E-09 Convergence criterion met
 Total energy in the final basis set = -2123.32028753
   18   -2123.3203089008      8.82E-09 Convergence criterion met
 Total energy in the final basis set = -2123.32030890
   18   -2123.3203206476      9.51E-09 Convergence criterion met
 Total energy in the final basis set = -2123.32032065
   18   -2123.3203442121      9.05E-09 Convergence criterion met
 Total energy in the final basis set = -2123.32034421
   18   -2123.3203773979      8.41E-09 Convergence criterion met
 Total energy in the final basis set = -2123.32037740
   18   -2123.3203810003      9.52E-09 Convergence criterion met
 Total energy in the final basis set = -2123.32038100
   18   -2123.3203654864      8.68E-09 Convergence criterion met
 Total energy in the final basis set = -2123.32036549
   18   -2123.3203681018      9.95E-09 Convergence criterion met
 Total energy in the final basis set = -2123.32036810

             Standard Nuclear Orientation (Angstroms)
    I     Atom           X                Y                Z
 ----------------------------------------------------------------
    1      C      -0.0317469230     0.0779136351     0.0798103342
    2      C      -0.0366241849     0.0550804248     1.4960356999
    3      H       0.9026002503     0.0561101350     2.0415938640
    4      C      -1.2216173723     0.0280334492     2.1915397770
    5      C      -2.4585771544     0.0208150232     1.4798318298
    6      C      -2.4759801577     0.0384831900     0.1067524514
    7      H      -3.4239405978     0.0294016078    -0.4218899724
    8      C      -1.2764607532     0.0681605720    -0.6271429792
    9      C      -3.5468215393    -0.0076878419     2.4471355268
   10      C      -4.9175568794    -0.0236483160     2.3627571726
   11      H      -5.4316300133    -0.0160403486     1.4092111973
   12      C      -2.9438218934    -0.0172830435     3.7201918740
   13      C      -3.6575712206    -0.0427269112     4.9153514409
   14      C      -1.5365058012     0.0029625103     3.6226698196
   15      C      -0.8104361387    -0.0034414908     4.7868096236
   16      H       0.2724445395     0.0110581424     4.7855738158
   17      C      -1.5070182285    -0.0296263515     6.0192179907
   18      H      -0.9301134044    -0.0344262998     6.9351720141
   19      C      -2.8816017728    -0.0487381749     6.0994091903
   20      H      -3.3675692146    -0.0680955148     7.0672811569
   21      C      -5.6660363224    -0.0492982755     3.5621276951
   22      H      -6.7467877400    -0.0613539903     3.4968823033
   23      C      -5.0710815329    -0.0589929699     4.8040775501
   24      H      -5.6848064749    -0.0786461259     5.6964759348
   25      B       1.2693593154     0.1174008087    -0.7201783359
   26      C       1.2674102819     0.1299171034    -2.2471453700
   27      C       2.4713452352     0.1537484336    -2.9940016193
   28      H       3.4284910715     0.1601580052    -2.4810317559
   29      C       2.4419113219     0.1653883186    -4.3674297461
   30      C       1.1865553293     0.1544656985    -5.0463370401
   31      C       0.0089351453     0.1315671877    -4.3425648416
   32      H      -0.9366001962     0.1219053962    -4.8752997345
   33      C       0.0138686795     0.1190487153    -2.9365736468
   34      C       1.4368990009     0.1689416739    -6.4813346068
   35      C       0.6465782674     0.1683014462    -7.6051932106
   36      H      -0.4348685977     0.1555274196    -7.5434523236
   37      C       2.8365934962     0.1877045455    -6.6370825008
   38      C       3.4783412365     0.2054994343    -7.8741998373
   39      C       3.4951412875     0.1866289139    -5.3895237368
   40      C       4.8677819536     0.2042742207    -5.3885037634
   41      H       5.4391141264     0.2049341974    -4.4685506286
   42      C       1.2737313514     0.1862090514    -8.8728933373
   43      H       0.6500206846     0.1859473704    -9.7580681550
   44      C       2.6425668780     0.2041536953    -9.0194614259
   45      H       3.0808823211     0.2174841640   -10.0100930971
   46      C       5.5489625633     0.2221663049    -6.6298422324
   47      H       6.6313944248     0.2359045355    -6.6216580278
   48      C       4.8930344668     0.2230892502    -7.8404108601
   49      H       5.4583592189     0.2375482809    -8.7644840692
   50      B      -1.3107935331     0.0850189741    -2.1621118148
   51      C       2.6458266649     0.1587846709     0.0459015009
   52      C       3.3393060870    -1.0318556565     0.3778704781
   53      C       2.8265913433    -2.2866747229     0.0103501072
   54      H       1.8929056294    -2.3438050472    -0.5359033969
   55      C       3.5032236940    -3.4555622430     0.3376829358
   56      H       3.0931249861    -4.4121045289     0.0443067552
   57      C       4.6979360020    -3.3955625721     1.0392469956
   58      H       5.2222910973    -4.3060167566     1.2956296926
   59      C       5.2279289473    -2.1644174568     1.4168392747
   60      H       6.1609619172    -2.1223412261     1.9648853490
   61      C       4.5630809902    -0.9811271324     1.0927140395
   62      C       5.0794734829     0.2822352841     1.4617079113
   63      H       6.0128847193     0.3311554182     2.0088695183
   64      C       4.4115204372     1.4498794079     1.1296225019
   65      H       4.8324658018     2.4030121137     1.4217841749
   66      C       3.2139238542     1.4137592864     0.4283383135
   67      C       2.5022555920     2.6709067429     0.0667013887
   68      H       3.0464209121     3.5544686177     0.3935398549
   69      H       2.3540674580     2.7304793327    -1.0137500624
   70      H       1.5058655051     2.6899064471     0.5140274327
   71      C      -2.6852916313     0.0529063953    -2.9508872857
   72      C      -3.2501820313    -1.1518071553    -3.3272117788
   73      C      -4.4581987182    -1.1747679433    -4.0616110732
   74      H      -4.8806457450    -2.1318031401    -4.3466202556
   75      C      -5.0975939017    -0.0220153242    -4.4205125542
   76      H      -6.0219860901    -0.0581746016    -4.9853899803
   77      C      -4.5579163573     1.2298650726    -4.0572733074
   78      C      -5.1917722103     2.4435921666    -4.4132444730
   79      H      -6.1161043021     2.4032391665    -4.9783662801
   80      C      -4.6532276000     3.6475529998    -4.0534224730
   81      H      -5.1457409089     4.5706324378    -4.3312109098
   82      C      -3.4513298424     3.6877483979    -3.3170386528
   83      H      -3.0285682818     4.6430263286    -3.0331888672
   84      C      -2.8193681715     2.5278280639    -2.9609803850
   85      H      -1.8958907037     2.5740152720    -2.3952356316
   86      C      -3.3465608980     1.2605444705    -3.3163687661
   87      C      -2.5853537093    -2.4543517727    -2.9758777802
   88      H      -3.1789616034    -3.3094978798    -3.2997049643
   89      H      -1.6027187304    -2.5383471044    -3.4453166640
   90      H      -2.4302189538    -2.5471209774    -1.8992796860
 ----------------------------------------------------------------

   18   -2123.3203680313      9.93E-09 Convergence criterion met
 Total energy in the final basis set = -2123.32036803
 Final energy is   -2123.32036803125
 **  OPTIMIZATION CONVERGED  **

                    Orbital Energies (a.u.)
 --------------------------------------------------------------

 Alpha MOs
 -- Occupied --
-10.510 -10.509 -10.497 -10.496 -10.496 -10.492 -10.489 -10.489
-10.484 -10.482 -10.458 -10.458 -10.457 -10.456 -10.455 -10.455
-10.453 -10.453 -10.453 -10.453 -10.452 -10.452 -10.452 -10.452
-10.452 -10.452 -10.451 -10.451 -10.450 -10.450 -10.449 -10.449
-10.446 -10.446 -10.446 -10.446 -10.446 -10.444 -10.443 -10.442
-10.441 -10.441 -10.441 -10.440 -10.439 -10.439 -10.439 -10.438
-10.423 -10.423 -10.420 -10.420 -10.416 -10.415  -6.915  -6.909
 -1.024  -1.007  -1.006  -0.971  -0.969  -0.950  -0.948  -0.925
 -0.925  -0.918  -0.917  -0.896  -0.889  -0.888  -0.864  -0.855
 -0.844  -0.844  -0.841  -0.839  -0.838  -0.812  -0.807  -0.802
 -0.802  -0.798  -0.792  -0.759  -0.743  -0.726  -0.723  -0.718
 -0.710  -0.710  -0.709  -0.693  -0.680  -0.676  -0.670  -0.665
 -0.655  -0.655  -0.636  -0.635  -0.618  -0.608  -0.589  -0.587
 -0.583  -0.582  -0.579  -0.574  -0.569  -0.565  -0.565  -0.560
 -0.543  -0.542  -0.538  -0.534  -0.521  -0.520  -0.518  -0.516
 -0.510  -0.505  -0.498  -0.498  -0.494  -0.492  -0.485  -0.483
 -0.481  -0.480  -0.479  -0.478  -0.477  -0.476  -0.474  -0.472
 -0.470  -0.464  -0.463  -0.457  -0.456  -0.449  -0.446  -0.440
 -0.439  -0.434  -0.432  -0.430  -0.426  -0.423  -0.421  -0.416
 -0.416  -0.413  -0.407  -0.397  -0.390  -0.390  -0.390  -0.386
 -0.384  -0.383  -0.380  -0.374  -0.366  -0.365  -0.364  -0.360
 -0.342  -0.337  -0.329  -0.318  -0.317  -0.315  -0.309  -0.294
 -0.293  -0.291  -0.279  -0.274  -0.261  -0.250  -0.248  -0.241
 -0.161

 Beta MOs
 -- Occupied --
-10.507 -10.504 -10.495 -10.493 -10.492 -10.491 -10.490 -10.488
-10.484 -10.483 -10.459 -10.459 -10.457 -10.457 -10.454 -10.454
-10.453 -10.453 -10.453 -10.453 -10.452 -10.452 -10.452 -10.452
-10.451 -10.451 -10.451 -10.450 -10.450 -10.449 -10.449 -10.449
-10.446 -10.445 -10.445 -10.444 -10.444 -10.444 -10.443 -10.441
-10.441 -10.441 -10.441 -10.440 -10.440 -10.439 -10.439 -10.438
-10.423 -10.422 -10.421 -10.420 -10.415 -10.415  -6.912  -6.907
 -1.018  -1.006  -1.006  -0.971  -0.962  -0.949  -0.947  -0.924
 -0.924  -0.918  -0.906  -0.894  -0.887  -0.886  -0.863  -0.847
 -0.843  -0.842  -0.841  -0.838  -0.837  -0.810  -0.806  -0.801
 -0.801  -0.792  -0.790  -0.758  -0.739  -0.723  -0.720  -0.717
 -0.709  -0.706  -0.703  -0.693  -0.679  -0.673  -0.669  -0.664
 -0.653  -0.653  -0.636  -0.635  -0.614  -0.604  -0.586  -0.585
 -0.582  -0.581  -0.576  -0.573  -0.569  -0.564  -0.564  -0.559
 -0.543  -0.540  -0.535  -0.532  -0.520  -0.518  -0.517  -0.513
 -0.503  -0.499  -0.498  -0.495  -0.493  -0.491  -0.485  -0.481
 -0.480  -0.479  -0.477  -0.477  -0.475  -0.474  -0.470  -0.470
 -0.468  -0.464  -0.463  -0.456  -0.456  -0.447  -0.445  -0.438
 -0.438  -0.432  -0.432  -0.429  -0.423  -0.421  -0.418  -0.415
 -0.413  -0.406  -0.396  -0.390  -0.389  -0.388  -0.388  -0.385
 -0.382  -0.380  -0.379  -0.366  -0.365  -0.357  -0.356  -0.346
 -0.340  -0.329  -0.328  -0.319  -0.313  -0.310  -0.305  -0.289
 -0.288  -0.274  -0.268  -0.253  -0.247  -0.242  -0.240

          Ground-State Mulliken Net Atomic Charges

     Atom                 Charge (a.u.)    Spin (a.u.)
  --------------------------------------------------------
      1 C                    -0.139529       0.006681
      2 C                    -0.416955       0.003879
      3 H                     0.218411      -0.002001
      4 C                     0.079494       0.026298
      5 C                     0.057765       0.098655
      6 C                    -0.405789      -0.057348
      7 H                     0.231868       0.002271
      8 C                    -0.146825       0.064120
      9 C                     0.174756      -0.059064
     10 C                    -0.401976       0.085233
     11 H                     0.244772      -0.004951
     12 C                    -0.076253       0.022609
     13 C                     0.221130      -0.036127
     14 C                     0.176880      -0.040406
     15 C                    -0.410646       0.062473
     16 H                     0.239169      -0.003640
     17 C                    -0.231096      -0.042455
     18 H                     0.248793       0.002090
     19 C                    -0.361827       0.057625
     20 H                     0.246695      -0.003309
     21 C                    -0.232843      -0.052546
     22 H                     0.250371       0.002512
     23 C                    -0.359370       0.077316
     24 H                     0.245744      -0.004516
     25 B                     0.547792       0.354220
     26 C                    -0.143104       0.007230
     27 C                    -0.417202       0.004140
     28 H                     0.218877      -0.001976
     29 C                     0.079297       0.025704
     30 C                     0.056396       0.099128
     31 C                    -0.402924      -0.057480
     32 H                     0.232841       0.002288
     33 C                    -0.144751       0.065267
     34 C                     0.176058      -0.059135
     35 C                    -0.402215       0.085406
     36 H                     0.244628      -0.004964
     37 C                    -0.076756       0.022635
     38 C                     0.219257      -0.036138
     39 C                     0.177948      -0.040225
     40 C                    -0.411651       0.062228
     41 H                     0.239244      -0.003627
     42 C                    -0.232919      -0.052545
     43 H                     0.250386       0.002511
     44 C                    -0.358275       0.077236
     45 H                     0.245835      -0.004509
     46 C                    -0.230912      -0.042302
     47 H                     0.248758       0.002083
     48 C                    -0.361254       0.057289
     49 H                     0.246887      -0.003287
     50 B                     0.569352       0.279243
     51 C                    -0.129853       0.329478
     52 C                     0.082822      -0.114640
     53 C                    -0.301265       0.223786
     54 H                     0.305080      -0.014003
     55 C                    -0.226824       0.005502
     56 H                     0.288465      -0.001596
     57 C                    -0.220011       0.057042
     58 H                     0.288588      -0.003993
     59 C                    -0.271053       0.173252
     60 H                     0.285883      -0.008997
     61 C                     0.139684      -0.088698
     62 C                    -0.271044       0.360902
     63 H                     0.292330      -0.019320
     64 C                    -0.265810      -0.115647
     65 H                     0.280936       0.004302
     66 C                     0.054673       0.175266
     67 C                    -0.760224      -0.011794
     68 H                     0.267269       0.001312
     69 H                     0.279959       0.008985
     70 H                     0.280527       0.009927
     71 C                    -0.198466      -0.024351
     72 C                    -0.002554       0.002693
     73 C                    -0.290407      -0.000334
     74 H                     0.231944       0.000264
     75 C                    -0.339523       0.000682
     76 H                     0.235897      -0.000042
     77 C                     0.104238      -0.000425
     78 C                    -0.308259       0.000312
     79 H                     0.238316       0.000004
     80 C                    -0.262069      -0.000165
     81 H                     0.242392       0.000070
     82 C                    -0.261563      -0.000405
     83 H                     0.242698       0.000085
     84 C                    -0.344846       0.003741
     85 H                     0.256309      -0.001837
     86 C                     0.056183       0.002363
     87 C                    -0.758351       0.000437
     88 H                     0.242389       0.001508
     89 H                     0.245169      -0.000651
     90 H                     0.246039      -0.000830
  --------------------------------------------------------
  Sum of atomic charges =    -0.000000

                    Cartesian Multipole Moments
 -----------------------------------------------------------------
    Charge (ESU x 10^10)
                -0.0000
    Dipole Moment (Debye)
         X      15.4370      Y      -3.2852      Z       8.4915
       Tot      17.9220
    Quadrupole Moments (Debye-Ang)
        XX    -231.6109     XY      -8.6504     YY    -297.1294
        XZ      27.8507     YZ       1.6321     ZZ    -316.1308

 Total job time:  25071.99s(wall), 75882.40s(cpu)
        *  Thank you very much for using Q-Chem.  Have a nice day.  *
