 Q-Chem 5.0, Q-Chem, Inc., Pleasanton, CA (2017)
 Q-Chem 5.0.1 for Intel X86 EM64T Linux

User input:
--------------------------------------------------------------
$rem
threads 8
jobtype opt
method PBEh-3c
basis def2-mSVP
mem_static      1024
mem_total       8000
sym_ignore      true
unrestricted true
scf_algorithm	diis
scf_max_cycles	250
solvent_method  pcm
geom_opt_tol_energy 25
geom_opt_tol_gradient 75
$end

$pcm
theory  iefpcm
$end
$solvent
dielectric      4.33
$end

$molecule
read uincoords.mol
$end
--------------------------------------------------------------

   21   -2123.3108974888      8.28E-09 Convergence criterion met
 Total energy in the final basis set = -2123.31089749
   18   -2123.3112357954      8.33E-09 Convergence criterion met
 Total energy in the final basis set = -2123.31123580
   18   -2123.3112956444      6.91E-09 Convergence criterion met
 Total energy in the final basis set = -2123.31129564
   18   -2123.3113211935      6.68E-09 Convergence criterion met
 Total energy in the final basis set = -2123.31132119
   17   -2123.3113391232      9.92E-09 Convergence criterion met
 Total energy in the final basis set = -2123.31133912
   17   -2123.3113718751      9.86E-09 Convergence criterion met
 Total energy in the final basis set = -2123.31137188
   17   -2123.3114023823      9.95E-09 Convergence criterion met
 Total energy in the final basis set = -2123.31140238
   17   -2123.3114051607      9.90E-09 Convergence criterion met
   17   -2123.3114493319      9.70E-09 Convergence criterion met
 Total energy in the final basis set = -2123.31144933
   17   -2123.3115072767      8.67E-09 Convergence criterion met
 Total energy in the final basis set = -2123.31150728
   17   -2123.3115208831      8.48E-09 Convergence criterion met
 Total energy in the final basis set = -2123.31152088
   17   -2123.3115238318      9.76E-09 Convergence criterion met
 Total energy in the final basis set = -2123.31152383
   17   -2123.3115207137      9.88E-09 Convergence criterion met
 Total energy in the final basis set = -2123.31152071
   17   -2123.3115200459      9.88E-09 Convergence criterion met
 Total energy in the final basis set = -2123.31152005

             Standard Nuclear Orientation (Angstroms)
    I     Atom           X                Y                Z
 ----------------------------------------------------------------
    1      C      -0.0572025711     0.0822331049     0.1047073098
    2      C      -0.0735022605     0.0509335871     1.5202877793
    3      H       0.8609396699     0.0274751494     2.0741195002
    4      C      -1.2633639485     0.0411425578     2.2077923002
    5      C      -2.4943594690     0.0598162372     1.4888659950
    6      C      -2.5014062456     0.0773397160     0.1157680498
    7      H      -3.4446486743     0.0844775049    -0.4209783371
    8      C      -1.2963949039     0.0861552329    -0.6083128631
    9      C      -3.5894875071     0.0477659650     2.4487471726
   10      C      -4.9590219928     0.0599647143     2.3551884798
   11      H      -5.4659541059     0.0851622921     1.3982142205
   12      C      -2.9957441697     0.0177908299     3.7254849001
   13      C      -3.7176256824    -0.0033202596     4.9153743740
   14      C      -1.5880437373     0.0113771050     3.6371303979
   15      C      -0.8703323890    -0.0195581855     4.8053832611
   16      H       0.2126162661    -0.0275185139     4.8112534432
   17      C      -1.5749534478    -0.0424216133     6.0330896221
   18      H      -1.0044899871    -0.0671794701     6.9527353844
   19      C      -2.9497629489    -0.0346444867     6.1039360059
   20      H      -3.4422199555    -0.0527097537     7.0685490123
   21      C      -5.7161076596     0.0403608499     3.5491852991
   22      H      -6.7963788533     0.0504670886     3.4765312541
   23      C      -5.1302106177     0.0089896012     4.7945319624
   24      H      -5.7504367263    -0.0056932144     5.6825015877
   25      B       1.2510533217     0.0972422536    -0.6883599430
   26      C       1.2590716078     0.0831649656    -2.2167061425
   27      C       2.4654632408     0.0837207951    -2.9617961573
   28      H       3.4216626487     0.0831052100    -2.4481739959
   29      C       2.4397201519     0.0797837792    -4.3348188503
   30      C       1.1873829606     0.0865602131    -5.0175133362
   31      C       0.0075846173     0.0946806781    -4.3164488062
   32      H      -0.9368779338     0.1002365808    -4.8508283486
   33      C       0.0084502424     0.0934522786    -2.9114880910
   34      C       1.4417550524     0.0815646655    -6.4509401543
   35      C       0.6546385923     0.0847456102    -7.5768666645
   36      H      -0.4268972171     0.0952864362    -7.5176794681
   37      C       2.8418226073     0.0699994522    -6.6030235978
   38      C       3.4868706405     0.0599473429    -7.8381368972
   39      C       3.4964310325     0.0687438940    -5.3537861305
   40      C       4.8688150151     0.0564718684    -5.3490762285
   41      H       5.4374279474     0.0546426405    -4.4274339391
   42      C       1.2851444049     0.0752951797    -8.8425469458
   43      H       0.6639255744     0.0782386600    -9.7294429798
   44      C       2.6541873160     0.0628657122    -8.9854007810
   45      H       3.0949136635     0.0556846504    -9.9750081876
   46      C       5.5536670770     0.0458684373    -6.5880969053
   47      H       6.6361246351     0.0363022103    -6.5771634525
   48      C       4.9011369432     0.0474269274    -7.8002001864
   49      H       5.4693491984     0.0390508163    -8.7225748719
   50      B      -1.3209332988     0.0926518590    -2.1442602945
   51      C       2.6208318254     0.1669557780     0.0822147392
   52      C       3.4461036055    -0.9772355655     0.2383953205
   53      C       3.0638498254    -2.2143333011    -0.3047405684
   54      H       2.1312309456    -2.2899593256    -0.8498745495
   55      C       3.8679498055    -3.3376675906    -0.1544559123
   56      H       3.5566422552    -4.2802642385    -0.5831742332
   57      C       5.0598356229    -3.2510286030     0.5484647892
   58      H       5.6828688149    -4.1267339641     0.6694470078
   59      C       5.4577554720    -2.0385902010     1.1052015929
   60      H       6.3879340120    -1.9768080141     1.6563458103
   61      C       4.6657102403    -0.8998696984     0.9578950107
   62      C       5.0466536256     0.3444095184     1.5140192663
   63      H       5.9760122725     0.4131787459     2.0660212566
   64      C       4.2538029157     1.4680515407     1.3530505269
   65      H       4.5765631070     2.4098701279     1.7774356134
   66      C       3.0601574419     1.4089018956     0.6459066570
   67      C       2.2273670145     2.6298424393     0.4629643777
   68      H       2.7505484690     3.5274882411     0.7866824885
   69      H       1.9336605886     2.7472363086    -0.5820613443
   70      H       1.2983612217     2.5504341766     1.0321693854
   71      C      -2.6913705173     0.0788719724    -2.9396102851
   72      C      -3.2744981671    -1.1187652833    -3.3095961526
   73      C      -4.4796320422    -1.1260387765    -4.0483755319
   74      H      -4.9173665356    -2.0776666596    -4.3283299872
   75      C      -5.0978817509     0.0347587525    -4.4172118497
   76      H      -6.0208220869     0.0100715481    -4.9850625396
   77      C      -4.5388200208     1.2797410231    -4.0606963469
   78      C      -5.1503647786     2.5014840063    -4.4267437628
   79      H      -6.0732756260     2.4733347418    -4.9948881177
   80      C      -4.5926434223     3.6981393902    -4.0729164878
   81      H      -5.0683023570     4.6276253766    -4.3585351335
   82      C      -3.3929892019     3.7226348215    -3.3328405304
   83      H      -2.9547005853     4.6723063763    -3.0539494345
   84      C      -2.7822622000     2.5548305974    -2.9669498429
   85      H      -1.8599949652     2.5886781995    -2.3986377566
   86      C      -3.3301135807     1.2949245260    -3.3156507632
   87      C      -2.6321320738    -2.4291786815    -2.9464105402
   88      H      -3.2414743128    -3.2770277801    -3.2602548868
   89      H      -1.6523091508    -2.5349876398    -3.4172367637
   90      H      -2.4765042990    -2.5136229039    -1.8692526873
 ----------------------------------------------------------------

   18   -2123.3115198765      8.13E-09 Convergence criterion met
 Total energy in the final basis set = -2123.31151988
 Final energy is   -2123.31151987651
 **  OPTIMIZATION CONVERGED  **

                    Orbital Energies (a.u.)
 --------------------------------------------------------------

 Alpha MOs
 -- Occupied --
-10.512 -10.510 -10.499 -10.497 -10.496 -10.495 -10.492 -10.491
-10.486 -10.484 -10.456 -10.456 -10.454 -10.454 -10.453 -10.453
-10.451 -10.451 -10.451 -10.450 -10.450 -10.450 -10.450 -10.450
-10.449 -10.449 -10.449 -10.449 -10.448 -10.447 -10.445 -10.445
-10.445 -10.444 -10.443 -10.443 -10.442 -10.442 -10.439 -10.439
-10.439 -10.438 -10.437 -10.436 -10.436 -10.436 -10.436 -10.434
-10.422 -10.421 -10.418 -10.417 -10.413 -10.413  -6.913  -6.908
 -1.025  -1.004  -1.004  -0.971  -0.968  -0.948  -0.945  -0.923
 -0.923  -0.918  -0.914  -0.894  -0.891  -0.885  -0.860  -0.857
 -0.842  -0.842  -0.838  -0.837  -0.836  -0.810  -0.805  -0.800
 -0.800  -0.798  -0.790  -0.755  -0.745  -0.724  -0.721  -0.716
 -0.711  -0.710  -0.708  -0.690  -0.678  -0.673  -0.668  -0.662
 -0.653  -0.652  -0.634  -0.633  -0.620  -0.610  -0.591  -0.585
 -0.581  -0.581  -0.578  -0.572  -0.566  -0.563  -0.563  -0.557
 -0.544  -0.540  -0.539  -0.532  -0.523  -0.519  -0.517  -0.515
 -0.510  -0.504  -0.496  -0.495  -0.493  -0.490  -0.484  -0.483
 -0.481  -0.478  -0.477  -0.475  -0.474  -0.474  -0.472  -0.471
 -0.468  -0.463  -0.462  -0.456  -0.454  -0.450  -0.444  -0.440
 -0.435  -0.433  -0.430  -0.428  -0.426  -0.422  -0.419  -0.415
 -0.415  -0.413  -0.404  -0.395  -0.388  -0.387  -0.387  -0.384
 -0.383  -0.382  -0.377  -0.373  -0.363  -0.362  -0.361  -0.358
 -0.340  -0.335  -0.327  -0.320  -0.314  -0.312  -0.306  -0.295
 -0.290  -0.288  -0.276  -0.270  -0.258  -0.248  -0.245  -0.237
 -0.159

 Beta MOs
 -- Occupied --
-10.508 -10.505 -10.497 -10.496 -10.493 -10.493 -10.491 -10.491
-10.486 -10.486 -10.456 -10.456 -10.455 -10.454 -10.453 -10.453
-10.451 -10.451 -10.450 -10.450 -10.450 -10.450 -10.450 -10.450
-10.449 -10.449 -10.448 -10.448 -10.447 -10.447 -10.445 -10.445
-10.445 -10.443 -10.443 -10.443 -10.441 -10.441 -10.439 -10.438
-10.438 -10.438 -10.437 -10.437 -10.437 -10.436 -10.436 -10.434
-10.422 -10.421 -10.418 -10.417 -10.412 -10.412  -6.910  -6.905
 -1.019  -1.004  -1.003  -0.967  -0.963  -0.946  -0.944  -0.922
 -0.922  -0.914  -0.908  -0.892  -0.888  -0.885  -0.860  -0.848
 -0.841  -0.840  -0.837  -0.836  -0.835  -0.807  -0.803  -0.799
 -0.799  -0.793  -0.788  -0.755  -0.740  -0.721  -0.719  -0.714
 -0.707  -0.707  -0.705  -0.690  -0.677  -0.670  -0.667  -0.661
 -0.651  -0.650  -0.634  -0.633  -0.616  -0.606  -0.587  -0.583
 -0.580  -0.579  -0.575  -0.571  -0.566  -0.562  -0.561  -0.557
 -0.542  -0.540  -0.536  -0.530  -0.521  -0.518  -0.515  -0.512
 -0.502  -0.499  -0.495  -0.494  -0.492  -0.489  -0.482  -0.481
 -0.479  -0.477  -0.474  -0.474  -0.473  -0.471  -0.471  -0.469
 -0.468  -0.462  -0.461  -0.455  -0.454  -0.448  -0.443  -0.438
 -0.435  -0.431  -0.429  -0.427  -0.422  -0.420  -0.415  -0.413
 -0.410  -0.403  -0.393  -0.392  -0.387  -0.385  -0.385  -0.383
 -0.381  -0.378  -0.376  -0.363  -0.363  -0.355  -0.354  -0.345
 -0.338  -0.328  -0.325  -0.321  -0.310  -0.307  -0.302  -0.286
 -0.286  -0.270  -0.266  -0.250  -0.244  -0.239  -0.237

          Ground-State Mulliken Net Atomic Charges

     Atom                 Charge (a.u.)    Spin (a.u.)
  --------------------------------------------------------
      1 C                    -0.132317      -0.005765
      2 C                    -0.419739       0.013850
      3 H                     0.210483      -0.002612
      4 C                     0.084706       0.014400
      5 C                     0.063968       0.100047
      6 C                    -0.401834      -0.058836
      7 H                     0.230799       0.002404
      8 C                    -0.145950       0.066279
      9 C                     0.180321      -0.056829
     10 C                    -0.398272       0.080890
     11 H                     0.239730      -0.004710
     12 C                    -0.074495       0.020776
     13 C                     0.229210      -0.033083
     14 C                     0.182456      -0.034884
     15 C                    -0.408034       0.054474
     16 H                     0.229898      -0.003194
     17 C                    -0.224884      -0.037749
     18 H                     0.241371       0.001879
     19 C                    -0.358372       0.050475
     20 H                     0.239320      -0.002904
     21 C                    -0.226601      -0.049466
     22 H                     0.243887       0.002372
     23 C                    -0.355961       0.073026
     24 H                     0.238160      -0.004294
     25 B                     0.528480       0.364504
     26 C                    -0.145825      -0.000555
     27 C                    -0.411213       0.017528
     28 H                     0.211159      -0.002333
     29 C                     0.084578       0.012293
     30 C                     0.060924       0.111756
     31 C                    -0.396922      -0.061820
     32 H                     0.232002       0.002553
     33 C                    -0.148593       0.074524
     34 C                     0.181684      -0.062315
     35 C                    -0.398347       0.090274
     36 H                     0.239589      -0.005267
     37 C                    -0.075498       0.023171
     38 C                     0.227502      -0.036806
     39 C                     0.182808      -0.037362
     40 C                    -0.409264       0.059145
     41 H                     0.230009      -0.003470
     42 C                    -0.226633      -0.055008
     43 H                     0.243862       0.002628
     44 C                    -0.355055       0.082108
     45 H                     0.238205      -0.004823
     46 C                    -0.224634      -0.041219
     47 H                     0.241093       0.002052
     48 C                    -0.358189       0.055073
     49 H                     0.239286      -0.003164
     50 B                     0.583801       0.260585
     51 C                    -0.114944       0.324964
     52 C                     0.071079      -0.109658
     53 C                    -0.294698       0.214457
     54 H                     0.307943      -0.013308
     55 C                    -0.221309       0.012239
     56 H                     0.282737      -0.001942
     57 C                    -0.218312       0.052930
     58 H                     0.281115      -0.003812
     59 C                    -0.273883       0.170390
     60 H                     0.275924      -0.008960
     61 C                     0.147682      -0.089579
     62 C                    -0.275984       0.373999
     63 H                     0.281783      -0.020333
     64 C                    -0.261735      -0.132830
     65 H                     0.272709       0.005133
     66 C                     0.044425       0.202145
     67 C                    -0.752816      -0.014352
     68 H                     0.260553       0.001819
     69 H                     0.282837       0.007707
     70 H                     0.283060       0.014316
     71 C                    -0.201479      -0.023028
     72 C                     0.001749       0.002566
     73 C                    -0.284559      -0.000324
     74 H                     0.224888       0.000248
     75 C                    -0.335534       0.000676
     76 H                     0.228239      -0.000042
     77 C                     0.111734      -0.000405
     78 C                    -0.304090       0.000310
     79 H                     0.230426       0.000002
     80 C                    -0.256007      -0.000163
     81 H                     0.235303       0.000067
     82 C                    -0.256276      -0.000374
     83 H                     0.235925       0.000079
     84 C                    -0.338720       0.003526
     85 H                     0.252908      -0.001767
     86 C                     0.061190       0.002266
     87 C                    -0.757232       0.000419
     88 H                     0.237778       0.001423
     89 H                     0.245381      -0.000620
     90 H                     0.247550      -0.000778
  --------------------------------------------------------
  Sum of atomic charges =    -0.000000

                    Cartesian Multipole Moments
 -----------------------------------------------------------------
    Charge (ESU x 10^10)
                -0.0000
    Dipole Moment (Debye)
         X      14.1924      Y      -2.8321      Z       7.4154
       Tot      16.2614
    Quadrupole Moments (Debye-Ang)
        XX    -236.4198     XY     -10.5820     YY    -300.5892
        XZ      24.4566     YZ       6.2758     ZZ    -316.1607

 Total job time:  53046.91s(wall), 154785.33s(cpu)
        *  Thank you very much for using Q-Chem.  Have a nice day.  *
