 Q-Chem 5.0, Q-Chem, Inc., Pleasanton, CA (2017)
 Q-Chem 5.0.1 for Intel X86 EM64T Linux

User input:
--------------------------------------------------------------
$rem
threads 8
jobtype opt
method PBEh-3c
basis def2-mSVP
mem_static      1024
mem_total       8000
sym_ignore      true
unrestricted true
scf_algorithm	diis
scf_max_cycles	250
solvent_method  pcm
geom_opt_tol_energy 25
geom_opt_tol_gradient 75
$end

$pcm
theory  iefpcm
$end

$solvent
dielectric      2.38
$end

$molecule
read uincoords.mol
$end
--------------------------------------------------------------

   29   -2123.2999536605      6.10E-09 Convergence criterion met
 Total energy in the final basis set = -2123.29995366
   19   -2123.3001870733      8.86E-09 Convergence criterion met
 Total energy in the final basis set = -2123.30018707
   19   -2123.3002237889      7.07E-09 Convergence criterion met
 Total energy in the final basis set = -2123.30022379
   19   -2123.3002517599      6.91E-09 Convergence criterion met
 Total energy in the final basis set = -2123.30025176
   19   -2123.3002728579      6.82E-09 Convergence criterion met
 Total energy in the final basis set = -2123.30027286
   19   -2123.3003114467      7.56E-09 Convergence criterion met
 Total energy in the final basis set = -2123.30031145
   19   -2123.3003398567      9.03E-09 Convergence criterion met
 Total energy in the final basis set = -2123.30033986
   20   -2123.3003535978      8.09E-09 Convergence criterion met
   17   -2123.3010144886      9.81E-09 Convergence criterion met
 Total energy in the final basis set = -2123.30101449
   17   -2123.3010216141      9.46E-09 Convergence criterion met
 Total energy in the final basis set = -2123.30102161
   18   -2123.3010467815      6.51E-09 Convergence criterion met
 Total energy in the final basis set = -2123.30104678
   17   -2123.3010572642      9.99E-09 Convergence criterion met
 Total energy in the final basis set = -2123.30105726
   17   -2123.3010583817      9.27E-09 Convergence criterion met
 Total energy in the final basis set = -2123.30105838
   17   -2123.3010576794      9.13E-09 Convergence criterion met
 Total energy in the final basis set = -2123.30105768

             Standard Nuclear Orientation (Angstroms)
    I     Atom           X                Y                Z
 ----------------------------------------------------------------
    1      C      -0.0756767506     0.0853663410     0.1274729362
    2      C      -0.1014541588     0.0474989091     1.5415059052
    3      H       0.8287400494     0.0039591664     2.1012668102
    4      C      -1.2961175506     0.0512373759     2.2221613921
    5      C      -2.5207280223     0.0881892415     1.4976634583
    6      C      -2.5188315191     0.1030665838     0.1240128004
    7      H      -3.4573706879     0.1193879815    -0.4203880381
    8      C      -1.3094238397     0.0964611516    -0.5897680488
    9      C      -3.6218851644     0.0884103052     2.4508154476
   10      C      -4.9896973084     0.1204830052     2.3490290581
   11      H      -5.4900657372     0.1576357647     1.3890855176
   12      C      -3.0366590261     0.0444382436     3.7305003046
   13      C      -3.7655139643     0.0268578231     4.9155425465
   14      C      -1.6292228958     0.0186758836     3.6500477813
   15      C      -0.9190690230    -0.0295582719     4.8214555450
   16      H       0.1635653596    -0.0539488472     4.8332753501
   17      C      -1.6305199876    -0.0495413902     6.0450774524
   18      H      -1.0659587181    -0.0884378016     6.9677956717
   19      C      -3.0049932831    -0.0222593239     6.1077451842
   20      H      -3.5030123197    -0.0390979985     7.0694958528
   21      C      -5.7544209038     0.1056860971     3.5381528634
   22      H      -6.8339030764     0.1314799182     3.4589791347
   23      C      -5.1767638994     0.0594899100     4.7862281539
   24      H      -5.8026660377     0.0486829020     5.6702123406
   25      B       1.2406911699     0.0762696744    -0.6595223365
   26      C       1.2555677928     0.0406956836    -2.1921129929
   27      C       2.4617695328     0.0429127464    -2.9376905068
   28      H       3.4186636655     0.0520746766    -2.4266557261
   29      C       2.4365121308     0.0327990495    -4.3106140539
   30      C       1.1869910956     0.0391182011    -4.9945555290
   31      C       0.0066867066     0.0569338728    -4.2933985094
   32      H      -0.9381258064     0.0687348202    -4.8266099496
   33      C       0.0082274440     0.0604529165    -2.8899004186
   34      C       1.4426883233     0.0303361891    -6.4271219778
   35      C       0.6570651317     0.0324992358    -7.5535788710
   36      H      -0.4244100880     0.0450445772    -7.4953395590
   37      C       2.8426287055     0.0170982684    -6.5776567147
   38      C       3.4889562981     0.0041733979    -7.8115072065
   39      C       3.4951887066     0.0187064638    -5.3279752965
   40      C       4.8669681256     0.0060203282    -5.3212571804
   41      H       5.4340283040     0.0065851276    -4.3986886031
   42      C       1.2887623428     0.0199181470    -8.8182705480
   43      H       0.6686638801     0.0221955305    -9.7058691541
   44      C       2.6575778733     0.0056580919    -8.9593587059
   45      H       3.0991097660    -0.0036419086    -9.9485498686
   46      C       5.5537022738    -0.0077337849    -6.5588811235
   47      H       6.6361048770    -0.0173388558    -6.5466825028
   48      C       4.9027360898    -0.0087750055    -7.7713598953
   49      H       5.4724033660    -0.0191754560    -8.6927798417
   50      B      -1.3250318588     0.0858123011    -2.1272704999
   51      C       2.6031747814     0.1541078513     0.1101976640
   52      C       3.4945880712    -0.9535572026     0.1679823105
   53      C       3.1558334791    -2.1757004287    -0.4320785249
   54      H       2.1996908289    -2.2748189537    -0.9298800044
   55      C       4.0307458768    -3.2560264258    -0.3983754437
   56      H       3.7511954767    -4.1858929212    -0.8741798851
   57      C       5.2487601012    -3.1429003154     0.2512356563
   58      H       5.9285877247    -3.9836514312     0.2805936462
   59      C       5.5973661912    -1.9500279998     0.8799973618
   60      H       6.5458983973    -1.8696441865     1.3964563615
   61      C       4.7348677184    -0.8553819893     0.8500031027
   62      C       5.0615544528     0.3650439680     1.4921757595
   63      H       6.0041683035     0.4480913679     2.0189011917
   64      C       4.1977298605     1.4474871713     1.4438391874
   65      H       4.4821436587     2.3731162534     1.9276554651
   66      C       2.9915405437     1.3771411847     0.7634961907
   67      C       2.1038765959     2.5688817204     0.6759078064
   68      H       2.6107581340     3.4735116084     1.0070592671
   69      H       1.7492465169     2.7127683772    -0.3472360575
   70      H       1.2073225805     2.4376553342     1.2862529064
   71      C      -2.6907523019     0.0821500263    -2.9280758844
   72      C      -3.2863027296    -1.1114979630    -3.2893324648
   73      C      -4.4882114311    -1.1097194762    -4.0325171165
   74      H      -4.9371154302    -2.0580201617    -4.3057712739
   75      C      -5.0899264276     0.0555380166    -4.4132843480
   76      H      -6.0110630618     0.0372832508    -4.9842015341
   77      C      -4.5169752524     1.2964331770    -4.0659155575
   78      C      -5.1109715781     2.5225366030    -4.4444398022
   79      H      -6.0320637104     2.5017111511    -5.0157239928
   80      C      -4.5391049064     3.7144806712    -4.0988766658
   81      H      -5.0016144367     4.6474875743    -4.3942220689
   82      C      -3.3421004419     3.7299616141    -3.3550196341
   83      H      -2.8923746321     4.6761986252    -3.0830818563
   84      C      -2.7478892210     2.5580234298    -2.9770373127
   85      H      -1.8270730243     2.5848458074    -2.4060887798
   86      C      -3.3113218641     1.3029783045    -3.3166980962
   87      C      -2.6598674577    -2.4254174960    -2.9116580726
   88      H      -3.2794937848    -3.2694086090    -3.2155946367
   89      H      -1.6818036533    -2.5483313603    -3.3819441107
   90      H      -2.5053218000    -2.4998423939    -1.8336060121
 ----------------------------------------------------------------

   17   -2123.3010576161      8.71E-09 Convergence criterion met
 Total energy in the final basis set = -2123.30105762
 Final energy is   -2123.30105761613
 **  OPTIMIZATION CONVERGED  **

                    Orbital Energies (a.u.)
 --------------------------------------------------------------

 Alpha MOs
 -- Occupied --
-10.510 -10.509 -10.499 -10.495 -10.495 -10.495 -10.493 -10.491
-10.486 -10.484 -10.454 -10.454 -10.453 -10.453 -10.452 -10.452
-10.450 -10.450 -10.449 -10.449 -10.449 -10.448 -10.448 -10.448
-10.447 -10.447 -10.447 -10.447 -10.446 -10.446 -10.445 -10.442
-10.442 -10.442 -10.441 -10.440 -10.440 -10.440 -10.436 -10.436
-10.436 -10.435 -10.434 -10.434 -10.434 -10.433 -10.432 -10.431
-10.422 -10.420 -10.415 -10.414 -10.411 -10.411  -6.912  -6.909
 -1.024  -1.002  -1.002  -0.971  -0.964  -0.946  -0.944  -0.921
 -0.921  -0.917  -0.911  -0.892  -0.891  -0.884  -0.858  -0.856
 -0.840  -0.840  -0.835  -0.835  -0.835  -0.808  -0.803  -0.799
 -0.798  -0.796  -0.788  -0.753  -0.745  -0.723  -0.720  -0.714
 -0.711  -0.710  -0.707  -0.687  -0.676  -0.671  -0.666  -0.659
 -0.651  -0.650  -0.633  -0.632  -0.620  -0.610  -0.591  -0.583
 -0.580  -0.579  -0.577  -0.570  -0.564  -0.562  -0.561  -0.555
 -0.544  -0.539  -0.537  -0.531  -0.523  -0.518  -0.516  -0.514
 -0.509  -0.503  -0.494  -0.493  -0.492  -0.489  -0.484  -0.481
 -0.481  -0.476  -0.475  -0.474  -0.473  -0.472  -0.471  -0.469
 -0.467  -0.462  -0.459  -0.455  -0.453  -0.451  -0.442  -0.439
 -0.434  -0.431  -0.428  -0.426  -0.425  -0.420  -0.418  -0.415
 -0.414  -0.411  -0.402  -0.392  -0.387  -0.385  -0.385  -0.383
 -0.382  -0.380  -0.374  -0.372  -0.362  -0.359  -0.359  -0.357
 -0.337  -0.333  -0.326  -0.322  -0.312  -0.308  -0.304  -0.295
 -0.287  -0.285  -0.273  -0.267  -0.255  -0.245  -0.242  -0.234
 -0.157

 Beta MOs
 -- Occupied --
-10.506 -10.503 -10.497 -10.496 -10.492 -10.492 -10.491 -10.491
-10.486 -10.486 -10.454 -10.454 -10.452 -10.452 -10.452 -10.451
-10.450 -10.450 -10.449 -10.449 -10.448 -10.448 -10.448 -10.448
-10.447 -10.447 -10.447 -10.447 -10.446 -10.446 -10.445 -10.442
-10.441 -10.441 -10.441 -10.440 -10.439 -10.439 -10.436 -10.436
-10.436 -10.435 -10.435 -10.434 -10.434 -10.433 -10.432 -10.431
-10.422 -10.420 -10.415 -10.414 -10.410 -10.410  -6.909  -6.907
 -1.018  -1.002  -1.001  -0.964  -0.963  -0.945  -0.943  -0.921
 -0.920  -0.911  -0.907  -0.891  -0.888  -0.883  -0.857  -0.847
 -0.839  -0.838  -0.835  -0.834  -0.834  -0.806  -0.801  -0.798
 -0.796  -0.793  -0.787  -0.753  -0.741  -0.720  -0.718  -0.713
 -0.707  -0.706  -0.705  -0.687  -0.675  -0.668  -0.666  -0.659
 -0.649  -0.648  -0.633  -0.632  -0.616  -0.606  -0.588  -0.582
 -0.579  -0.577  -0.574  -0.570  -0.564  -0.561  -0.560  -0.554
 -0.542  -0.537  -0.536  -0.529  -0.521  -0.517  -0.514  -0.511
 -0.501  -0.498  -0.493  -0.492  -0.490  -0.488  -0.481  -0.480
 -0.477  -0.475  -0.472  -0.472  -0.471  -0.470  -0.469  -0.468
 -0.466  -0.461  -0.459  -0.454  -0.453  -0.449  -0.441  -0.438
 -0.432  -0.430  -0.427  -0.425  -0.422  -0.418  -0.414  -0.412
 -0.407  -0.401  -0.392  -0.391  -0.386  -0.383  -0.383  -0.382
 -0.379  -0.376  -0.374  -0.362  -0.359  -0.353  -0.352  -0.344
 -0.336  -0.327  -0.324  -0.321  -0.307  -0.304  -0.299  -0.284
 -0.283  -0.266  -0.264  -0.248  -0.242  -0.237  -0.233

          Ground-State Mulliken Net Atomic Charges

     Atom                 Charge (a.u.)    Spin (a.u.)
  --------------------------------------------------------
      1 C                    -0.125769      -0.022180
      2 C                    -0.422662       0.027691
      3 H                     0.204703      -0.003344
      4 C                     0.092359      -0.002497
      5 C                     0.070163       0.099032
      6 C                    -0.395393      -0.058449
      7 H                     0.229868       0.002500
      8 C                    -0.148930       0.067739
      9 C                     0.186896      -0.052119
     10 C                    -0.393062       0.072889
     11 H                     0.233241      -0.004261
     12 C                    -0.072130       0.017754
     13 C                     0.238572      -0.028136
     14 C                     0.188424      -0.026379
     15 C                    -0.403499       0.042239
     16 H                     0.220324      -0.002492
     17 C                    -0.216951      -0.030392
     18 H                     0.233036       0.001537
     19 C                    -0.353010       0.039541
     20 H                     0.230799      -0.002274
     21 C                    -0.218830      -0.044007
     22 H                     0.236253       0.002113
     23 C                    -0.350534       0.065441
     24 H                     0.229522      -0.003877
     25 B                     0.517975       0.363371
     26 C                    -0.144109      -0.017235
     27 C                    -0.407101       0.035508
     28 H                     0.205392      -0.002928
     29 C                     0.093968      -0.005556
     30 C                     0.066037       0.120198
     31 C                    -0.389008      -0.062562
     32 H                     0.231337       0.002645
     33 C                    -0.153681       0.081554
     34 C                     0.188376      -0.062181
     35 C                    -0.393038       0.089976
     36 H                     0.233158      -0.005274
     37 C                    -0.073657       0.022280
     38 C                     0.237023      -0.034993
     39 C                     0.189175      -0.031301
     40 C                    -0.404511       0.051061
     41 H                     0.220340      -0.003016
     42 C                    -0.218756      -0.054225
     43 H                     0.236195       0.002587
     44 C                    -0.349772       0.082259
     45 H                     0.229496      -0.004862
     46 C                    -0.216729      -0.036956
     47 H                     0.232409       0.001867
     48 C                    -0.353106       0.048262
     49 H                     0.230525      -0.002771
     50 B                     0.607259       0.222258
     51 C                    -0.106317       0.342959
     52 C                     0.059831      -0.107192
     53 C                    -0.291669       0.205368
     54 H                     0.306107      -0.012752
     55 C                    -0.216852       0.024547
     56 H                     0.272624      -0.002653
     57 C                    -0.216874       0.048700
     58 H                     0.269249      -0.003701
     59 C                    -0.279077       0.172430
     60 H                     0.261528      -0.009293
     61 C                     0.155202      -0.094812
     62 C                    -0.285326       0.412322
     63 H                     0.266354      -0.023043
     64 C                    -0.257011      -0.154311
     65 H                     0.260068       0.006086
     66 C                     0.036621       0.240628
     67 C                    -0.746033      -0.018720
     68 H                     0.252126       0.002237
     69 H                     0.281819       0.009156
     70 H                     0.282785       0.017965
     71 C                    -0.206721      -0.020134
     72 C                     0.007146       0.002261
     73 C                    -0.277192      -0.000267
     74 H                     0.216931       0.000212
     75 C                    -0.329518       0.000580
     76 H                     0.219609      -0.000036
     77 C                     0.119950      -0.000337
     78 C                    -0.298195       0.000267
     79 H                     0.221477       0.000002
     80 C                    -0.248009      -0.000135
     81 H                     0.227113       0.000058
     82 C                    -0.249118      -0.000335
     83 H                     0.228014       0.000067
     84 C                    -0.332185       0.003065
     85 H                     0.247685      -0.001587
     86 C                     0.067718       0.001969
     87 C                    -0.755827       0.000370
     88 H                     0.233532       0.001237
     89 H                     0.245342      -0.000544
     90 H                     0.248504      -0.000670
  --------------------------------------------------------
  Sum of atomic charges =    -0.000000

                    Cartesian Multipole Moments
 -----------------------------------------------------------------
    Charge (ESU x 10^10)
                -0.0000
    Dipole Moment (Debye)
         X      11.8647      Y      -2.3399      Z       5.9307
       Tot      13.4692
    Quadrupole Moments (Debye-Ang)
        XX    -244.3554     XY      -9.7277     YY    -304.5967
        XZ      19.2888     YZ       7.5988     ZZ    -312.9132

 Total job time:  100968.17s(wall), 313225.02s(cpu)
        *  Thank you very much for using Q-Chem.  Have a nice day.  *
