 Q-Chem 5.0, Q-Chem, Inc., Pleasanton, CA (2017)
 Q-Chem 5.0.1 for Intel X86 EM64T Linux

User input:
--------------------------------------------------------------
$rem
threads 8
jobtype opt
method PBEh-3c
basis def2-mSVP
mem_static      1024
mem_total       8000
sym_ignore      true
unrestricted true
scf_algorithm	diis
scf_max_cycles	250
solvent_method  pcm
geom_opt_tol_energy 25
geom_opt_tol_gradient 75
$end

$pcm
theory  iefpcm
$end
$solvent
dielectric      4.33
$end

$molecule
read utLEincoords.mol
$end
--------------------------------------------------------------

   24   -2123.3203473599      9.35E-09 Convergence criterion met
 Total energy in the final basis set = -2123.32034736
   18   -2123.3213231564      9.12E-09 Convergence criterion met
 Total energy in the final basis set = -2123.32132316
   17   -2123.3216256632      9.79E-09 Convergence criterion met
 Total energy in the final basis set = -2123.32162566
   16   -2123.3217716694      9.68E-09 Convergence criterion met
 Total energy in the final basis set = -2123.32177167
   16   -2123.3218325100      9.09E-09 Convergence criterion met
 Total energy in the final basis set = -2123.32183251
   16   -2123.3218782602      9.93E-09 Convergence criterion met
 Total energy in the final basis set = -2123.32187826
   15   -2123.3218830562      8.16E-09 Convergence criterion met
 Total energy in the final basis set = -2123.32188306
   15   -2123.3218848774      7.60E-09 Convergence criterion met
   15   -2123.3218831964      7.61E-09 Convergence criterion met
 Total energy in the final basis set = -2123.32188320
   15   -2123.3218801204      7.53E-09 Convergence criterion met
 Total energy in the final basis set = -2123.32188012
   15   -2123.3218782474      7.01E-09 Convergence criterion met
 Total energy in the final basis set = -2123.32187825
   15   -2123.3218765873      6.61E-09 Convergence criterion met
 Total energy in the final basis set = -2123.32187659
   15   -2123.3218734152      6.45E-09 Convergence criterion met
 Total energy in the final basis set = -2123.32187342
   15   -2123.3218719477      6.47E-09 Convergence criterion met
 Total energy in the final basis set = -2123.32187195

             Standard Nuclear Orientation (Angstroms)
    I     Atom           X                Y                Z
 ----------------------------------------------------------------
    1      C      -2.5591646539     0.3985183277    -0.2089943590
    2      C      -2.3994610659    -1.0021582913    -0.0220593140
    3      C      -1.1436957270    -1.5562057575     0.0498967400
    4      C      -0.0067610787    -0.7395322994    -0.0673264284
    5      C      -0.1649397661     0.6610043854    -0.2633466115
    6      C      -1.4572360929     1.2108824739    -0.3291284793
    7      B       1.3947224046    -1.3781168262     0.0041146061
    8      C       2.6322095813    -0.4888504200    -0.1883933927
    9      C       2.4718032276     0.9779053449    -0.3834050379
   10      B       1.0602871237     1.5855788796    -0.4150274258
   11      C       3.8973590822    -1.0495610433    -0.2093892449
   12      C       5.0146462626    -0.2508049182    -0.4161786923
   13      C       4.8600017388     1.2238823976    -0.5888819042
   14      C       3.5913266199     1.7829996711    -0.5610908184
   15      C       6.6698427564     3.0357027634    -1.0380688775
   16      C       6.1590886317     1.7666623070    -0.8022516381
   17      C       7.0597720113     0.6698441001    -0.7723750770
   18      C       8.4322309455     0.7756688524    -0.9752453541
   19      C       8.9207102843     2.0833250780    -1.2124197833
   20      C       8.0515945886     3.1635165092    -1.2378787092
   21      C       6.3892304234    -0.5607896812    -0.5382048050
   22      C       7.1311361547    -1.7362295119    -0.5015245074
   23      C       8.5136921403    -1.6451476074    -0.6995094210
   24      C       9.1610170504    -0.4390676335    -0.9296218324
   25      C      -6.1687581277     1.6872605592    -0.3651013891
   26      C      -6.7975008309     0.4740591747    -0.2035707130
   27      C      -6.0306103866    -0.7059988380    -0.0525323382
   28      C      -4.6471513559    -0.5472424248    -0.0759219216
   29      C      -3.9939332417     0.6884663896    -0.2412330585
   30      C      -4.7594747830     1.8164671699    -0.3879795065
   31      C      -6.5078033174    -2.0289850648     0.1163827395
   32      C      -5.6183419039    -3.0711330222     0.2443541134
   33      C      -4.2160011828    -2.8797373849     0.2182400490
   34      C      -3.7303521516    -1.6066184729     0.0584490425
   35      C       0.8284744170     3.1289469569    -0.6243866930
   36      C       1.5394858269    -2.9256363385     0.2700633670
   37      C       1.6111726238    -3.8476646551    -0.8115696534
   38      C       1.7200854364    -5.2411279753    -0.5604456838
   39      C       1.7518042188    -5.6885465896     0.7768669173
   40      C       1.6697943444    -4.7934726724     1.8050427586
   41      C       1.5589870931    -3.4047537298     1.5651171065
   42      C       1.5632004382    -3.4175475757    -2.1617331622
   43      C       1.6263412211    -4.3112446705    -3.1953605471
   44      C       1.7434013153    -5.6922368392    -2.9376590682
   45      C       1.7887903768    -6.1432285829    -1.6482013683
   46      C       0.6601883579     3.9880901341     0.4967011897
   47      C       0.3646718849     5.3626460278     0.3082867232
   48      C       0.2499252247     5.8541311341    -1.0101354562
   49      C       0.4122284302     5.0164051964    -2.0771680536
   50      C       0.6967381569     3.6432588739    -1.8991868707
   51      C       0.7608398109     3.4995878350     1.8229231063
   52      C       0.5758142001     4.3251862959     2.8969816970
   53      C       0.2834564713     5.6905055188     2.7027297243
   54      C       0.1825056308     6.1954673089     1.4361401077
   55      C       0.8105108744     2.7485249362    -3.1032933168
   56      C       1.4317847403    -2.4649907214     2.7316128791
   57      H      -1.0281670389    -2.6248517124     0.1935331527
   58      H      -1.5838424858     2.2762933476    -0.4803282778
   59      H       4.0144191358    -2.1193980385    -0.0767855693
   60      H       3.4630369594     2.8508253012    -0.6972539354
   61      H       6.0294136760     3.9071608171    -1.0734350113
   62      H       9.9785515666     2.2424478687    -1.3790039987
   63      H       8.4571399507     4.1494358056    -1.4236259556
   64      H       6.6631376384    -2.6975810821    -0.3332821778
   65      H       9.1022052077    -2.5530887812    -0.6762583637
   66      H      10.2331261325    -0.4293847082    -1.0804345491
   67      H      -6.7710623912     2.5789564436    -0.4801833697
   68      H      -7.8795903962     0.4211972512    -0.1935808152
   69      H      -4.3167093939     2.7956293867    -0.5190872518
   70      H      -7.5735808044    -2.2219736728     0.1427954836
   71      H      -6.0000383604    -4.0763661710     0.3691590603
   72      H      -3.5601533799    -3.7353732637     0.3217528071
   73      H       1.8380327734    -6.7501386875     0.9772988126
   74      H       1.6882208106    -5.1498295511     2.8284820779
   75      H       1.4698750532    -2.3597828783    -2.3804769776
   76      H       1.5854883804    -3.9586158061    -4.2179614709
   77      H       1.7941571334    -6.3910381686    -3.7627629529
   78      H       1.8759336636    -7.2039509075    -1.4427925278
   79      H       0.0258049701     6.9027152492    -1.1667812725
   80      H       0.3146467315     5.4059091970    -3.0841206503
   81      H       0.9837742852     2.4512917045     1.9882499528
   82      H       0.6521827807     3.9302789131     3.9018104782
   83      H       0.1379941782     6.3352437608     3.5596978412
   84      H      -0.0437333485     7.2438801064     1.2802890524
   85      H       0.8174528346     3.3200914925    -4.0312082040
   86      H      -0.0283786567     2.0501379259    -3.1574303718
   87      H       1.7216374583     2.1479520338    -3.0801618138
   88      H       1.6235689613    -2.9693739840     3.6783320451
   89      H       0.4270848845    -2.0388189489     2.7847128314
   90      H       2.1283836342    -1.6275742966     2.6579905681
 ----------------------------------------------------------------

   16   -2123.3218715452      6.36E-09 Convergence criterion met
 Total energy in the final basis set = -2123.32187155
 Final energy is   -2123.32187154523
 **  OPTIMIZATION CONVERGED  **

                    Orbital Energies (a.u.)
 --------------------------------------------------------------

 Alpha MOs
 -- Occupied --
-10.488 -10.486 -10.472 -10.470 -10.469 -10.468 -10.466 -10.466
-10.466 -10.465 -10.464 -10.464 -10.464 -10.463 -10.463 -10.462
-10.462 -10.460 -10.460 -10.460 -10.459 -10.459 -10.459 -10.456
-10.456 -10.455 -10.455 -10.454 -10.453 -10.453 -10.453 -10.453
-10.452 -10.451 -10.451 -10.448 -10.446 -10.446 -10.445 -10.445
-10.445 -10.445 -10.444 -10.444 -10.444 -10.444 -10.442 -10.442
-10.437 -10.436 -10.428 -10.427 -10.426 -10.426  -6.937  -6.936
 -1.029  -1.015  -0.977  -0.976  -0.969  -0.960  -0.939  -0.931
 -0.924  -0.923  -0.915  -0.902  -0.875  -0.868  -0.867  -0.854
 -0.854  -0.846  -0.846  -0.845  -0.827  -0.822  -0.813  -0.811
 -0.808  -0.807  -0.765  -0.764  -0.745  -0.738  -0.727  -0.722
 -0.701  -0.698  -0.692  -0.692  -0.680  -0.673  -0.673  -0.670
 -0.669  -0.658  -0.650  -0.645  -0.604  -0.597  -0.594  -0.588
 -0.585  -0.578  -0.577  -0.575  -0.574  -0.567  -0.566  -0.548
 -0.548  -0.546  -0.535  -0.529  -0.528  -0.514  -0.513  -0.506
 -0.506  -0.505  -0.503  -0.503  -0.500  -0.495  -0.492  -0.486
 -0.486  -0.485  -0.480  -0.480  -0.479  -0.474  -0.471  -0.470
 -0.466  -0.465  -0.454  -0.453  -0.447  -0.447  -0.446  -0.441
 -0.439  -0.439  -0.438  -0.432  -0.429  -0.428  -0.424  -0.413
 -0.408  -0.408  -0.403  -0.401  -0.395  -0.394  -0.394  -0.389
 -0.388  -0.385  -0.382  -0.381  -0.372  -0.370  -0.358  -0.356
 -0.352  -0.345  -0.338  -0.326  -0.320  -0.318  -0.313  -0.298
 -0.293  -0.278  -0.278  -0.278  -0.267  -0.259  -0.247  -0.246
 -0.185

 Beta MOs
 -- Occupied --
-10.481 -10.480 -10.473 -10.472 -10.471 -10.467 -10.467 -10.467
-10.464 -10.463 -10.463 -10.463 -10.462 -10.462 -10.462 -10.462
-10.461 -10.461 -10.461 -10.461 -10.460 -10.459 -10.459 -10.457
-10.456 -10.455 -10.454 -10.453 -10.453 -10.453 -10.453 -10.451
-10.451 -10.450 -10.448 -10.447 -10.446 -10.446 -10.445 -10.445
-10.445 -10.445 -10.444 -10.444 -10.444 -10.444 -10.442 -10.442
-10.436 -10.436 -10.428 -10.428 -10.426 -10.426  -6.935  -6.935
 -1.022  -1.015  -0.977  -0.976  -0.961  -0.958  -0.935  -0.931
 -0.923  -0.923  -0.909  -0.901  -0.873  -0.868  -0.866  -0.853
 -0.850  -0.846  -0.846  -0.844  -0.819  -0.818  -0.813  -0.809
 -0.808  -0.797  -0.765  -0.764  -0.736  -0.735  -0.726  -0.720
 -0.699  -0.698  -0.690  -0.688  -0.678  -0.673  -0.670  -0.669
 -0.669  -0.657  -0.647  -0.645  -0.601  -0.594  -0.591  -0.587
 -0.584  -0.577  -0.575  -0.575  -0.574  -0.566  -0.566  -0.548
 -0.548  -0.543  -0.532  -0.527  -0.526  -0.513  -0.511  -0.505
 -0.503  -0.503  -0.503  -0.500  -0.493  -0.492  -0.485  -0.485
 -0.483  -0.482  -0.480  -0.480  -0.478  -0.474  -0.470  -0.470
 -0.465  -0.464  -0.452  -0.452  -0.446  -0.445  -0.441  -0.439
 -0.438  -0.437  -0.432  -0.429  -0.428  -0.422  -0.414  -0.412
 -0.406  -0.401  -0.400  -0.396  -0.394  -0.394  -0.393  -0.387
 -0.385  -0.385  -0.379  -0.371  -0.370  -0.362  -0.355  -0.351
 -0.343  -0.337  -0.332  -0.325  -0.319  -0.315  -0.299  -0.293
 -0.278  -0.278  -0.268  -0.263  -0.256  -0.247  -0.246

          Ground-State Mulliken Net Atomic Charges

     Atom                 Charge (a.u.)    Spin (a.u.)
  --------------------------------------------------------
      1 C                     0.093278       0.032853
      2 C                     0.083342       0.036833
      3 C                    -0.394956      -0.008582
      4 C                    -0.147063       0.017221
      5 C                    -0.143409       0.014395
      6 C                    -0.393960      -0.005071
      7 B                     0.651074       0.168926
      8 C                    -0.142707       0.332695
      9 C                    -0.142782       0.378312
     10 B                     0.654160       0.170602
     11 C                    -0.365456      -0.249240
     12 C                     0.071213       0.452433
     13 C                     0.086688       0.457744
     14 C                    -0.378472      -0.270600
     15 C                    -0.382426       0.291720
     16 C                     0.191922      -0.211425
     17 C                    -0.063891       0.280396
     18 C                     0.237126      -0.194055
     19 C                    -0.351507       0.312234
     20 C                    -0.224213      -0.201269
     21 C                     0.189996      -0.202900
     22 C                    -0.374981       0.303077
     23 C                    -0.225018      -0.205690
     24 C                    -0.347886       0.333828
     25 C                    -0.226675      -0.016492
     26 C                    -0.346942       0.023013
     27 C                     0.225672      -0.014595
     28 C                    -0.064345       0.018423
     29 C                     0.186098      -0.020074
     30 C                    -0.393393       0.023539
     31 C                    -0.345311       0.024084
     32 C                    -0.227273      -0.016968
     33 C                    -0.391134       0.024696
     34 C                     0.184808      -0.021007
     35 C                    -0.222591      -0.016151
     36 C                    -0.217330      -0.016480
     37 C                     0.072172       0.001508
     38 C                     0.110778      -0.000140
     39 C                    -0.330031       0.000057
     40 C                    -0.286429      -0.000023
     41 C                     0.008440       0.001330
     42 C                    -0.343409       0.002965
     43 C                    -0.254144      -0.000128
     44 C                    -0.254489      -0.000084
     45 C                    -0.302595       0.000341
     46 C                     0.074623       0.001218
     47 C                     0.110259       0.000051
     48 C                    -0.330441      -0.000489
     49 C                    -0.285132       0.000407
     50 C                     0.011110       0.001025
     51 C                    -0.341854       0.003294
     52 C                    -0.254883      -0.000516
     53 C                    -0.254322       0.000172
     54 C                    -0.303462       0.000025
     55 C                    -0.761315       0.000959
     56 C                    -0.761152       0.001095
     57 H                     0.243698      -0.000025
     58 H                     0.244205      -0.000219
     59 H                     0.254125       0.010073
     60 H                     0.253110       0.011210
     61 H                     0.247752      -0.017113
     62 H                     0.249170      -0.018112
     63 H                     0.253163       0.009617
     64 H                     0.249241      -0.017823
     65 H                     0.254374       0.009706
     66 H                     0.249859      -0.019376
     67 H                     0.250254       0.000801
     68 H                     0.246297      -0.001319
     69 H                     0.245730      -0.001370
     70 H                     0.246281      -0.001383
     71 H                     0.250456       0.000819
     72 H                     0.245779      -0.001437
     73 H                     0.233640      -0.000008
     74 H                     0.230574       0.000151
     75 H                     0.251909      -0.001656
     76 H                     0.241355       0.000047
     77 H                     0.239900       0.000038
     78 H                     0.234741      -0.000007
     79 H                     0.233515       0.000025
     80 H                     0.230353       0.000162
     81 H                     0.251958      -0.001766
     82 H                     0.241401       0.000070
     83 H                     0.239866       0.000025
     84 H                     0.234881       0.000007
     85 H                     0.245448       0.000899
     86 H                     0.249798      -0.000368
     87 H                     0.247897      -0.000823
     88 H                     0.245629       0.000745
     89 H                     0.249707      -0.000250
     90 H                     0.248549      -0.000832
  --------------------------------------------------------
  Sum of atomic charges =    -0.000000

                    Cartesian Multipole Moments
 -----------------------------------------------------------------
    Charge (ESU x 10^10)
                -0.0000
    Dipole Moment (Debye)
         X       2.3409      Y       0.0911      Z      -0.5867
       Tot       2.4150
    Quadrupole Moments (Debye-Ang)
        XX    -248.5972     XY       0.6141     YY    -279.1138
        XZ      -7.0801     YZ      -8.9084     ZZ    -311.1157

 Total job time:  32790.47s(wall), 98707.65s(cpu)
        *  Thank you very much for using Q-Chem.  Have a nice day.  *
