 Q-Chem 5.0, Q-Chem, Inc., Pleasanton, CA (2017)
 Q-Chem 5.0.1 for Intel X86 EM64T Linux

User input:
--------------------------------------------------------------
$rem
threads 8
jobtype opt
method PBEh-3c
basis def2-mSVP
mem_static      1024
mem_total       8000
sym_ignore      true
unrestricted true
scf_algorithm	diis
scf_max_cycles	2500
solvent_method  pcm
geom_opt_tol_energy 25
geom_opt_tol_gradient 75
$end

$pcm
theory  iefpcm
$end

$solvent
dielectric      8.93
$end

$molecule
read utLEincoords.mol
$end
--------------------------------------------------------------

   24   -2123.3258913576      9.22E-09 Convergence criterion met
 Total energy in the final basis set = -2123.32589136
   19   -2123.3268813161      7.49E-09 Convergence criterion met
 Total energy in the final basis set = -2123.32688132
   17   -2123.3271683954      9.10E-09 Convergence criterion met
 Total energy in the final basis set = -2123.32716840
   17   -2123.3273146973      6.46E-09 Convergence criterion met
 Total energy in the final basis set = -2123.32731470
   17   -2123.3273709106      6.76E-09 Convergence criterion met
 Total energy in the final basis set = -2123.32737091
   17   -2123.3274180170      7.30E-09 Convergence criterion met
 Total energy in the final basis set = -2123.32741802
   16   -2123.3274260410      7.53E-09 Convergence criterion met
 Total energy in the final basis set = -2123.32742604
   15   -2123.3274300353      9.76E-09 Convergence criterion met
   15   -2123.3274315806      9.95E-09 Convergence criterion met
 Total energy in the final basis set = -2123.32743158
   15   -2123.3274295051      9.99E-09 Convergence criterion met
 Total energy in the final basis set = -2123.32742951
   15   -2123.3274285700      9.10E-09 Convergence criterion met
 Total energy in the final basis set = -2123.32742857
   15   -2123.3274274159      9.70E-09 Convergence criterion met
 Total energy in the final basis set = -2123.32742742
   15   -2123.3274257941      9.38E-09 Convergence criterion met
 Total energy in the final basis set = -2123.32742579
   16   -2123.3274246229      7.19E-09 Convergence criterion met
 Total energy in the final basis set = -2123.32742462

             Standard Nuclear Orientation (Angstroms)
    I     Atom           X                Y                Z
 ----------------------------------------------------------------
    1      C      -2.5593683286     0.3983199755    -0.2205152081
    2      C      -2.3994835586    -1.0012486451    -0.0234083168
    3      C      -1.1434405453    -1.5543101775     0.0540480402
    4      C      -0.0061991315    -0.7380165702    -0.0664948174
    5      C      -0.1645409749     0.6616834549    -0.2697248512
    6      C      -1.4572594246     1.2104658350    -0.3423301943
    7      B       1.3955977965    -1.3762540566     0.0078196317
    8      C       2.6327357239    -0.4873259269    -0.1871209653
    9      C       2.4721215449     0.9788421063    -0.3871873267
   10      B       1.0608879116     1.5867435438    -0.4190523526
   11      C       3.8984022245    -1.0477630460    -0.2054924425
   12      C       5.0152583173    -0.2496121527    -0.4165244672
   13      C       4.8601055262     1.2240280922    -0.5969145163
   14      C       3.5917861237     1.7833572133    -0.5699143494
   15      C       6.6688172096     3.0338812562    -1.0595671508
   16      C       6.1591143205     1.7661992790    -0.8153158703
   17      C       7.0599717765     0.6695783515    -0.7805357974
   18      C       8.4319823657     0.7745355399    -0.9864315376
   19      C       8.9201482043     2.0810679280    -1.2320387318
   20      C       8.0507090301     3.1609205389    -1.2624298048
   21      C       6.3900319042    -0.5601179754    -0.5384265761
   22      C       7.1321152934    -1.7351997345    -0.4962425297
   23      C       8.5147166446    -1.6448901706    -0.6972038303
   24      C       9.1614405239    -0.4399197328    -0.9353721853
   25      C      -6.1696544968     1.6842287564    -0.3958195576
   26      C      -6.7983308232     0.4717334278    -0.2262693654
   27      C      -6.0308753239    -0.7067957704    -0.0642800285
   28      C      -4.6472072238    -0.5475367272    -0.0855767624
   29      C      -3.9942784221     0.6874577694    -0.2586571351
   30      C      -4.7601526566     1.8141457392    -0.4162612976
   31      C      -6.5082013720    -2.0288139221     0.1137002078
   32      C      -5.6183977302    -3.0697758310     0.2519017285
   33      C      -4.2158280030    -2.8780963588     0.2275351476
   34      C      -3.7303181578    -1.6057453544     0.0588446070
   35      C       0.8284223185     3.1311397217    -0.6209112953
   36      C       1.5395537924    -2.9236166607     0.2760860823
   37      C       1.6123757998    -3.8470290948    -0.8045669946
   38      C       1.7191452474    -5.2405884828    -0.5516340828
   39      C       1.7481049109    -5.6869848394     0.7863733301
   40      C       1.6653230136    -4.7904747654     1.8135137206
   41      C       1.5561843729    -3.4016407737     1.5717134634
   42      C       1.5676599086    -3.4186079160    -2.1556556047
   43      C       1.6316648063    -4.3139045741    -3.1882719803
   44      C       1.7463675585    -5.6950241370    -2.9285926444
   45      C       1.7887598008    -6.1444955846    -1.6381869238
   46      C       0.6617555455     3.9835377932     0.5058074797
   47      C       0.3647153268     5.3592056592     0.3263472334
   48      C       0.2468402304     5.8588634487    -0.9890163311
   49      C       0.4080500443     5.0275391593    -2.0614894342
   50      C       0.6941387761     3.6533180161    -1.8923398238
   51      C       0.7660419963     3.4874621252     1.8292771949
   52      C       0.5829444719     4.3068677788     2.9088045839
   53      C       0.2888295955     5.6733246170     2.7232527888
   54      C       0.1844362928     6.1856340479     1.4595595593
   55      C       0.8072369811     2.7666248996    -3.1023912570
   56      C       1.4269458669    -2.4613322500     2.7375533075
   57      H      -1.0288927806    -2.6220835445     0.2050296515
   58      H      -1.5850332651     2.2747856801    -0.5005599134
   59      H       4.0173673659    -2.1167635714    -0.0679031251
   60      H       3.4648597181     2.8506900515    -0.7110738892
   61      H       6.0278757803     3.9048068947    -1.0995794526
   62      H       9.9777434952     2.2390106105    -1.4013344836
   63      H       8.4555897568     4.1458353654    -1.4548578213
   64      H       6.6645381107    -2.6956167269    -0.3213875027
   65      H       9.1034646031    -2.5525649048    -0.6697444081
   66      H      10.2332587753    -0.4305426797    -1.0882866150
   67      H      -6.7720820160     2.5746964742    -0.5195107199
   68      H      -7.8803991061     0.4180129652    -0.2184648041
   69      H      -4.3176416892     2.7924944715    -0.5544265909
   70      H      -7.5740234370    -2.2217088249     0.1390596464
   71      H      -5.9999587657    -4.0741681724     0.3837671822
   72      H      -3.5599222407    -3.7326497270     0.3396070539
   73      H       1.8329259066    -6.7485058701     0.9878538186
   74      H       1.6818621879    -5.1456205765     2.8374215030
   75      H       1.4768962388    -2.3610001090    -2.3766181580
   76      H       1.5936444035    -3.9625434268    -4.2114767255
   77      H       1.7979067543    -6.3948871167    -3.7527828092
   78      H       1.8742681780    -7.2050165746    -1.4309745579
   79      H       0.0215290700     6.9082208836    -1.1387411241
   80      H       0.3084612601     5.4230342741    -3.0659151988
   81      H       0.9909927117     2.4385910362     1.9888158462
   82      H       0.6625880544     3.9063095233     3.9112058621
   83      H       0.1450447292     6.3129277022     3.5843710069
   84      H      -0.0428428485     7.2347560619     1.3099827120
   85      H       0.8126840461     3.3445624136    -4.0263208679
   86      H      -0.0313932356     2.0681612081    -3.1602123128
   87      H       1.7186940313     2.1663551036    -3.0839013927
   88      H       1.6237789360    -2.9639999778     3.6841107209
   89      H       0.4197458933    -2.0412187132     2.7927449245
   90      H       2.1182654514    -1.6197740470     2.6613797781
 ----------------------------------------------------------------

   16   -2123.3274236452      7.04E-09 Convergence criterion met
 Total energy in the final basis set = -2123.32742365
 Final energy is   -2123.32742364521
 **  OPTIMIZATION CONVERGED  **

                    Orbital Energies (a.u.)
 --------------------------------------------------------------

 Alpha MOs
 -- Occupied --
-10.490 -10.488 -10.473 -10.471 -10.470 -10.470 -10.467 -10.467
-10.466 -10.466 -10.465 -10.465 -10.465 -10.465 -10.465 -10.463
-10.463 -10.462 -10.462 -10.460 -10.460 -10.460 -10.459 -10.457
-10.457 -10.457 -10.457 -10.456 -10.455 -10.455 -10.455 -10.455
-10.454 -10.453 -10.453 -10.450 -10.448 -10.448 -10.447 -10.447
-10.446 -10.446 -10.446 -10.446 -10.445 -10.445 -10.444 -10.443
-10.439 -10.438 -10.430 -10.429 -10.427 -10.427  -6.938  -6.938
 -1.030  -1.017  -0.979  -0.978  -0.970  -0.961  -0.940  -0.933
 -0.925  -0.925  -0.916  -0.904  -0.877  -0.869  -0.869  -0.856
 -0.855  -0.848  -0.848  -0.846  -0.829  -0.822  -0.815  -0.812
 -0.810  -0.809  -0.766  -0.766  -0.746  -0.739  -0.728  -0.723
 -0.702  -0.699  -0.693  -0.693  -0.681  -0.675  -0.674  -0.672
 -0.671  -0.659  -0.651  -0.647  -0.604  -0.598  -0.594  -0.589
 -0.586  -0.579  -0.578  -0.577  -0.576  -0.568  -0.567  -0.549
 -0.549  -0.547  -0.535  -0.530  -0.529  -0.515  -0.514  -0.507
 -0.507  -0.506  -0.504  -0.504  -0.501  -0.496  -0.493  -0.488
 -0.487  -0.486  -0.481  -0.481  -0.480  -0.476  -0.472  -0.471
 -0.466  -0.466  -0.455  -0.454  -0.449  -0.447  -0.447  -0.443
 -0.441  -0.440  -0.440  -0.433  -0.430  -0.430  -0.425  -0.414
 -0.409  -0.409  -0.404  -0.402  -0.396  -0.396  -0.395  -0.390
 -0.390  -0.387  -0.383  -0.383  -0.373  -0.372  -0.360  -0.358
 -0.354  -0.346  -0.340  -0.328  -0.322  -0.320  -0.313  -0.299
 -0.295  -0.280  -0.280  -0.279  -0.269  -0.260  -0.249  -0.248
 -0.187

 Beta MOs
 -- Occupied --
-10.483 -10.481 -10.473 -10.473 -10.473 -10.469 -10.468 -10.468
-10.465 -10.465 -10.465 -10.463 -10.463 -10.463 -10.463 -10.462
-10.462 -10.462 -10.462 -10.462 -10.461 -10.460 -10.460 -10.458
-10.457 -10.457 -10.456 -10.455 -10.455 -10.455 -10.455 -10.453
-10.453 -10.452 -10.449 -10.449 -10.448 -10.448 -10.447 -10.447
-10.446 -10.446 -10.446 -10.446 -10.445 -10.445 -10.444 -10.443
-10.438 -10.438 -10.430 -10.429 -10.427 -10.427  -6.937  -6.937
 -1.023  -1.017  -0.978  -0.978  -0.962  -0.960  -0.936  -0.932
 -0.925  -0.924  -0.911  -0.902  -0.875  -0.869  -0.867  -0.855
 -0.851  -0.848  -0.847  -0.845  -0.820  -0.819  -0.814  -0.811
 -0.809  -0.798  -0.766  -0.765  -0.736  -0.736  -0.727  -0.721
 -0.701  -0.699  -0.690  -0.689  -0.680  -0.674  -0.672  -0.671
 -0.670  -0.658  -0.648  -0.646  -0.601  -0.596  -0.591  -0.588
 -0.585  -0.578  -0.576  -0.576  -0.575  -0.568  -0.567  -0.549
 -0.549  -0.544  -0.533  -0.528  -0.526  -0.515  -0.512  -0.506
 -0.505  -0.504  -0.504  -0.501  -0.494  -0.493  -0.486  -0.486
 -0.485  -0.484  -0.481  -0.481  -0.479  -0.475  -0.471  -0.470
 -0.466  -0.465  -0.453  -0.453  -0.447  -0.446  -0.443  -0.440
 -0.439  -0.439  -0.433  -0.430  -0.429  -0.423  -0.416  -0.413
 -0.408  -0.402  -0.401  -0.397  -0.395  -0.395  -0.394  -0.388
 -0.386  -0.386  -0.380  -0.373  -0.371  -0.363  -0.357  -0.353
 -0.344  -0.338  -0.333  -0.327  -0.321  -0.317  -0.300  -0.295
 -0.280  -0.280  -0.270  -0.264  -0.258  -0.249  -0.248

          Ground-State Mulliken Net Atomic Charges

     Atom                 Charge (a.u.)    Spin (a.u.)
  --------------------------------------------------------
      1 C                     0.088995       0.032843
      2 C                     0.079102       0.036895
      3 C                    -0.397321      -0.008542
      4 C                    -0.147422       0.016860
      5 C                    -0.143879       0.013926
      6 C                    -0.396798      -0.004948
      7 B                     0.647865       0.172983
      8 C                    -0.142296       0.330189
      9 C                    -0.142142       0.377308
     10 B                     0.651032       0.174863
     11 C                    -0.367357      -0.247302
     12 C                     0.069081       0.451078
     13 C                     0.084462       0.456815
     14 C                    -0.380029      -0.269372
     15 C                    -0.384498       0.289154
     16 C                     0.189108      -0.211344
     17 C                    -0.063619       0.280279
     18 C                     0.230367      -0.192765
     19 C                    -0.353190       0.309545
     20 C                    -0.229866      -0.200149
     21 C                     0.187280      -0.202243
     22 C                    -0.377071       0.300778
     23 C                    -0.230443      -0.204667
     24 C                    -0.349440       0.332074
     25 C                    -0.232544      -0.016730
     26 C                    -0.349286       0.023353
     27 C                     0.218167      -0.014732
     28 C                    -0.065547       0.018246
     29 C                     0.181665      -0.020261
     30 C                    -0.395655       0.023941
     31 C                    -0.347666       0.024447
     32 C                    -0.233127      -0.017215
     33 C                    -0.393359       0.025118
     34 C                     0.180354      -0.021210
     35 C                    -0.221374      -0.016535
     36 C                    -0.216343      -0.016868
     37 C                     0.069836       0.001551
     38 C                     0.104288      -0.000151
     39 C                    -0.333723       0.000082
     40 C                    -0.291090      -0.000038
     41 C                     0.006319       0.001406
     42 C                    -0.348900       0.002996
     43 C                    -0.259136      -0.000138
     44 C                    -0.260271      -0.000087
     45 C                    -0.306518       0.000338
     46 C                     0.071450       0.001251
     47 C                     0.103262       0.000040
     48 C                    -0.334212      -0.000468
     49 C                    -0.289537       0.000401
     50 C                     0.009901       0.001100
     51 C                    -0.347874       0.003358
     52 C                    -0.259790      -0.000520
     53 C                    -0.260268       0.000173
     54 C                    -0.307336       0.000026
     55 C                    -0.763378       0.000910
     56 C                    -0.763248       0.001101
     57 H                     0.246572      -0.000034
     58 H                     0.247093      -0.000232
     59 H                     0.257363       0.009941
     60 H                     0.256257       0.011112
     61 H                     0.254233      -0.016887
     62 H                     0.256735      -0.017843
     63 H                     0.259708       0.009522
     64 H                     0.255597      -0.017617
     65 H                     0.261011       0.009609
     66 H                     0.257524      -0.019151
     67 H                     0.256940       0.000808
     68 H                     0.253937      -0.001331
     69 H                     0.251891      -0.001388
     70 H                     0.253927      -0.001395
     71 H                     0.257149       0.000826
     72 H                     0.251995      -0.001456
     73 H                     0.240829      -0.000009
     74 H                     0.237135       0.000156
     75 H                     0.255751      -0.001685
     76 H                     0.247295       0.000048
     77 H                     0.246241       0.000039
     78 H                     0.242078      -0.000008
     79 H                     0.240699       0.000024
     80 H                     0.236987       0.000169
     81 H                     0.256248      -0.001822
     82 H                     0.247399       0.000071
     83 H                     0.246209       0.000027
     84 H                     0.242232       0.000006
     85 H                     0.249545       0.000905
     86 H                     0.249386      -0.000370
     87 H                     0.248650      -0.000819
     88 H                     0.249703       0.000750
     89 H                     0.249316      -0.000249
     90 H                     0.249380      -0.000861
  --------------------------------------------------------
  Sum of atomic charges =    -0.000000

                    Cartesian Multipole Moments
 -----------------------------------------------------------------
    Charge (ESU x 10^10)
                -0.0000
    Dipole Moment (Debye)
         X       2.7037      Y       0.1160      Z      -0.6604
       Tot       2.7856
    Quadrupole Moments (Debye-Ang)
        XX    -242.4357     XY       0.7576     YY    -276.1276
        XZ      -7.6617     YZ      -9.8025     ZZ    -310.1115

 Total job time:  37834.61s(wall), 107930.62s(cpu)
        *  Thank you very much for using Q-Chem.  Have a nice day.  *
