 Q-Chem 5.0, Q-Chem, Inc., Pleasanton, CA (2017)
 Q-Chem 5.0.1 for Intel X86 EM64T Linux

User input:
--------------------------------------------------------------
$rem
threads 8
jobtype opt
method PBEh-3c
basis def2-mSVP
mem_static      1024
mem_total       8000
sym_ignore      true
unrestricted true
scf_algorithm	diis
scf_max_cycles	250
solvent_method  pcm
geom_opt_tol_energy 25
geom_opt_tol_gradient 75
$end

$pcm
theory  iefpcm
$end

$solvent
dielectric      2.38
$end

$molecule
read utLEincoords.mol
$end
--------------------------------------------------------------

   25   -2123.3134953787      7.86E-09 Convergence criterion met
 Total energy in the final basis set = -2123.31349538
   18   -2123.3144721195      7.89E-09 Convergence criterion met
 Total energy in the final basis set = -2123.31447212
   17   -2123.3147968950      8.96E-09 Convergence criterion met
 Total energy in the final basis set = -2123.31479690
   16   -2123.3149420808      9.79E-09 Convergence criterion met
 Total energy in the final basis set = -2123.31494208
   16   -2123.3150048125      7.10E-09 Convergence criterion met
 Total energy in the final basis set = -2123.31500481
   16   -2123.3150438650      7.89E-09 Convergence criterion met
 Total energy in the final basis set = -2123.31504387
   14   -2123.3150468340      9.58E-09 Convergence criterion met
 Total energy in the final basis set = -2123.31504683
   14   -2123.3150463773      9.15E-09 Convergence criterion met
   14   -2123.3150440451      7.97E-09 Convergence criterion met
 Total energy in the final basis set = -2123.31504405
   14   -2123.3150396232      8.37E-09 Convergence criterion met
 Total energy in the final basis set = -2123.31503962
   14   -2123.3150354071      7.70E-09 Convergence criterion met
 Total energy in the final basis set = -2123.31503541
   14   -2123.3150332191      7.33E-09 Convergence criterion met
 Total energy in the final basis set = -2123.31503322
   14   -2123.3150319637      6.90E-09 Convergence criterion met
 Total energy in the final basis set = -2123.31503196
   14   -2123.3150313530      6.85E-09 Convergence criterion met
 Total energy in the final basis set = -2123.31503135

             Standard Nuclear Orientation (Angstroms)
    I     Atom           X                Y                Z
 ----------------------------------------------------------------
    1      C      -2.5592687773     0.3991004047    -0.2001922786
    2      C      -2.3997984014    -1.0024531933    -0.0223421631
    3      C      -1.1443837422    -1.5574055307     0.0451957239
    4      C      -0.0077358486    -0.7404645892    -0.0685641088
    5      C      -0.1656610799     0.6607650318    -0.2580443378
    6      C      -1.4574493227     1.2116456547    -0.3182280590
    7      B       1.3933565519    -1.3793903618     0.0009936753
    8      C       2.6312735685    -0.4899562300    -0.1896306061
    9      C       2.4711846792     0.9772214119    -0.3802893780
   10      B       1.0594269357     1.5848817306    -0.4111995445
   11      C       3.8957697009    -1.0511013676    -0.2131840806
   12      C       5.0135348091    -0.2521153432    -0.4170099231
   13      C       4.8594634847     1.2234216522    -0.5833054105
   14      C       3.5904794735     1.7825572871    -0.5542361819
   15      C       6.6702760782     3.0363893378    -1.0223279304
   16      C       6.1584530576     1.7663613444    -0.7931918014
   17      C       7.0588764682     0.6693150690    -0.7678857649
   18      C       8.4316169610     0.7756288636    -0.9690585232
   19      C       8.9202841043     2.0840482498    -1.1994295230
   20      C       8.0516278373     3.1646146161    -1.2202995110
   21      C       6.3877566485    -0.5618697417    -0.5399262365
   22      C       7.1294538038    -1.7376639328    -0.5083412795
   23      C       8.5116995751    -1.6462075034    -0.7046756822
   24      C       9.1595501456    -0.4393927778    -0.9284573182
   25      C      -6.1682069742     1.6899630860    -0.3401809674
   26      C      -6.7969478879     0.4762293326    -0.1860462874
   27      C      -6.0306451275    -0.7050486454    -0.0446568162
   28      C      -4.6474355724    -0.5466366513    -0.0695476604
   29      C      -3.9939110790     0.6896390910    -0.2276589530
   30      C      -4.7592087255     1.8185863042    -0.3648598610
   31      C      -6.5075872489    -2.0288260766     0.1160368450
   32      C      -5.6184980199    -3.0718274099     0.2352308323
   33      C      -4.2164734616    -2.8805453832     0.2079352792
   34      C      -3.7307134489    -1.6068689472     0.0561533363
   35      C       0.8283525776     3.1273767933    -0.6260000286
   36      C       1.5388452501    -2.9267541962     0.2659945386
   37      C       1.6119404856    -3.8482473887    -0.8156944687
   38      C       1.7231864690    -5.2413109795    -0.5649607892
   39      C       1.7552953536    -5.6885227813     0.7720521085
   40      C       1.6715865314    -4.7941344333     1.8003106614
   41      C       1.5588899671    -3.4058694030     1.5608715934
   42      C       1.5630922047    -3.4176632100    -2.1653520425
   43      C       1.6279089385    -4.3105817749    -3.1990498267
   44      C       1.7475127162    -5.6910837030    -2.9419070295
   45      C       1.7935557661    -6.1424154143    -1.6529817032
   46      C       0.6592614266     3.9914690593     0.4908764642
   47      C       0.3650500241     5.3651015649     0.2958708728
   48      C       0.2523433459     5.8502839482    -1.0247094187
   49      C       0.4150202383     5.0079215602    -2.0876380138
   50      C       0.6982738800     3.6357276064    -1.9032025205
   51      C       0.7573636936     3.5085546176     1.8189606147
   52      C       0.5713461084     4.3386840361     2.8888674507
   53      C       0.2805479608     5.7030343892     2.6882607944
   54      C       0.1819436768     6.2025057784     1.4197143250
   55      C       0.8120663398     2.7347954625    -3.1027073850
   56      C       1.4311398076    -2.4656933476     2.7269629711
   57      H      -1.0277699096    -2.6267725440     0.1822892654
   58      H      -1.5825276597     2.2780799896    -0.4629586608
   59      H       4.0105318684    -2.1216934444    -0.0847128846
   60      H       3.4606637392     2.8507499105    -0.6861621623
   61      H       6.0303969848     3.9083462849    -1.0535184634
   62      H       9.9782296396     2.2440583090    -1.3643586432
   63      H       8.4578109097     4.1512426615    -1.4007159765
   64      H       6.6610420830    -2.6996687144    -0.3453790265
   65      H       9.0998869111    -2.5544318174    -0.6853635747
   66      H      10.2317906377    -0.4297199578    -1.0782060363
   67      H      -6.7704281236     2.5826365524    -0.4476879279
   68      H      -7.8790399560     0.4241180700    -0.1743745182
   69      H      -4.3161764122     2.7984185650    -0.4895099865
   70      H      -7.5732927715    -2.2220290069     0.1430980153
   71      H      -6.0003336988    -4.0777506712     0.3536883233
   72      H      -3.5606321644    -3.7369851527     0.3041197523
   73      H       1.8431155509    -6.7499377644     0.9725443049
   74      H       1.6901574412    -5.1508168644     2.8235962691
   75      H       1.4671984762    -2.3599621894    -2.3828496994
   76      H       1.5861318561    -3.9576197351    -4.2214219513
   77      H       1.7995134901    -6.3895139994    -3.7671807301
   78      H       1.8824571008    -7.2031007630    -1.4483453749
   79      H       0.0291921553     6.8982461059    -1.1865528693
   80      H       0.3186570595     5.3929635217    -3.0963895661
   81      H       0.9784946044     2.4606162490     1.9882253672
   82      H       0.6453911593     3.9479717665     3.8954254127
   83      H       0.1341918065     6.3516157630     3.5421108404
   84      H      -0.0433529317     7.2503994553     1.2593710471
   85      H       0.8196916093     3.3013219549    -4.0337482132
   86      H      -0.0269415334     2.0363686688    -3.1535856139
   87      H       1.7230940160     2.1342420804    -3.0764639340
   88      H       1.6163810502    -2.9708348036     3.6746153632
   89      H       0.4286922189    -2.0339147341     2.7758287391
   90      H       2.1327998659    -1.6322457130     2.6565094409
 ----------------------------------------------------------------

   14   -2123.3150303311      6.89E-09 Convergence criterion met
 Total energy in the final basis set = -2123.31503033
 Final energy is   -2123.31503033105
 **  OPTIMIZATION CONVERGED  **

                    Orbital Energies (a.u.)
 --------------------------------------------------------------

 Alpha MOs
 -- Occupied --
-10.487 -10.485 -10.471 -10.469 -10.467 -10.467 -10.466 -10.466
-10.465 -10.465 -10.462 -10.462 -10.462 -10.462 -10.461 -10.461
-10.461 -10.460 -10.459 -10.459 -10.458 -10.458 -10.458 -10.456
-10.455 -10.454 -10.453 -10.452 -10.452 -10.452 -10.451 -10.451
-10.451 -10.449 -10.449 -10.446 -10.445 -10.445 -10.443 -10.443
-10.443 -10.443 -10.443 -10.443 -10.442 -10.442 -10.441 -10.441
-10.434 -10.434 -10.426 -10.426 -10.426 -10.425  -6.935  -6.935
 -1.028  -1.014  -0.975  -0.975  -0.968  -0.958  -0.939  -0.930
 -0.922  -0.921  -0.914  -0.901  -0.874  -0.866  -0.866  -0.854
 -0.852  -0.845  -0.845  -0.843  -0.826  -0.821  -0.812  -0.809
 -0.807  -0.806  -0.764  -0.763  -0.745  -0.737  -0.725  -0.720
 -0.700  -0.697  -0.692  -0.690  -0.679  -0.672  -0.672  -0.669
 -0.668  -0.656  -0.649  -0.644  -0.603  -0.596  -0.594  -0.588
 -0.584  -0.577  -0.576  -0.574  -0.573  -0.566  -0.565  -0.547
 -0.547  -0.545  -0.535  -0.528  -0.527  -0.513  -0.512  -0.505
 -0.504  -0.504  -0.502  -0.501  -0.499  -0.494  -0.491  -0.485
 -0.485  -0.483  -0.479  -0.479  -0.478  -0.473  -0.470  -0.470
 -0.465  -0.464  -0.453  -0.452  -0.446  -0.446  -0.444  -0.439
 -0.438  -0.438  -0.436  -0.431  -0.429  -0.426  -0.423  -0.412
 -0.407  -0.406  -0.403  -0.401  -0.394  -0.393  -0.393  -0.387
 -0.387  -0.384  -0.380  -0.380  -0.370  -0.368  -0.356  -0.354
 -0.350  -0.343  -0.337  -0.323  -0.318  -0.316  -0.312  -0.296
 -0.292  -0.277  -0.276  -0.276  -0.265  -0.257  -0.245  -0.244
 -0.184

 Beta MOs
 -- Occupied --
-10.480 -10.478 -10.472 -10.470 -10.470 -10.466 -10.466 -10.465
-10.463 -10.462 -10.462 -10.461 -10.461 -10.461 -10.461 -10.461
-10.461 -10.460 -10.460 -10.459 -10.459 -10.458 -10.458 -10.456
-10.456 -10.453 -10.452 -10.452 -10.451 -10.451 -10.451 -10.449
-10.449 -10.448 -10.446 -10.446 -10.445 -10.445 -10.443 -10.443
-10.443 -10.443 -10.443 -10.443 -10.442 -10.442 -10.441 -10.441
-10.434 -10.434 -10.426 -10.426 -10.426 -10.425  -6.934  -6.934
 -1.020  -1.013  -0.975  -0.974  -0.960  -0.957  -0.935  -0.930
 -0.922  -0.921  -0.908  -0.899  -0.872  -0.866  -0.864  -0.852
 -0.850  -0.845  -0.845  -0.843  -0.818  -0.817  -0.812  -0.808
 -0.806  -0.796  -0.763  -0.763  -0.735  -0.734  -0.725  -0.718
 -0.698  -0.697  -0.689  -0.687  -0.677  -0.671  -0.669  -0.668
 -0.667  -0.655  -0.646  -0.643  -0.600  -0.593  -0.590  -0.587
 -0.583  -0.576  -0.575  -0.574  -0.573  -0.565  -0.564  -0.547
 -0.547  -0.542  -0.532  -0.526  -0.525  -0.512  -0.510  -0.504
 -0.502  -0.502  -0.501  -0.498  -0.492  -0.490  -0.484  -0.484
 -0.481  -0.481  -0.478  -0.478  -0.477  -0.473  -0.470  -0.469
 -0.465  -0.463  -0.452  -0.451  -0.445  -0.444  -0.439  -0.438
 -0.437  -0.435  -0.431  -0.428  -0.426  -0.421  -0.413  -0.411
 -0.405  -0.401  -0.400  -0.395  -0.393  -0.392  -0.392  -0.386
 -0.384  -0.384  -0.377  -0.370  -0.368  -0.360  -0.354  -0.350
 -0.341  -0.335  -0.330  -0.323  -0.317  -0.313  -0.298  -0.292
 -0.276  -0.276  -0.266  -0.262  -0.255  -0.245  -0.244

          Ground-State Mulliken Net Atomic Charges

     Atom                 Charge (a.u.)    Spin (a.u.)
  --------------------------------------------------------
      1 C                     0.098276       0.032906
      2 C                     0.088206       0.036764
      3 C                    -0.392208      -0.008645
      4 C                    -0.146577       0.017657
      5 C                    -0.142791       0.014991
      6 C                    -0.390862      -0.005262
      7 B                     0.654269       0.164413
      8 C                    -0.143139       0.335360
      9 C                    -0.143432       0.379158
     10 B                     0.657255       0.165858
     11 C                    -0.363046      -0.251304
     12 C                     0.073789       0.453770
     13 C                     0.089354       0.458688
     14 C                    -0.376511      -0.271838
     15 C                    -0.379381       0.294543
     16 C                     0.195319      -0.211364
     17 C                    -0.064438       0.280531
     18 C                     0.245201      -0.195509
     19 C                    -0.348804       0.315319
     20 C                    -0.216843      -0.202507
     21 C                     0.193244      -0.203462
     22 C                    -0.371966       0.305550
     23 C                    -0.217910      -0.206795
     24 C                    -0.345322       0.335836
     25 C                    -0.219061      -0.016238
     26 C                    -0.343491       0.022654
     27 C                     0.234539      -0.014450
     28 C                    -0.063219       0.018625
     29 C                     0.191248      -0.019879
     30 C                    -0.390308       0.023111
     31 C                    -0.341845       0.023692
     32 C                    -0.219714      -0.016700
     33 C                    -0.388032       0.024236
     34 C                     0.189946      -0.020786
     35 C                    -0.224017      -0.015725
     36 C                    -0.218512      -0.016080
     37 C                     0.074744       0.001470
     38 C                     0.118461      -0.000137
     39 C                    -0.324846       0.000054
     40 C                    -0.280086      -0.000023
     41 C                     0.011105       0.001270
     42 C                    -0.336893       0.002931
     43 C                    -0.247557      -0.000107
     44 C                    -0.246995      -0.000089
     45 C                    -0.297180       0.000354
     46 C                     0.077971       0.001176
     47 C                     0.118252       0.000064
     48 C                    -0.325193      -0.000512
     49 C                    -0.278925       0.000417
     50 C                     0.013062       0.000945
     51 C                    -0.335019       0.003238
     52 C                    -0.248358      -0.000511
     53 C                    -0.246696       0.000174
     54 C                    -0.298085       0.000023
     55 C                    -0.758407       0.001001
     56 C                    -0.758208       0.001087
     57 H                     0.240110      -0.000014
     58 H                     0.240708      -0.000201
     59 H                     0.250066       0.010219
     60 H                     0.249138       0.011316
     61 H                     0.239438      -0.017379
     62 H                     0.239754      -0.018432
     63 H                     0.244848       0.009730
     64 H                     0.241051      -0.018065
     65 H                     0.245959       0.009821
     66 H                     0.240344      -0.019644
     67 H                     0.241881       0.000794
     68 H                     0.236877      -0.001308
     69 H                     0.237835      -0.001353
     70 H                     0.236864      -0.001370
     71 H                     0.242076       0.000812
     72 H                     0.237782      -0.001418
     73 H                     0.224836      -0.000007
     74 H                     0.222436       0.000148
     75 H                     0.246652      -0.001623
     76 H                     0.233714       0.000045
     77 H                     0.231919       0.000038
     78 H                     0.225788      -0.000008
     79 H                     0.224707       0.000027
     80 H                     0.222178       0.000155
     81 H                     0.246388      -0.001714
     82 H                     0.233718       0.000069
     83 H                     0.231894       0.000024
     84 H                     0.225908       0.000008
     85 H                     0.240688       0.000888
     86 H                     0.249587      -0.000365
     87 H                     0.246764      -0.000820
     88 H                     0.240878       0.000737
     89 H                     0.249604      -0.000247
     90 H                     0.247249      -0.000801
  --------------------------------------------------------
  Sum of atomic charges =    -0.000000

                    Cartesian Multipole Moments
 -----------------------------------------------------------------
    Charge (ESU x 10^10)
                -0.0000
    Dipole Moment (Debye)
         X       1.9393      Y       0.0661      Z      -0.5147
       Tot       2.0076
    Quadrupole Moments (Debye-Ang)
        XX    -255.5616     XY       0.4131     YY    -282.3245
        XZ      -6.4752     YZ      -8.0428     ZZ    -312.2679

 Total job time:  29912.97s(wall), 89388.67s(cpu)
        *  Thank you very much for using Q-Chem.  Have a nice day.  *
