 Q-Chem 5.0, Q-Chem, Inc., Pleasanton, CA (2017)
 Q-Chem 5.0.1 for Intel X86 EM64T Linux

User input:
--------------------------------------------------------------
$rem
threads 8
jobtype opt
method PBEh-3c
basis def2-mSVP
mem_static      1024
mem_total       8000
sym_ignore      true
unrestricted true
scf_algorithm   diis
scf_max_cycles  250
solvent_method  pcm
geom_opt_tol_energy 25
geom_opt_tol_gradient 75
$end

$pcm
theory  iefpcm
$end

$solvent
dielectric      1.0001
$end

$molecule
read utLEincoords.mol
$end

--------------------------------------------------------------

   26   -2123.3005095905      7.27E-09 Convergence criterion met
 Total energy in the final basis set = -2123.30050959
   17   -2123.3015245203      9.61E-09 Convergence criterion met
 Total energy in the final basis set = -2123.30152452
   17   -2123.3018856999      7.08E-09 Convergence criterion met
 Total energy in the final basis set = -2123.30188570
   15   -2123.3020282472      9.02E-09 Convergence criterion met
 Total energy in the final basis set = -2123.30202825
   15   -2123.3020905730      5.45E-09 Convergence criterion met
 Total energy in the final basis set = -2123.30209057
   14   -2123.3021207326      7.48E-09 Convergence criterion met
 Total energy in the final basis set = -2123.30212073
   11   -2123.3021183496      8.89E-09 Convergence criterion met
 Total energy in the final basis set = -2123.30211835
   11   -2123.3021160724      7.19E-09 Convergence criterion met
 Total energy in the final basis set = -2123.30211607
   10   -2123.3021114240      7.09E-09 Convergence criterion met
 Total energy in the final basis set = -2123.30211142
   10   -2123.3021052136      7.50E-09 Convergence criterion met
 Total energy in the final basis set = -2123.30210521
   10   -2123.3021011479      6.94E-09 Convergence criterion met
 Total energy in the final basis set = -2123.30210115
    8   -2123.3020995789      9.75E-09 Convergence criterion met
 Total energy in the final basis set = -2123.30209958

             Standard Nuclear Orientation (Angstroms)
    I     Atom           X                Y                Z
 ----------------------------------------------------------------
    1      C      -2.5604123641     0.4010228341    -0.1951015146
    2      C      -2.4013934836    -1.0012902135    -0.0270981612
    3      C      -1.1466419936    -1.5572600738     0.0378767430
    4      C      -0.0103612789    -0.7400765237    -0.0700582275
    5      C      -0.1676709423     0.6617374963    -0.2520897857
    6      C      -1.4585468586     1.2137868170    -0.3083202250
    7      B       1.3899639243    -1.3796278412    -0.0005986682
    8      C       2.6287119312    -0.4904604694    -0.1903915887
    9      C       2.4694191122     0.9769944654    -0.3764723236
   10      B       1.0574716693     1.5853882840    -0.4045886941
   11      C       3.8918456678    -1.0527715385    -0.2182840515
   12      C       5.0103795087    -0.2546197453    -0.4220192842
   13      C       4.8574102898     1.2218555007    -0.5823750366
   14      C       3.5881631223     1.7816587213    -0.5491408139
   15      C       6.6692542705     3.0340725535    -1.0174068981
   16      C       6.1557805599     1.7636280171    -0.7925334106
   17      C       7.0554052277     0.6659831549    -0.7736645643
   18      C       8.4279588007     0.7718037251    -0.9773075449
   19      C       8.9166451495     2.0803415456    -1.2029974174
   20      C       8.0492029602     3.1617243753    -1.2174720914
   21      C       6.3835448864    -0.5649493302    -0.5493831432
   22      C       7.1247087161    -1.7413778992    -0.5246060517
   23      C       8.5056831884    -1.6506210781    -0.7233853211
   24      C       9.1540645971    -0.4437719374    -0.9433537913
   25      C      -6.1686623708     1.6930838059    -0.3232068351
   26      C      -6.7972566178     0.4788970027    -0.1787454966
   27      C      -6.0318099046    -0.7034127197    -0.0470578518
   28      C      -4.6490074928    -0.5450163468    -0.0711498686
   29      C      -3.9949618585     0.6918264372    -0.2198739529
   30      C      -4.7601910720     1.8212565923    -0.3474594343
   31      C      -6.5081916898    -2.0279948797     0.1036100676
   32      C      -5.6196985892    -3.0714217413     0.2148778235
   33      C      -4.2182941092    -2.8797784155     0.1888396709
   34      C      -3.7323299654    -1.6057429470     0.0466406791
   35      C       0.8277685580     3.1271657706    -0.6213331385
   36      C       1.5362083136    -2.9258037960     0.2670705882
   37      C       1.6194121604    -3.8489228072    -0.8119605984
   38      C       1.7344668072    -5.2405338745    -0.5575515600
   39      C       1.7594543342    -5.6839694386     0.7802023154
   40      C       1.6655146563    -4.7884077208     1.8057536276
   41      C       1.5495457751    -3.4017522403     1.5628513690
   42      C       1.5771558318    -3.4211642031    -2.1621601932
   43      C       1.6524366571    -4.3153624830    -3.1931492320
   44      C       1.7760851675    -5.6941528240    -2.9325660238
   45      C       1.8154645926    -6.1425993210    -1.6431529445
   46      C       0.6600918175     3.9934433887     0.4936067582
   47      C       0.3668672223     5.3663426082     0.2957104941
   48      C       0.2534794393     5.8477651430    -1.0255615435
   49      C       0.4144526745     5.0035895408    -2.0864813786
   50      C       0.6970140315     3.6323000721    -1.8993645670
   51      C       0.7583173915     3.5130879784     1.8219836421
   52      C       0.5737506023     4.3451984633     2.8897434218
   53      C       0.2843228574     5.7087228007     2.6865407449
   54      C       0.1853893420     6.2054469910     1.4176767459
   55      C       0.8083763520     2.7275101169    -3.0961893943
   56      C       1.4128824976    -2.4583080719     2.7252576598
   57      H      -1.0280580772    -2.6272959428     0.1678821071
   58      H      -1.5805055130     2.2815268806    -0.4455848656
   59      H       4.0022266178    -2.1243136872    -0.0936828149
   60      H       3.4556982720     2.8501286309    -0.6767018463
   61      H       6.0304682612     3.9068342560    -1.0433830591
   62      H       9.9742211782     2.2405849493    -1.3695119400
   63      H       8.4562489965     4.1485451366    -1.3944062051
   64      H       6.6557294943    -2.7035564049    -0.3651438604
   65      H       9.0930821737    -2.5593638221    -0.7094264904
   66      H      10.2259186138    -0.4350094361    -1.0953249139
   67      H      -6.7708449882     2.5865737509    -0.4230659963
   68      H      -7.8793002281     0.4274530249    -0.1670611133
   69      H      -4.3168274509     2.8018088657    -0.4640746047
   70      H      -7.5737353664    -2.2217864735     0.1294777206
   71      H      -6.0017394672    -4.0780369867     0.3257608702
   72      H      -3.5624133386    -3.7367552532     0.2784861653
   73      H       1.8499895945    -6.7444066134     0.9839626604
   74      H       1.6787029964    -5.1430077652     2.8297120738
   75      H       1.4777950171    -2.3641862335    -2.3808727393
   76      H       1.6156351790    -3.9646497781    -4.2163218776
   77      H       1.8363167603    -6.3939959154    -3.7558772938
   78      H       1.9071529259    -7.2025084693    -1.4364665269
   79      H       0.0309213900     6.8953259958    -1.1899278049
   80      H       0.3172699474     5.3864909612    -3.0958384476
   81      H       0.9778861710     2.4650677440     1.9917937213
   82      H       0.6477096090     3.9565380424     3.8969322282
   83      H       0.1390947788     6.3592627544     3.5388995859
   84      H      -0.0390634999     7.2531471329     1.2558228620
   85      H       0.8168802367     3.2907220810    -4.0292882099
   86      H      -0.0318226184     2.0304469621    -3.1446564228
   87      H       1.7184713525     2.1256757836    -3.0689995197
   88      H       1.5852430798    -2.9616025061     3.6763378498
   89      H       0.4125305134    -2.0207983210     2.7622055158
   90      H       2.1201763159    -1.6291520653     2.6609644630
 ----------------------------------------------------------------

    7   -2123.3020994886      6.43E-09 Convergence criterion met
 Total energy in the final basis set = -2123.30209949
 Final energy is   -2123.30209948863
 **  OPTIMIZATION CONVERGED  **

                    Orbital Energies (a.u.)
 --------------------------------------------------------------

 Alpha MOs
 -- Occupied --
-10.486 -10.484 -10.470 -10.469 -10.467 -10.467 -10.467 -10.466
-10.466 -10.466 -10.462 -10.462 -10.462 -10.461 -10.461 -10.461
-10.460 -10.460 -10.459 -10.459 -10.458 -10.457 -10.457 -10.456
-10.456 -10.452 -10.450 -10.450 -10.450 -10.450 -10.449 -10.448
-10.448 -10.447 -10.447 -10.444 -10.443 -10.442 -10.441 -10.441
-10.441 -10.441 -10.441 -10.441 -10.440 -10.440 -10.439 -10.439
-10.433 -10.432 -10.426 -10.426 -10.424 -10.423  -6.934  -6.934
 -1.028  -1.012  -0.973  -0.972  -0.968  -0.957  -0.939  -0.930
 -0.920  -0.920  -0.913  -0.899  -0.873  -0.864  -0.864  -0.855
 -0.851  -0.843  -0.843  -0.843  -0.825  -0.821  -0.811  -0.807
 -0.805  -0.805  -0.763  -0.762  -0.746  -0.737  -0.725  -0.720
 -0.699  -0.695  -0.692  -0.689  -0.679  -0.671  -0.670  -0.667
 -0.667  -0.655  -0.650  -0.643  -0.604  -0.595  -0.595  -0.589
 -0.585  -0.577  -0.576  -0.573  -0.572  -0.564  -0.564  -0.546
 -0.546  -0.545  -0.536  -0.529  -0.527  -0.513  -0.511  -0.505
 -0.504  -0.503  -0.501  -0.500  -0.497  -0.494  -0.490  -0.485
 -0.485  -0.481  -0.478  -0.477  -0.477  -0.473  -0.471  -0.469
 -0.466  -0.464  -0.453  -0.451  -0.447  -0.446  -0.444  -0.438
 -0.438  -0.436  -0.434  -0.431  -0.428  -0.425  -0.422  -0.411
 -0.407  -0.405  -0.403  -0.402  -0.394  -0.393  -0.391  -0.387
 -0.386  -0.383  -0.379  -0.379  -0.367  -0.365  -0.355  -0.353
 -0.349  -0.343  -0.335  -0.320  -0.315  -0.314  -0.312  -0.295
 -0.291  -0.277  -0.273  -0.273  -0.263  -0.255  -0.242  -0.242
 -0.184

 Beta MOs
 -- Occupied --
-10.479 -10.477 -10.472 -10.470 -10.470 -10.466 -10.465 -10.465
-10.465 -10.464 -10.462 -10.462 -10.462 -10.461 -10.461 -10.460
-10.460 -10.459 -10.459 -10.458 -10.458 -10.458 -10.457 -10.456
-10.456 -10.450 -10.450 -10.449 -10.449 -10.448 -10.448 -10.447
-10.447 -10.447 -10.445 -10.444 -10.443 -10.442 -10.441 -10.441
-10.441 -10.441 -10.441 -10.441 -10.440 -10.440 -10.439 -10.439
-10.432 -10.432 -10.426 -10.426 -10.424 -10.423  -6.933  -6.932
 -1.020  -1.012  -0.972  -0.972  -0.959  -0.956  -0.935  -0.930
 -0.920  -0.919  -0.908  -0.898  -0.871  -0.864  -0.863  -0.851
 -0.850  -0.843  -0.843  -0.843  -0.818  -0.816  -0.811  -0.806
 -0.805  -0.796  -0.762  -0.762  -0.736  -0.734  -0.724  -0.718
 -0.697  -0.695  -0.689  -0.686  -0.677  -0.670  -0.668  -0.667
 -0.666  -0.654  -0.646  -0.643  -0.601  -0.593  -0.591  -0.588
 -0.584  -0.576  -0.575  -0.572  -0.572  -0.564  -0.563  -0.546
 -0.545  -0.543  -0.533  -0.526  -0.525  -0.512  -0.509  -0.505
 -0.503  -0.501  -0.500  -0.497  -0.492  -0.490  -0.484  -0.484
 -0.481  -0.479  -0.478  -0.477  -0.477  -0.472  -0.470  -0.469
 -0.465  -0.463  -0.452  -0.451  -0.446  -0.444  -0.438  -0.437
 -0.436  -0.433  -0.431  -0.428  -0.425  -0.420  -0.412  -0.410
 -0.404  -0.401  -0.401  -0.395  -0.393  -0.392  -0.391  -0.385
 -0.383  -0.382  -0.376  -0.367  -0.365  -0.358  -0.352  -0.348
 -0.340  -0.334  -0.330  -0.320  -0.314  -0.311  -0.298  -0.291
 -0.273  -0.273  -0.264  -0.261  -0.253  -0.242  -0.241

          Ground-State Mulliken Net Atomic Charges

     Atom                 Charge (a.u.)    Spin (a.u.)
  --------------------------------------------------------
      1 C                     0.106925       0.033040
      2 C                     0.096404       0.036558
      3 C                    -0.387245      -0.008807
      4 C                    -0.145580       0.018435
      5 C                    -0.141380       0.016144
      6 C                    -0.385644      -0.005751
      7 B                     0.659142       0.156700
      8 C                    -0.143776       0.339908
      9 C                    -0.144251       0.380209
     10 B                     0.662203       0.157752
     11 C                    -0.358100      -0.254708
     12 C                     0.078322       0.455703
     13 C                     0.094152       0.460164
     14 C                    -0.372607      -0.273730
     15 C                    -0.372287       0.299167
     16 C                     0.201366      -0.210782
     17 C                    -0.066097       0.280546
     18 C                     0.259331      -0.197857
     19 C                    -0.342008       0.320610
     20 C                    -0.201864      -0.204455
     21 C                     0.198963      -0.203918
     22 C                    -0.365045       0.309415
     23 C                    -0.203360      -0.208449
     24 C                    -0.338745       0.339169
     25 C                    -0.203719      -0.015826
     26 C                    -0.335485       0.022076
     27 C                     0.249828      -0.014205
     28 C                    -0.062212       0.018930
     29 C                     0.200078      -0.019570
     30 C                    -0.383609       0.022420
     31 C                    -0.333783       0.023027
     32 C                    -0.204536      -0.016248
     33 C                    -0.381169       0.023457
     34 C                     0.198717      -0.020401
     35 C                    -0.227077      -0.015021
     36 C                    -0.220921      -0.015500
     37 C                     0.079033       0.001445
     38 C                     0.131910      -0.000165
     39 C                    -0.313307       0.000133
     40 C                    -0.266557      -0.000080
     41 C                     0.016141       0.001251
     42 C                    -0.325179       0.002883
     43 C                    -0.233946      -0.000038
     44 C                    -0.231820      -0.000122
     45 C                    -0.285448       0.000412
     46 C                     0.083498       0.001099
     47 C                     0.131576       0.000082
     48 C                    -0.313582      -0.000548
     49 C                    -0.265241       0.000435
     50 C                     0.017425       0.000828
     51 C                    -0.323197       0.003185
     52 C                    -0.234832      -0.000504
     53 C                    -0.231413       0.000179
     54 C                    -0.286398       0.000019
     55 C                    -0.751697       0.001052
     56 C                    -0.751508       0.001073
     57 H                     0.233059       0.000008
     58 H                     0.233963      -0.000162
     59 H                     0.242012       0.010469
     60 H                     0.241026       0.011494
     61 H                     0.222538      -0.017864
     62 H                     0.221841      -0.019007
     63 H                     0.228486       0.009929
     64 H                     0.224309      -0.018500
     65 H                     0.229418       0.010021
     66 H                     0.222270      -0.020123
     67 H                     0.225770       0.000784
     68 H                     0.219204      -0.001292
     69 H                     0.221824      -0.001327
     70 H                     0.219224      -0.001349
     71 H                     0.225944       0.000800
     72 H                     0.221540      -0.001388
     73 H                     0.208522      -0.000012
     74 H                     0.207067       0.000144
     75 H                     0.235339      -0.001571
     76 H                     0.218483       0.000040
     77 H                     0.216504       0.000039
     78 H                     0.209273      -0.000011
     79 H                     0.208399       0.000029
     80 H                     0.206808       0.000147
     81 H                     0.234821      -0.001652
     82 H                     0.218443       0.000067
     83 H                     0.216517       0.000023
     84 H                     0.209338       0.000008
     85 H                     0.232502       0.000860
     86 H                     0.247095      -0.000356
     87 H                     0.243851      -0.000803
     88 H                     0.232734       0.000714
     89 H                     0.247673      -0.000233
     90 H                     0.243820      -0.000746
  --------------------------------------------------------
  Sum of atomic charges =    -0.000000

                    Cartesian Multipole Moments
 -----------------------------------------------------------------
    Charge (ESU x 10^10)
                -0.0000
    Dipole Moment (Debye)
         X       1.2743      Y       0.0274      Z      -0.4159
       Tot       1.3407
    Quadrupole Moments (Debye-Ang)
        XX    -267.3773     XY      -0.0778     YY    -286.9763
        XZ      -5.5611     YZ      -6.8614     ZZ    -314.2354

 Total job time:  22065.74s(wall), 66102.87s(cpu)
        *  Thank you very much for using Q-Chem.  Have a nice day.  *
