 Q-Chem 5.0, Q-Chem, Inc., Pleasanton, CA (2017)
 Q-Chem 5.0.1 for Intel X86 EM64T Linux

User input:
--------------------------------------------------------------
$rem
threads 8
jobtype opt
method PBEh-3c
basis def2-mSVP
mem_static      1024
mem_total       8000
sym_ignore      true
unrestricted true
scf_algorithm   diis
scf_max_cycles  250
solvent_method  pcm
geom_opt_tol_energy 25
geom_opt_tol_gradient 75
$end

$pcm
theory  iefpcm
$end

$solvent
dielectric      2.03
$end

$molecule
read utLEincoords.mol
$end

--------------------------------------------------------------

   25   -2123.3113339503      8.51E-09 Convergence criterion met
 Total energy in the final basis set = -2123.31133395
   18   -2123.3123142417      7.53E-09 Convergence criterion met
 Total energy in the final basis set = -2123.31231424
   17   -2123.3126456177      8.67E-09 Convergence criterion met
 Total energy in the final basis set = -2123.31264562
   16   -2123.3127906003      9.02E-09 Convergence criterion met
 Total energy in the final basis set = -2123.31279060
   16   -2123.3128534831      6.81E-09 Convergence criterion met
 Total energy in the final basis set = -2123.31285348
   16   -2123.3128907545      7.38E-09 Convergence criterion met
 Total energy in the final basis set = -2123.31289075
   14   -2123.3128928461      8.50E-09 Convergence criterion met
 Total energy in the final basis set = -2123.31289285
   14   -2123.3128914506      8.30E-09 Convergence criterion met
   14   -2123.3128845559      7.36E-09 Convergence criterion met
 Total energy in the final basis set = -2123.31288456
   13   -2123.3128793605      9.85E-09 Convergence criterion met
 Total energy in the final basis set = -2123.31287936
   13   -2123.3128772510      9.56E-09 Convergence criterion met
 Total energy in the final basis set = -2123.31287725
   13   -2123.3128767447      9.58E-09 Convergence criterion met
 Total energy in the final basis set = -2123.31287674
   13   -2123.3128761197      9.59E-09 Convergence criterion met
 Total energy in the final basis set = -2123.31287612
   13   -2123.3128750402      9.91E-09 Convergence criterion met
 Total energy in the final basis set = -2123.31287504

             Standard Nuclear Orientation (Angstroms)
    I     Atom           X                Y                Z
 ----------------------------------------------------------------
    1      C      -2.5593691171     0.3993938672    -0.1982392148
    2      C      -2.3999770559    -1.0023742822    -0.0227004598
    3      C      -1.1446864140    -1.5575764062     0.0438247067
    4      C      -0.0081038821    -0.7405791659    -0.0689575811
    5      C      -0.1659322456     0.6608090416    -0.2567270169
    6      C      -1.4575644561     1.2119721759    -0.3156000156
    7      B       1.3928503980    -1.3796329743     0.0001974476
    8      C       2.6309099488    -0.4902111853    -0.1900308925
    9      C       2.4709433791     0.9770774706    -0.3796118775
   10      B       1.0591407210     1.5847935743    -0.4101520756
   11      C       3.8952116829    -1.0515019754    -0.2143233155
   12      C       5.0131092448    -0.2525641568    -0.4176063936
   13      C       4.8592268616     1.2232095882    -0.5823730083
   14      C       3.5901780659     1.7823831166    -0.5528033808
   15      C       6.6703055862     3.0362908954    -1.0192643598
   16      C       6.1581768124     1.7660687987    -0.7916221821
   17      C       7.0584892154     0.6689444677    -0.7675375582
   18      C       8.4312741959     0.7753064471    -0.9685334609
   19      C       8.9199807292     2.0838669769    -1.1973561111
   20      C       8.0514996840     3.1645515300    -1.2170027621
   21      C       6.3872214902    -0.5623061970    -0.5409513744
   22      C       7.1288290560    -1.7381995049    -0.5107150566
   23      C       8.5109462665    -1.6467357536    -0.7068829659
   24      C       9.1589257653    -0.4398009397    -0.9292603742
   25      C      -6.1681389699     1.6907282061    -0.3343457655
   26      C      -6.7968696092     0.4768775121    -0.1821777082
   27      C      -6.0307344469    -0.7046896881    -0.0432342860
   28      C      -4.6475999292    -0.5463492674    -0.0684102854
   29      C      -3.9939815865     0.6900592698    -0.2246064724
   30      C      -4.7592297076     1.8192065330    -0.3593884828
   31      C      -6.5075948388    -2.0286557952     0.1153198481
   32      C      -5.6186209849    -3.0718389525     0.2323590267
   33      C      -4.2166971062    -2.8805606705     0.2048679344
   34      C      -3.7309018202    -1.6067702798     0.0551527791
   35      C       0.8282966980     3.1270856251    -0.6260161105
   36      C       1.5385069505    -2.9268806773     0.2652639895
   37      C       1.6127496861    -3.8484168453    -0.8162196525
   38      C       1.7246580464    -5.2412971158    -0.5652529144
   39      C       1.7561154704    -5.6881816261     0.7717754376
   40      C       1.6711872659    -4.7938171449     1.7998258194
   41      C       1.5579506792    -3.4057498947     1.5601810503
   42      C       1.5644221811    -3.4179729079    -2.1658410834
   43      C       1.6304605728    -4.3108582229    -3.1993367086
   44      C       1.7507824505    -5.6911436775    -2.9420063092
   45      C       1.7962677142    -6.1423076346    -1.6531250152
   46      C       0.6591330289     3.9921725962     0.4899974160
   47      C       0.3651927885     5.3655835564     0.2936573513
   48      C       0.2528255226     5.8494200852    -1.0273377277
   49      C       0.4154942531     5.0061486491    -2.0894155876
   50      C       0.6984875975     3.6341901246    -1.9036862444
   51      C       0.7567873976     3.5103940901     1.8184177569
   52      C       0.5706522489     4.3414265085     2.8874543753
   53      C       0.2801804989     5.7055380227     2.6855751234
   54      C       0.1819822255     6.2038767475     1.4166770256
   55      C       0.8121476499     2.7319313631    -3.1022116430
   56      C       1.4291437358    -2.4652823714     2.7259127452
   57      H      -1.0277444590    -2.6271164319     0.1792453199
   58      H      -1.5821280561     2.2786799631    -0.4586467056
   59      H       4.0092384752    -2.1222972445    -0.0868423126
   60      H       3.4598961918     2.8506601457    -0.6836874698
   61      H       6.0305989180     3.9083888149    -1.0493822118
   62      H       9.9779264630     2.2440422754    -1.3620634924
   63      H       8.4578563029     4.1513171674    -1.3962207385
   64      H       6.6602934899    -2.7003255927    -0.3489428261
   65      H       9.0990144058    -2.5550486715    -0.6886193085
   66      H      10.2311676699    -0.4301885200    -1.0789427942
   67      H      -6.7703380801     2.5836345352    -0.4399332310
   68      H      -7.8789578824     0.4249491939    -0.1701456723
   69      H      -4.3161226797     2.7992013994    -0.4823464813
   70      H      -7.5732770737    -2.2219258215     0.1424683496
   71      H      -6.0004969080    -4.0779268923     0.3491816807
   72      H      -3.5608571940    -3.7371798379     0.2992711082
   73      H       1.8443993257    -6.7494914122     0.9725386656
   74      H       1.6892386163    -5.1503839126     2.8231447958
   75      H       1.4678582429    -2.3603376414    -2.3832249512
   76      H       1.5890370050    -3.9580173705    -4.2217399189
   77      H       1.8037360309    -6.3896217409    -3.7671524018
   78      H       1.8856654612    -7.2029265516    -1.4484515281
   79      H       0.0298714455     6.8972414609    -1.1902511798
   80      H       0.3193172024     5.3902777387    -3.0985169584
   81      H       0.9775288324     2.4625186255     1.9883839272
   82      H       0.6442818296     3.9515821976     3.8943530397
   83      H       0.1337051270     6.3549051295     3.5387829488
   84      H      -0.0431149372     7.2516605300     1.2554585775
   85      H       0.8197772191     3.2973512845    -4.0339384347
   86      H      -0.0268615143     2.0334661498    -3.1522839052
   87      H       1.7231950236     2.1314448842    -3.0754486498
   88      H       1.6129764689    -2.9702285321     3.6739515438
   89      H       0.4269271546    -2.0328639808     2.7734550625
   90      H       2.1314492873    -1.6323218680     2.6562007540
 ----------------------------------------------------------------

   14   -2123.3128749529      9.67E-09 Convergence criterion met
 Total energy in the final basis set = -2123.31287495
 Final energy is   -2123.31287495288
 **  OPTIMIZATION CONVERGED  **

                    Orbital Energies (a.u.)
 --------------------------------------------------------------

 Alpha MOs
 -- Occupied --
-10.486 -10.485 -10.470 -10.469 -10.467 -10.467 -10.466 -10.466
-10.465 -10.465 -10.462 -10.462 -10.462 -10.461 -10.461 -10.461
-10.460 -10.460 -10.459 -10.458 -10.458 -10.458 -10.458 -10.455
-10.455 -10.453 -10.452 -10.452 -10.451 -10.451 -10.451 -10.450
-10.450 -10.449 -10.448 -10.445 -10.444 -10.444 -10.443 -10.443
-10.443 -10.442 -10.442 -10.442 -10.442 -10.442 -10.441 -10.440
-10.434 -10.433 -10.426 -10.426 -10.425 -10.425  -6.935  -6.935
 -1.028  -1.013  -0.975  -0.974  -0.968  -0.958  -0.939  -0.930
 -0.922  -0.921  -0.914  -0.900  -0.874  -0.866  -0.865  -0.854
 -0.852  -0.844  -0.844  -0.843  -0.826  -0.821  -0.812  -0.809
 -0.806  -0.805  -0.763  -0.763  -0.745  -0.737  -0.725  -0.720
 -0.699  -0.696  -0.692  -0.690  -0.679  -0.672  -0.671  -0.668
 -0.668  -0.656  -0.649  -0.644  -0.603  -0.595  -0.594  -0.588
 -0.584  -0.577  -0.576  -0.574  -0.573  -0.565  -0.564  -0.547
 -0.546  -0.545  -0.535  -0.528  -0.526  -0.513  -0.512  -0.505
 -0.504  -0.504  -0.502  -0.501  -0.498  -0.494  -0.490  -0.485
 -0.485  -0.482  -0.479  -0.478  -0.478  -0.473  -0.470  -0.469
 -0.465  -0.464  -0.453  -0.452  -0.446  -0.446  -0.444  -0.439
 -0.438  -0.437  -0.436  -0.431  -0.428  -0.426  -0.422  -0.412
 -0.407  -0.406  -0.403  -0.401  -0.394  -0.393  -0.392  -0.387
 -0.387  -0.384  -0.380  -0.379  -0.369  -0.367  -0.356  -0.354
 -0.350  -0.343  -0.336  -0.323  -0.317  -0.315  -0.312  -0.296
 -0.291  -0.277  -0.276  -0.275  -0.264  -0.256  -0.244  -0.244
 -0.184

 Beta MOs
 -- Occupied --
-10.479 -10.478 -10.472 -10.470 -10.470 -10.466 -10.466 -10.465
-10.463 -10.462 -10.462 -10.461 -10.461 -10.461 -10.461 -10.460
-10.460 -10.460 -10.460 -10.458 -10.458 -10.458 -10.458 -10.456
-10.456 -10.452 -10.451 -10.451 -10.451 -10.451 -10.450 -10.449
-10.448 -10.448 -10.446 -10.445 -10.444 -10.444 -10.443 -10.443
-10.443 -10.442 -10.442 -10.442 -10.442 -10.442 -10.441 -10.440
-10.434 -10.433 -10.426 -10.426 -10.425 -10.425  -6.934  -6.933
 -1.020  -1.013  -0.974  -0.974  -0.960  -0.956  -0.935  -0.930
 -0.921  -0.921  -0.908  -0.899  -0.872  -0.866  -0.864  -0.851
 -0.850  -0.844  -0.844  -0.843  -0.818  -0.817  -0.811  -0.807
 -0.806  -0.796  -0.763  -0.763  -0.735  -0.734  -0.724  -0.718
 -0.698  -0.696  -0.689  -0.686  -0.677  -0.671  -0.669  -0.668
 -0.667  -0.655  -0.646  -0.643  -0.600  -0.593  -0.590  -0.587
 -0.583  -0.576  -0.574  -0.573  -0.573  -0.565  -0.564  -0.546
 -0.546  -0.542  -0.532  -0.526  -0.525  -0.512  -0.509  -0.504
 -0.502  -0.502  -0.501  -0.498  -0.492  -0.490  -0.484  -0.484
 -0.481  -0.481  -0.478  -0.478  -0.477  -0.473  -0.470  -0.469
 -0.465  -0.463  -0.451  -0.451  -0.445  -0.444  -0.439  -0.438
 -0.437  -0.435  -0.431  -0.428  -0.426  -0.421  -0.413  -0.411
 -0.405  -0.401  -0.400  -0.395  -0.393  -0.392  -0.391  -0.386
 -0.384  -0.383  -0.377  -0.369  -0.367  -0.359  -0.353  -0.349
 -0.341  -0.335  -0.330  -0.322  -0.316  -0.312  -0.298  -0.291
 -0.276  -0.275  -0.266  -0.262  -0.254  -0.244  -0.243

          Ground-State Mulliken Net Atomic Charges

     Atom                 Charge (a.u.)    Spin (a.u.)
  --------------------------------------------------------
      1 C                     0.099795       0.032940
      2 C                     0.089655       0.036741
      3 C                    -0.391371      -0.008669
      4 C                    -0.146411       0.017794
      5 C                    -0.142579       0.015193
      6 C                    -0.389948      -0.005341
      7 B                     0.655129       0.163093
      8 C                    -0.143258       0.336219
      9 C                    -0.143600       0.379373
     10 B                     0.658112       0.164462
     11 C                    -0.362267      -0.251932
     12 C                     0.074578       0.454145
     13 C                     0.090186       0.458950
     14 C                    -0.375892      -0.272180
     15 C                    -0.378320       0.295346
     16 C                     0.196368      -0.211294
     17 C                    -0.064628       0.280521
     18 C                     0.247656      -0.195908
     19 C                    -0.347811       0.316207
     20 C                    -0.214437      -0.202844
     21 C                     0.194237      -0.203594
     22 C                    -0.370925       0.306215
     23 C                    -0.215586      -0.207078
     24 C                    -0.344370       0.336353
     25 C                    -0.216584      -0.016169
     26 C                    -0.342282       0.022557
     27 C                     0.237225      -0.014411
     28 C                    -0.062943       0.018688
     29 C                     0.192802      -0.019830
     30 C                    -0.389269       0.022994
     31 C                    -0.340630       0.023580
     32 C                    -0.217260      -0.016624
     33 C                    -0.386978       0.024104
     34 C                     0.191489      -0.020724
     35 C                    -0.224477      -0.015602
     36 C                    -0.218882      -0.015973
     37 C                     0.075503       0.001463
     38 C                     0.120808      -0.000139
     39 C                    -0.323074       0.000061
     40 C                    -0.277952      -0.000028
     41 C                     0.011931       0.001260
     42 C                    -0.334885       0.002923
     43 C                    -0.245392      -0.000098
     44 C                    -0.244553      -0.000093
     45 C                    -0.295352       0.000361
     46 C                     0.078938       0.001164
     47 C                     0.120637       0.000067
     48 C                    -0.323406      -0.000519
     49 C                    -0.276814       0.000420
     50 C                     0.013744       0.000924
     51 C                    -0.332959       0.003225
     52 C                    -0.246206      -0.000510
     53 C                    -0.244224       0.000174
     54 C                    -0.296267       0.000022
     55 C                    -0.757404       0.001011
     56 C                    -0.757180       0.001088
     57 H                     0.238962      -0.000011
     58 H                     0.239604      -0.000195
     59 H                     0.248759       0.010264
     60 H                     0.247845       0.011347
     61 H                     0.236736      -0.017460
     62 H                     0.236774      -0.018528
     63 H                     0.242177       0.009763
     64 H                     0.238382      -0.018136
     65 H                     0.243257       0.009854
     66 H                     0.237334      -0.019722
     67 H                     0.239217       0.000792
     68 H                     0.233914      -0.001306
     69 H                     0.235270      -0.001348
     70 H                     0.233905      -0.001367
     71 H                     0.239410       0.000810
     72 H                     0.235179      -0.001413
     73 H                     0.222082      -0.000008
     74 H                     0.219865       0.000147
     75 H                     0.244886      -0.001614
     76 H                     0.231239       0.000044
     77 H                     0.229372       0.000038
     78 H                     0.222994      -0.000008
     79 H                     0.221951       0.000027
     80 H                     0.219604       0.000154
     81 H                     0.244557      -0.001701
     82 H                     0.231234       0.000068
     83 H                     0.229352       0.000024
     84 H                     0.223105       0.000008
     85 H                     0.239251       0.000885
     86 H                     0.249362      -0.000364
     87 H                     0.246351      -0.000818
     88 H                     0.239437       0.000733
     89 H                     0.249432      -0.000246
     90 H                     0.246781      -0.000793
  --------------------------------------------------------
  Sum of atomic charges =    -0.000000

                    Cartesian Multipole Moments
 -----------------------------------------------------------------
    Charge (ESU x 10^10)
                -0.0000
    Dipole Moment (Debye)
         X       1.8213      Y       0.0592      Z      -0.4950
       Tot       1.8883
    Quadrupole Moments (Debye-Ang)
        XX    -257.6340     XY       0.3435     YY    -283.2287
        XZ      -6.3080     YZ      -7.8097     ZZ    -312.6154

 Total job time:  34992.87s(wall), 99226.75s(cpu)
        *  Thank you very much for using Q-Chem.  Have a nice day.  *
