 Q-Chem 5.1, Q-Chem, Inc., Pleasanton, CA (2018)
 Q-Chem 5.1.1 for Intel X86 EM64T Linux

User input:
--------------------------------------------------------------
$rem
threads 8
jobtype sp
method PBEh-3c
basis def2-mSVP
mem_static      1024
mem_total       8000
sym_ignore      true
unrestricted true
scf_algorithm	diis
scf_max_cycles	250
solvent_method  pcm
make_cube_files	true
$end

$pcm
theory  iefpcm
$end

$solvent
dielectric      2.38
$end

$plots
singlet state dens for utleopt_tol.out
253 -9.79 10.01
135 -6.59 5.87
271 -11.94 9.03
0 1 0 0
0
$end

$molecule
0 1
C        -0.0092362327   -0.3555775946    0.0322759517
C        -0.0036577663   -0.3694058964    1.4397631282
H         0.9425467478   -0.4014262591    1.9683587677
C        -1.1874085828   -0.3399361797    2.1398319358
C        -1.4846428139   -0.3443261013    3.5743229770
C        -0.7436021556   -0.3780957242    4.7261238901
H         0.3385935133   -0.4108246281    4.7096976811
C        -1.4252974036   -0.3701443374    5.9671058089
H        -0.8390595865   -0.3970465417    6.8763631467
C        -2.7975943886   -0.3302808435    6.0602146384
H        -3.2721473056   -0.3259159222    7.0338370918
C        -2.8884689556   -0.3038979957    3.6830588522
C        -3.5873029948   -0.2954237022    4.8854915183
C        -3.5037690548   -0.2738528725    2.4168851412
C        -4.8720259786   -0.2321314587    2.3457229305
H        -5.3955495152   -0.2064721727    1.3977705920
C        -5.6083286979   -0.2224350762    3.5533899228
H        -6.6889244359   -0.1897060180    3.5001504639
C        -5.0001736252   -0.2529452299    4.7874334635
H        -5.6057809602   -0.2440860704    5.6854336233
C        -2.4226797909   -0.2969104113    1.4360265568
C        -2.4477114358   -0.2866075155    0.0600243758
H        -3.3946013216   -0.2597376715   -0.4685434821
C        -1.2480259094   -0.3124536323   -0.6707334480
B         1.3341287919   -0.3912390740   -0.7293116261
B        -1.2989681096   -0.3014962835   -2.2206304643
C         1.3222203180   -0.3453362647   -2.2670261714
C         2.5230314940   -0.3710881705   -2.9695019644
H         3.4593810805   -0.4250683723   -2.4259568953
C         2.5276520795   -0.3325431696   -4.3505586840
C         3.5731784567   -0.3468640484   -5.3190159694
C         4.9601140716   -0.4011752447   -5.2773080520
H         5.4983504714   -0.4440340658   -4.3396633544
C         5.6602827030   -0.4027739614   -6.4919732305
H         6.7413493503   -0.4456218698   -6.4655081544
C         5.0285188333   -0.3536848437   -7.7247075035
H         5.6203395096   -0.3588248082   -8.6315465106
C         2.9382356981   -0.2968585925   -6.5855907933
C         3.6165752309   -0.2989856719   -7.8035529085
C         1.5216418406   -0.2509137142   -6.4729124672
C         0.7584425095   -0.2025896166   -7.6374428822
H        -0.3227395557   -0.1657603868   -7.6055933092
C         1.4268457472   -0.2027786168   -8.8665845055
H         0.8410937784   -0.1652982880   -9.7760646823
C         2.8101677438   -0.2495245158   -8.9677685566
H         3.2745703959   -0.2486476956   -9.9460687420
C         1.2302017925   -0.2734498010   -5.0882952989
C         0.0303727424   -0.2615411094   -4.3853015185
H        -0.9098396478   -0.2295104553   -4.9253307309
C         0.0286256030   -0.2979642182   -3.0018547292
C         2.7039210260   -0.4997188831    0.0352213963
C         3.5059282346    0.6252460490    0.2488006875
C         4.7224373392    0.5164305472    0.9219480161
H         5.3131241213    1.4119603507    1.0726151398
C         5.1562099637   -0.7183476306    1.3862988525
O         6.3168530872   -0.9222178315    2.0450716265
C         4.3644786425   -1.8436436816    1.1744053280
H         4.7099209190   -2.8058550071    1.5365821106
C         3.1526229303   -1.7439380862    0.5107557286
C         7.1485938210    0.1837408722    2.2913242006
H         8.0171012533   -0.1931984592    2.8272006370
H         7.4897476375    0.6593730275    1.3665419738
H         6.6586121133    0.9406171247    2.9116757478
C         3.0477837673    1.9934814522   -0.1887444809
H         2.4813776828    1.9244991293   -1.1210836718
H         3.9169107326    2.6175313288   -0.4124860341
C         2.3600622435   -3.0036613146    0.2630237789
H         1.2886003132   -2.7893808070    0.2767464636
H         2.5344577618   -3.7090233890    1.0792820445
C         2.1880050243    2.6856924015    0.8668725993
H         1.2797337394    2.1186596104    1.0717089434
H         1.8884010400    3.6805461354    0.5350601995
H         2.7308290243    2.7932172729    1.8066496981
C         2.7209863423   -3.6733252313   -1.0619838996
H         2.5089057126   -3.0201066398   -1.9086547945
H         3.7808324039   -3.9279704656   -1.0978314058
H         2.1500431738   -4.5921351385   -1.2026368521
C        -2.6736891276   -0.3142500763   -2.9956254373
C        -3.1975239441   -1.5128726379   -3.4903339614
C        -4.4073255864   -1.5369018924   -4.1834874824
H        -4.7757479743   -2.4895096734   -4.5454896822
C        -5.1183982178   -0.3645586850   -4.3935288265
O        -6.2963174971   -0.2901639706   -5.0492531725
C        -4.6073659308    0.8341562720   -3.9050946265
H        -5.1639572637    1.7499981432   -4.0722876107
C        -3.4050178704    0.8660453057   -3.2170584737
C        -6.8611400595   -1.4769177280   -5.5497052602
H        -7.7964297369   -1.1978791779   -6.0302883722
H        -7.0792775368   -2.1984627795   -4.7562392562
H        -6.2195326666   -1.9606521044   -6.2927548519
C        -2.8743746796    2.2048775957   -2.7742888466
H        -3.7072309823    2.8484368593   -2.4798735552
H        -2.2503584913    2.0942589646   -1.8839941723
C        -2.5133191785   -2.8327746673   -3.2364214908
H        -1.4388043031   -2.6874137275   -3.1030440176
H        -2.6220404788   -3.4767658715   -4.1133783686
C        -2.0711962389    2.8946017785   -3.8752027077
H        -1.2015139572    2.3015431172   -4.1590219674
H        -2.6783740692    3.0410218961   -4.7693051475
H        -1.7141290240    3.8714692487   -3.5470633030
C        -3.0810092375   -3.5462822942   -2.0113083382
H        -2.9520499537   -2.9432875135   -1.1120612122
H        -4.1477480202   -3.7413772882   -2.1289367850
H        -2.5812572113   -4.5016918121   -1.8468979802
$end

--------------------------------------------------------------

             Standard Nuclear Orientation (Angstroms)
    I     Atom           X                Y                Z
 ----------------------------------------------------------------
    1      C      -0.0092362327    -0.3555775946     0.0322759517
    2      C      -0.0036577663    -0.3694058964     1.4397631282
    3      H       0.9425467478    -0.4014262591     1.9683587677
    4      C      -1.1874085828    -0.3399361797     2.1398319358
    5      C      -1.4846428139    -0.3443261013     3.5743229770
    6      C      -0.7436021556    -0.3780957242     4.7261238901
    7      H       0.3385935133    -0.4108246281     4.7096976811
    8      C      -1.4252974036    -0.3701443374     5.9671058089
    9      H      -0.8390595865    -0.3970465417     6.8763631467
   10      C      -2.7975943886    -0.3302808435     6.0602146384
   11      H      -3.2721473056    -0.3259159222     7.0338370918
   12      C      -2.8884689556    -0.3038979957     3.6830588522
   13      C      -3.5873029948    -0.2954237022     4.8854915183
   14      C      -3.5037690548    -0.2738528725     2.4168851412
   15      C      -4.8720259786    -0.2321314587     2.3457229305
   16      H      -5.3955495152    -0.2064721727     1.3977705920
   17      C      -5.6083286979    -0.2224350762     3.5533899228
   18      H      -6.6889244359    -0.1897060180     3.5001504639
   19      C      -5.0001736252    -0.2529452299     4.7874334635
   20      H      -5.6057809602    -0.2440860704     5.6854336233
   21      C      -2.4226797909    -0.2969104113     1.4360265568
   22      C      -2.4477114358    -0.2866075155     0.0600243758
   23      H      -3.3946013216    -0.2597376715    -0.4685434821
   24      C      -1.2480259094    -0.3124536323    -0.6707334480
   25      B       1.3341287919    -0.3912390740    -0.7293116261
   26      B      -1.2989681096    -0.3014962835    -2.2206304643
   27      C       1.3222203180    -0.3453362647    -2.2670261714
   28      C       2.5230314940    -0.3710881705    -2.9695019644
   29      H       3.4593810805    -0.4250683723    -2.4259568953
   30      C       2.5276520795    -0.3325431696    -4.3505586840
   31      C       3.5731784567    -0.3468640484    -5.3190159694
   32      C       4.9601140716    -0.4011752447    -5.2773080520
   33      H       5.4983504714    -0.4440340658    -4.3396633544
   34      C       5.6602827030    -0.4027739614    -6.4919732305
   35      H       6.7413493503    -0.4456218698    -6.4655081544
   36      C       5.0285188333    -0.3536848437    -7.7247075035
   37      H       5.6203395096    -0.3588248082    -8.6315465106
   38      C       2.9382356981    -0.2968585925    -6.5855907933
   39      C       3.6165752309    -0.2989856719    -7.8035529085
   40      C       1.5216418406    -0.2509137142    -6.4729124672
   41      C       0.7584425095    -0.2025896166    -7.6374428822
   42      H      -0.3227395557    -0.1657603868    -7.6055933092
   43      C       1.4268457472    -0.2027786168    -8.8665845055
   44      H       0.8410937784    -0.1652982880    -9.7760646823
   45      C       2.8101677438    -0.2495245158    -8.9677685566
   46      H       3.2745703959    -0.2486476956    -9.9460687420
   47      C       1.2302017925    -0.2734498010    -5.0882952989
   48      C       0.0303727424    -0.2615411094    -4.3853015185
   49      H      -0.9098396478    -0.2295104553    -4.9253307309
   50      C       0.0286256030    -0.2979642182    -3.0018547292
   51      C       2.7039210260    -0.4997188831     0.0352213963
   52      C       3.5059282346     0.6252460490     0.2488006875
   53      C       4.7224373392     0.5164305472     0.9219480161
   54      H       5.3131241213     1.4119603507     1.0726151398
   55      C       5.1562099637    -0.7183476306     1.3862988525
   56      O       6.3168530872    -0.9222178315     2.0450716265
   57      C       4.3644786425    -1.8436436816     1.1744053280
   58      H       4.7099209190    -2.8058550071     1.5365821106
   59      C       3.1526229303    -1.7439380862     0.5107557286
   60      C       7.1485938210     0.1837408722     2.2913242006
   61      H       8.0171012533    -0.1931984592     2.8272006370
   62      H       7.4897476375     0.6593730275     1.3665419738
   63      H       6.6586121133     0.9406171247     2.9116757478
   64      C       3.0477837673     1.9934814522    -0.1887444809
   65      H       2.4813776828     1.9244991293    -1.1210836718
   66      H       3.9169107326     2.6175313288    -0.4124860341
   67      C       2.3600622435    -3.0036613146     0.2630237789
   68      H       1.2886003132    -2.7893808070     0.2767464636
   69      H       2.5344577618    -3.7090233890     1.0792820445
   70      C       2.1880050243     2.6856924015     0.8668725993
   71      H       1.2797337394     2.1186596104     1.0717089434
   72      H       1.8884010400     3.6805461354     0.5350601995
   73      H       2.7308290243     2.7932172729     1.8066496981
   74      C       2.7209863423    -3.6733252313    -1.0619838996
   75      H       2.5089057126    -3.0201066398    -1.9086547945
   76      H       3.7808324039    -3.9279704656    -1.0978314058
   77      H       2.1500431738    -4.5921351385    -1.2026368521
   78      C      -2.6736891276    -0.3142500763    -2.9956254373
   79      C      -3.1975239441    -1.5128726379    -3.4903339614
   80      C      -4.4073255864    -1.5369018924    -4.1834874824
   81      H      -4.7757479743    -2.4895096734    -4.5454896822
   82      C      -5.1183982178    -0.3645586850    -4.3935288265
   83      O      -6.2963174971    -0.2901639706    -5.0492531725
   84      C      -4.6073659308     0.8341562720    -3.9050946265
   85      H      -5.1639572637     1.7499981432    -4.0722876107
   86      C      -3.4050178704     0.8660453057    -3.2170584737
   87      C      -6.8611400595    -1.4769177280    -5.5497052602
   88      H      -7.7964297369    -1.1978791779    -6.0302883722
   89      H      -7.0792775368    -2.1984627795    -4.7562392562
   90      H      -6.2195326666    -1.9606521044    -6.2927548519
   91      C      -2.8743746796     2.2048775957    -2.7742888466
   92      H      -3.7072309823     2.8484368593    -2.4798735552
   93      H      -2.2503584913     2.0942589646    -1.8839941723
   94      C      -2.5133191785    -2.8327746673    -3.2364214908
   95      H      -1.4388043031    -2.6874137275    -3.1030440176
   96      H      -2.6220404788    -3.4767658715    -4.1133783686
   97      C      -2.0711962389     2.8946017785    -3.8752027077
   98      H      -1.2015139572     2.3015431172    -4.1590219674
   99      H      -2.6783740692     3.0410218961    -4.7693051475
  100      H      -1.7141290240     3.8714692487    -3.5470633030
  101      C      -3.0810092375    -3.5462822942    -2.0113083382
  102      H      -2.9520499537    -2.9432875135    -1.1120612122
  103      H      -4.1477480202    -3.7413772882    -2.1289367850
  104      H      -2.5812572113    -4.5016918121    -1.8468979802
 ----------------------------------------------------------------

    7   -2280.7174544375      8.02e-06  Convergence criterion met
 Total energy in the final basis set =    -2280.7174544375

                    Orbital Energies (a.u.)
 --------------------------------------------------------------

 Alpha MOs
 -- Occupied --
-19.524 -19.524 -10.500 -10.500 -10.484 -10.484 -10.467 -10.467
-10.465 -10.464 -10.464 -10.464 -10.463 -10.462 -10.461 -10.461
-10.460 -10.460 -10.459 -10.459 -10.459 -10.459 -10.459 -10.459
-10.458 -10.457 -10.456 -10.456 -10.451 -10.450 -10.450 -10.449
-10.448 -10.448 -10.447 -10.447 -10.447 -10.444 -10.434 -10.433
-10.432 -10.431 -10.431 -10.431 -10.431 -10.431 -10.430 -10.430
-10.428 -10.428 -10.418 -10.417 -10.417 -10.416 -10.416 -10.414
 -6.943  -6.940  -1.180  -1.180  -1.012  -1.011  -0.958  -0.953
 -0.953  -0.950  -0.932  -0.930  -0.903  -0.895  -0.886  -0.885
 -0.865  -0.861  -0.857  -0.851  -0.848  -0.844  -0.819  -0.818
 -0.813  -0.811  -0.809  -0.799  -0.798  -0.794  -0.772  -0.770
 -0.735  -0.730  -0.725  -0.715  -0.709  -0.708  -0.700  -0.700
 -0.686  -0.680  -0.675  -0.664  -0.654  -0.645  -0.642  -0.636
 -0.628  -0.627  -0.597  -0.590  -0.588  -0.586  -0.582  -0.581
 -0.580  -0.573  -0.572  -0.560  -0.560  -0.540  -0.539  -0.534
 -0.532  -0.531  -0.525  -0.521  -0.513  -0.506  -0.501  -0.501
 -0.499  -0.498  -0.497  -0.495  -0.489  -0.488  -0.485  -0.482
 -0.482  -0.481  -0.480  -0.478  -0.477  -0.477  -0.475  -0.462
 -0.458  -0.457  -0.456  -0.454  -0.452  -0.449  -0.441  -0.436
 -0.433  -0.431  -0.428  -0.427  -0.426  -0.425  -0.421  -0.412
 -0.411  -0.410  -0.406  -0.403  -0.398  -0.398  -0.396  -0.395
 -0.393  -0.392  -0.391  -0.388  -0.388  -0.384  -0.380  -0.378
 -0.371  -0.368  -0.361  -0.360  -0.356  -0.355  -0.352  -0.345
 -0.338  -0.334  -0.321  -0.312  -0.297  -0.292  -0.274  -0.274
 -0.273  -0.260  -0.253  -0.249  -0.247  -0.244

 Beta MOs
 -- Occupied --
-19.524 -19.524 -10.500 -10.500 -10.484 -10.484 -10.467 -10.467
-10.465 -10.464 -10.464 -10.464 -10.463 -10.462 -10.461 -10.461
-10.460 -10.460 -10.459 -10.459 -10.459 -10.459 -10.459 -10.459
-10.458 -10.457 -10.456 -10.456 -10.451 -10.450 -10.450 -10.449
-10.448 -10.448 -10.447 -10.447 -10.447 -10.444 -10.434 -10.433
-10.432 -10.431 -10.431 -10.431 -10.431 -10.431 -10.430 -10.430
-10.428 -10.428 -10.418 -10.417 -10.417 -10.416 -10.416 -10.414
 -6.943  -6.940  -1.180  -1.180  -1.012  -1.011  -0.958  -0.953
 -0.953  -0.950  -0.932  -0.930  -0.903  -0.895  -0.886  -0.885
 -0.865  -0.861  -0.857  -0.851  -0.848  -0.844  -0.819  -0.818
 -0.813  -0.811  -0.809  -0.799  -0.798  -0.794  -0.772  -0.770
 -0.735  -0.730  -0.725  -0.715  -0.709  -0.708  -0.700  -0.700
 -0.686  -0.680  -0.675  -0.664  -0.654  -0.645  -0.642  -0.636
 -0.628  -0.627  -0.597  -0.590  -0.588  -0.586  -0.582  -0.581
 -0.580  -0.573  -0.572  -0.560  -0.560  -0.540  -0.539  -0.534
 -0.532  -0.531  -0.525  -0.521  -0.513  -0.506  -0.501  -0.501
 -0.499  -0.498  -0.497  -0.495  -0.489  -0.488  -0.485  -0.482
 -0.482  -0.481  -0.480  -0.478  -0.477  -0.477  -0.475  -0.462
 -0.458  -0.457  -0.456  -0.454  -0.452  -0.449  -0.441  -0.436
 -0.433  -0.431  -0.428  -0.427  -0.426  -0.425  -0.421  -0.412
 -0.411  -0.410  -0.406  -0.403  -0.398  -0.398  -0.396  -0.395
 -0.393  -0.392  -0.391  -0.388  -0.388  -0.384  -0.380  -0.378
 -0.371  -0.368  -0.361  -0.360  -0.356  -0.355  -0.352  -0.345
 -0.338  -0.334  -0.321  -0.312  -0.297  -0.292  -0.274  -0.274
 -0.273  -0.260  -0.253  -0.249  -0.247  -0.244

          Ground-State Mulliken Net Atomic Charges

     Atom                 Charge (a.u.)    Spin (a.u.)
  --------------------------------------------------------
      1 C                    -0.150672      -0.000000
      2 C                    -0.397611       0.000000
      3 H                     0.244732      -0.000000
      4 C                     0.096798      -0.000000
      5 C                     0.192395       0.000000
      6 C                    -0.392084       0.000000
      7 H                     0.237631       0.000000
      8 C                    -0.219157      -0.000000
      9 H                     0.241891      -0.000000
     10 C                    -0.344150      -0.000000
     11 H                     0.237089       0.000000
     12 C                    -0.064901       0.000000
     13 C                     0.236419      -0.000000
     14 C                     0.185176      -0.000000
     15 C                    -0.385650       0.000000
     16 H                     0.237706       0.000000
     17 C                    -0.220881      -0.000000
     18 H                     0.242109      -0.000000
     19 C                    -0.341886       0.000000
     20 H                     0.236813       0.000000
     21 C                     0.089797       0.000000
     22 C                    -0.394480       0.000000
     23 H                     0.241652       0.000000
     24 C                    -0.153498       0.000000
     25 B                     0.642309       0.000000
     26 B                     0.648602       0.000000
     27 C                    -0.155837       0.000000
     28 C                    -0.377192      -0.000000
     29 H                     0.245114       0.000000
     30 C                     0.062957       0.000000
     31 C                     0.200775       0.000000
     32 C                    -0.370290       0.000000
     33 H                     0.241125       0.000000
     34 C                    -0.219555      -0.000000
     35 H                     0.243778      -0.000000
     36 C                    -0.340367       0.000000
     37 H                     0.239739       0.000000
     38 C                    -0.088839       0.000000
     39 C                     0.236526      -0.000000
     40 C                     0.191547       0.000000
     41 C                    -0.363458      -0.000000
     42 H                     0.240965      -0.000000
     43 C                    -0.219833      -0.000000
     44 H                     0.244142       0.000000
     45 C                    -0.338658      -0.000000
     46 H                     0.239547      -0.000000
     47 C                     0.057781      -0.000000
     48 C                    -0.381016      -0.000000
     49 H                     0.243049      -0.000000
     50 C                    -0.148382      -0.000000
     51 C                    -0.225093       0.000000
     52 C                     0.080117       0.000000
     53 C                    -0.439421      -0.000000
     54 H                     0.237333      -0.000000
     55 C                     0.395164       0.000000
     56 O                    -0.462785      -0.000000
     57 C                    -0.392423      -0.000000
     58 H                     0.228872      -0.000000
     59 C                     0.075454      -0.000000
     60 C                    -0.418004       0.000000
     61 H                     0.246920       0.000000
     62 H                     0.211526       0.000000
     63 H                     0.212157       0.000000
     64 C                    -0.550714      -0.000000
     65 H                     0.255865       0.000000
     66 H                     0.231200      -0.000000
     67 C                    -0.553908      -0.000000
     68 H                     0.256612      -0.000000
     69 H                     0.235670      -0.000000
     70 C                    -0.652392       0.000000
     71 H                     0.243987      -0.000000
     72 H                     0.222979      -0.000000
     73 H                     0.216570      -0.000000
     74 C                    -0.653194      -0.000000
     75 H                     0.243024       0.000000
     76 H                     0.219049      -0.000000
     77 H                     0.221778      -0.000000
     78 C                    -0.226560       0.000000
     79 C                     0.069323      -0.000000
     80 C                    -0.434633      -0.000000
     81 H                     0.237481       0.000000
     82 C                     0.395171       0.000000
     83 O                    -0.463326      -0.000000
     84 C                    -0.386121      -0.000000
     85 H                     0.228656      -0.000000
     86 C                     0.073797       0.000000
     87 C                    -0.417870       0.000000
     88 H                     0.246956       0.000000
     89 H                     0.212391       0.000000
     90 H                     0.211801      -0.000000
     91 C                    -0.550788       0.000000
     92 H                     0.235583      -0.000000
     93 H                     0.253785      -0.000000
     94 C                    -0.553526       0.000000
     95 H                     0.259122      -0.000000
     96 H                     0.232936       0.000000
     97 C                    -0.651380       0.000000
     98 H                     0.239528      -0.000000
     99 H                     0.218930      -0.000000
    100 H                     0.222668      -0.000000
    101 C                    -0.648174      -0.000000
    102 H                     0.240097       0.000000
    103 H                     0.215576       0.000000
    104 H                     0.222463       0.000000
  --------------------------------------------------------
  Sum of atomic charges =    -0.000001

                    Cartesian Multipole Moments
 -----------------------------------------------------------------
    Charge (ESU x 10^10)
                -0.0000
    Dipole Moment (Debye)
         X       0.6552      Y      -0.0647      Z      -1.0917
       Tot       1.2748
    Quadrupole Moments (Debye-Ang)
        XX    -282.7908     XY      18.0981     YY    -337.3730
        XZ      -4.7648     YZ      10.9194     ZZ    -276.3984

 Total job time:  1614.96s(wall), 5964.67s(cpu)
        *  Thank you very much for using Q-Chem.  Have a nice day.  *
