                         Program Version 4.0.1 -  RELEASE  -
|  1> %maxcore 1700
|  2> %pal nprocs 4 end
|  3> !PBEh-3c RIJCOSX
|  4>
|  5> *xyzfile 0 1 gsopt.xyz
|  6>
|  7>
|  8>                          ****END OF INPUT****

CARTESIAN COORDINATES (ANGSTROEM)
---------------------------------
  C     -4.880715   -0.336204    4.478230
  C     -5.496059   -0.859518    3.349218
  C     -4.779489   -0.986293    2.155097
  C     -3.448484   -0.555947    2.109513
  C     -2.854048   -0.009785    3.238282
  C     -3.558723    0.090022    4.433474
  N     -2.937391    0.606441    5.586128
  C     -6.923969   -1.327665    3.416630
  C     -2.669506   -0.690162    0.830659
  C     -1.666610    0.146572    5.960770
  C     -0.758442    1.006858    6.577725
  C     -4.419862    2.495699    5.908874
  C     -3.673338    1.445168    6.440244
  C     -5.177283    3.303797    6.738869
  C     -5.188390    3.092279    8.110328
  C     -4.438426    2.053550    8.641656
  C     -3.692633    1.227897    7.816364
  C     -1.289134   -1.174840    5.720340
  C     -0.027284   -1.616809    6.078935
  C      0.871041   -0.762831    6.701350
  C      0.492832    0.548177    6.952297
  C     -6.737610   -1.500721   -1.303879
  C     -6.167594   -0.841974   -0.187761
  B     -5.436812   -1.672715    0.905889
  C     -5.345480   -3.222021    0.769310
  C     -5.916806   -3.870564   -0.350786
  B     -6.647058   -3.046084   -1.443292
  C     -4.698441   -3.978114    1.751501
  C     -4.618700   -5.353326    1.625959
  C     -5.188833   -5.995012    0.504725
  C     -5.829770   -5.258431   -0.472236
  C     -7.393283   -0.759920   -2.286531
  C     -7.481820    0.613586   -2.169132
  C     -6.914249    1.278822   -1.061107
  C     -6.264817    0.548894   -0.078886
  C     -3.332307   -6.395154    3.662554
  C     -2.893660   -7.637150    4.180776
  C     -3.128670   -8.830323    3.539317
  C     -3.833546   -8.848050    2.312607
  C     -4.251087   -7.612337    1.830399
  C     -4.017238   -6.384115    2.476565
  C     -4.160345   -9.973177    1.517087
  C     -4.851499   -9.808638    0.339883
  C     -5.261789   -8.537450   -0.126273
  C     -4.958174   -7.434063    0.627716
  C     -7.307455    5.094741   -1.020323
  C     -6.876338    3.845669   -0.511957
  C     -7.167773    2.713673   -1.224638
  C     -7.883658    2.852505   -2.429326
  C     -8.322488    4.061129   -2.955307
  C     -8.007096    5.214564   -2.198238
  C     -8.101153    1.605373   -3.041220
  C     -8.786261    1.557177   -4.226192
  C     -9.246459    2.771950   -4.784972
  C     -9.028628    3.988341   -4.181103
  C     -9.205024   -4.869981   -3.682534
  C     -8.621227   -4.239366   -2.593407
  C     -7.303277   -3.773061   -2.671811
  C     -6.586847   -3.968667   -3.858369
  C     -7.176983   -4.619536   -4.933468
  C     -8.490199   -5.069726   -4.858466
  N     -9.090047   -5.720247   -5.953192
  C     -9.414485   -4.042255   -1.332197
  C     -5.165256   -3.491889   -3.963624
  C     -8.879811   -5.248050   -7.258157
  C     -8.909137   -3.881581   -7.533919
  C    -11.055797   -7.057092   -6.456734
  C     -9.871125   -6.868224   -5.745333
  C    -11.815419   -8.197629   -6.257534
  C    -11.423205   -9.156566   -5.335198
  C    -10.250840   -8.965567   -4.619032
  C     -9.473394   -7.838757   -4.827056
  C     -8.643247   -6.142227   -8.302473
  C     -8.453574   -5.677473   -9.592675
  C     -8.474986   -4.317162   -9.863315
  C     -8.697883   -3.425206   -8.824434
  H     -5.437502   -0.263786    5.405017
  H     -1.825951    0.329623    3.193937
  H     -6.999383   -2.404686    3.248906
  H     -7.539712   -0.843890    2.655192
  H     -7.374167   -1.114586    4.385366
  H     -2.607787   -1.733949    0.512627
  H     -1.650193   -0.320161    0.934416
  H     -3.140246   -0.137171    0.014918
  H     -1.036456    2.036484    6.761709
  H     -4.409923    2.669452    4.840424
  H     -5.755220    4.112113    6.309881
  H     -5.777200    3.728549    8.757197
  H     -4.445583    1.869960    9.708235
  H     -3.126147    0.407275    8.237409
  H     -1.986144   -1.855146    5.248503
  H      0.249692   -2.644376    5.880898
  H      1.853562   -1.114362    6.985885
  H      1.184389    1.229205    7.431049
  H     -4.260773   -3.480262    2.609054
  H     -6.267830   -5.751968   -1.333517
  H     -7.831371   -1.269973   -3.138024
  H     -5.827130    1.046953    0.779291
  H     -3.120371   -5.484865    4.208876
  H     -2.352877   -7.643766    5.117891
  H     -2.772936   -9.756884    3.973162
  H     -3.865891  -10.966265    1.833973
  H     -5.091419  -10.680026   -0.255651
  H     -5.801568   -8.462134   -1.062333
  H     -7.074835    5.988005   -0.455884
  H     -6.329008    3.808047    0.421385
  H     -8.315114    6.192970   -2.545552
  H     -8.980478    0.622666   -4.738432
  H     -9.788637    2.739279   -5.721036
  H     -9.400010    4.892916   -4.646704
  H    -10.232299   -5.209925   -3.618447
  H     -6.608645   -4.778297   -5.842526
  H    -10.436397   -4.405053   -1.437681
  H     -9.467604   -2.987567   -1.053391
  H     -8.963086   -4.573468   -0.491348
  H     -4.739468   -3.707066   -4.942965
  H     -4.528283   -3.969592   -3.216005
  H     -5.093339   -2.413981   -3.803802
  H     -9.099322   -3.178110   -6.733787
  H    -11.380542   -6.309805   -7.169348
  H    -12.731098   -8.329107   -6.819613
  H    -12.024155  -10.042029   -5.177044
  H     -9.927846   -9.708092   -3.900816
  H     -8.551991   -7.706414   -4.275249
  H     -8.612030   -7.205507   -8.101905
  H     -8.273522   -6.386707  -10.390318
  H     -8.319720   -3.956573  -10.871268
  H     -8.723304   -2.361201   -9.021245

 Total Charge           Charge          ....    0
 Multiplicity           Mult            ....    1
 Number of Electrons    NEL             ....  508
 Basis Dimension        Dim             .... 1244

ORBITAL ENERGIES
----------------

  NO   OCC          E(Eh)            E(eV)
   0   2.0000     -14.667564      -399.1247
   1   2.0000     -14.666953      -399.1081
   2   2.0000     -10.488761      -285.4137
   3   2.0000     -10.488658      -285.4109
   4   2.0000     -10.488368      -285.4030
   5   2.0000     -10.488142      -285.3969
   6   2.0000     -10.482731      -285.2496
   7   2.0000     -10.481986      -285.2293
   8   2.0000     -10.465734      -284.7871
   9   2.0000     -10.465578      -284.7829
  10   2.0000     -10.465541      -284.7819
  11   2.0000     -10.465452      -284.7794
  12   2.0000     -10.465366      -284.7771
  13   2.0000     -10.465228      -284.7733
  14   2.0000     -10.464168      -284.7445
  15   2.0000     -10.463613      -284.7294
  16   2.0000     -10.463146      -284.7167
  17   2.0000     -10.463009      -284.7130
  18   2.0000     -10.462945      -284.7112
  19   2.0000     -10.462753      -284.7060
  20   2.0000     -10.462447      -284.6977
  21   2.0000     -10.462356      -284.6952
  22   2.0000     -10.462080      -284.6877
  23   2.0000     -10.461905      -284.6829
  24   2.0000     -10.461064      -284.6600
  25   2.0000     -10.460625      -284.6481
  26   2.0000     -10.460571      -284.6466
  27   2.0000     -10.460467      -284.6438
  28   2.0000     -10.460381      -284.6414
  29   2.0000     -10.460365      -284.6410
  30   2.0000     -10.455107      -284.4979
  31   2.0000     -10.453797      -284.4623
  32   2.0000     -10.453067      -284.4424
  33   2.0000     -10.452757      -284.4340
  34   2.0000     -10.452064      -284.4151
  35   2.0000     -10.451881      -284.4101
  36   2.0000     -10.451804      -284.4080
  37   2.0000     -10.451660      -284.4041
  38   2.0000     -10.447170      -284.2819
  39   2.0000     -10.447161      -284.2817
  40   2.0000     -10.447140      -284.2811
  41   2.0000     -10.447011      -284.2776
  42   2.0000     -10.446947      -284.2759
  43   2.0000     -10.446906      -284.2748
  44   2.0000     -10.446727      -284.2699
  45   2.0000     -10.446693      -284.2690
  46   2.0000     -10.445890      -284.2471
  47   2.0000     -10.445694      -284.2418
  48   2.0000     -10.443569      -284.1839
  49   2.0000     -10.443554      -284.1835
  50   2.0000     -10.443474      -284.1814
  51   2.0000     -10.443242      -284.1751
  52   2.0000     -10.443067      -284.1703
  53   2.0000     -10.442939      -284.1668
  54   2.0000     -10.442313      -284.1498
  55   2.0000     -10.441777      -284.1352
  56   2.0000     -10.441662      -284.1321
  57   2.0000     -10.441651      -284.1318
  58   2.0000     -10.441559      -284.1293
  59   2.0000     -10.439828      -284.0822
  60   2.0000     -10.434233      -283.9299
  61   2.0000     -10.434063      -283.9253
  62   2.0000     -10.433983      -283.9231
  63   2.0000     -10.433877      -283.9202
  64   2.0000     -10.433745      -283.9166
  65   2.0000     -10.433714      -283.9158
  66   2.0000     -10.432996      -283.8963
  67   2.0000     -10.432515      -283.8832
  68   2.0000     -10.426964      -283.7321
  69   2.0000     -10.426934      -283.7313
  70   2.0000     -10.426911      -283.7307
  71   2.0000     -10.426739      -283.7260
  72   2.0000     -10.418950      -283.5140
  73   2.0000     -10.418375      -283.4984
  74   2.0000      -6.948832      -189.0873
  75   2.0000      -6.947614      -189.0542
  76   2.0000      -1.077699       -29.3257
  77   2.0000      -1.077575       -29.3223
  78   2.0000      -1.016549       -27.6617
  79   2.0000      -1.016108       -27.6497
  80   2.0000      -0.963542       -26.2193
  81   2.0000      -0.959687       -26.1144
  82   2.0000      -0.959035       -26.0967
  83   2.0000      -0.958608       -26.0850
  84   2.0000      -0.958417       -26.0799
  85   2.0000      -0.957547       -26.0562
  86   2.0000      -0.937977       -25.5236
  87   2.0000      -0.937616       -25.5138
  88   2.0000      -0.934138       -25.4192
  89   2.0000      -0.933839       -25.4110
  90   2.0000      -0.909096       -24.7378
  91   2.0000      -0.900971       -24.5167
  92   2.0000      -0.871714       -23.7206
  93   2.0000      -0.871428       -23.7128
  94   2.0000      -0.862334       -23.4653
  95   2.0000      -0.857526       -23.3345
  96   2.0000      -0.854406       -23.2496
  97   2.0000      -0.851841       -23.1798
  98   2.0000      -0.848755       -23.0958
  99   2.0000      -0.848608       -23.0918
 100   2.0000      -0.847799       -23.0698
 101   2.0000      -0.847326       -23.0569
 102   2.0000      -0.836664       -22.7668
 103   2.0000      -0.836531       -22.7632
 104   2.0000      -0.835699       -22.7405
 105   2.0000      -0.834951       -22.7202
 106   2.0000      -0.821871       -22.3643
 107   2.0000      -0.814599       -22.1664
 108   2.0000      -0.812848       -22.1187
 109   2.0000      -0.804886       -21.9021
 110   2.0000      -0.798607       -21.7312
 111   2.0000      -0.798210       -21.7204
 112   2.0000      -0.767656       -20.8890
 113   2.0000      -0.766897       -20.8683
 114   2.0000      -0.762793       -20.7567
 115   2.0000      -0.762472       -20.7479
 116   2.0000      -0.735331       -20.0094
 117   2.0000      -0.730269       -19.8716
 118   2.0000      -0.727449       -19.7949
 119   2.0000      -0.720941       -19.6178
 120   2.0000      -0.707632       -19.2556
 121   2.0000      -0.706387       -19.2218
 122   2.0000      -0.701615       -19.0919
 123   2.0000      -0.701570       -19.0907
 124   2.0000      -0.689652       -18.7664
 125   2.0000      -0.681478       -18.5440
 126   2.0000      -0.680290       -18.5116
 127   2.0000      -0.680038       -18.5048
 128   2.0000      -0.679769       -18.4975
 129   2.0000      -0.673998       -18.3404
 130   2.0000      -0.667169       -18.1546
 131   2.0000      -0.665739       -18.1157
 132   2.0000      -0.649860       -17.6836
 133   2.0000      -0.648094       -17.6355
 134   2.0000      -0.643156       -17.5012
 135   2.0000      -0.643101       -17.4997
 136   2.0000      -0.638249       -17.3676
 137   2.0000      -0.636691       -17.3252
 138   2.0000      -0.604891       -16.4599
 139   2.0000      -0.604679       -16.4541
 140   2.0000      -0.596040       -16.2191
 141   2.0000      -0.594427       -16.1752
 142   2.0000      -0.593382       -16.1468
 143   2.0000      -0.589712       -16.0469
 144   2.0000      -0.586070       -15.9478
 145   2.0000      -0.585575       -15.9343
 146   2.0000      -0.584579       -15.9072
 147   2.0000      -0.576068       -15.6756
 148   2.0000      -0.575033       -15.6474
 149   2.0000      -0.561215       -15.2714
 150   2.0000      -0.560436       -15.2502
 151   2.0000      -0.550441       -14.9783
 152   2.0000      -0.550033       -14.9672
 153   2.0000      -0.544115       -14.8061
 154   2.0000      -0.543551       -14.7908
 155   2.0000      -0.539859       -14.6903
 156   2.0000      -0.539583       -14.6828
 157   2.0000      -0.537006       -14.6127
 158   2.0000      -0.528953       -14.3935
 159   2.0000      -0.525111       -14.2890
 160   2.0000      -0.520198       -14.1553
 161   2.0000      -0.519699       -14.1417
 162   2.0000      -0.515982       -14.0406
 163   2.0000      -0.509566       -13.8660
 164   2.0000      -0.508317       -13.8320
 165   2.0000      -0.508239       -13.8299
 166   2.0000      -0.503180       -13.6922
 167   2.0000      -0.498441       -13.5633
 168   2.0000      -0.497697       -13.5430
 169   2.0000      -0.496588       -13.5129
 170   2.0000      -0.495833       -13.4923
 171   2.0000      -0.494227       -13.4486
 172   2.0000      -0.493720       -13.4348
 173   2.0000      -0.490168       -13.3381
 174   2.0000      -0.485695       -13.2164
 175   2.0000      -0.484511       -13.1842
 176   2.0000      -0.484123       -13.1737
 177   2.0000      -0.482656       -13.1337
 178   2.0000      -0.482430       -13.1276
 179   2.0000      -0.482345       -13.1253
 180   2.0000      -0.480573       -13.0771
 181   2.0000      -0.480373       -13.0716
 182   2.0000      -0.479967       -13.0606
 183   2.0000      -0.476269       -12.9599
 184   2.0000      -0.472608       -12.8603
 185   2.0000      -0.470981       -12.8160
 186   2.0000      -0.469820       -12.7845
 187   2.0000      -0.468735       -12.7549
 188   2.0000      -0.465519       -12.6674
 189   2.0000      -0.464934       -12.6515
 190   2.0000      -0.462354       -12.5813
 191   2.0000      -0.458610       -12.4794
 192   2.0000      -0.458269       -12.4701
 193   2.0000      -0.454741       -12.3741
 194   2.0000      -0.445154       -12.1132
 195   2.0000      -0.441895       -12.0246
 196   2.0000      -0.439724       -11.9655
 197   2.0000      -0.439351       -11.9553
 198   2.0000      -0.439306       -11.9541
 199   2.0000      -0.436674       -11.8825
 200   2.0000      -0.431356       -11.7378
 201   2.0000      -0.426032       -11.5929
 202   2.0000      -0.424808       -11.5596
 203   2.0000      -0.424170       -11.5423
 204   2.0000      -0.423370       -11.5205
 205   2.0000      -0.423088       -11.5128
 206   2.0000      -0.421293       -11.4640
 207   2.0000      -0.421021       -11.4566
 208   2.0000      -0.418309       -11.3828
 209   2.0000      -0.411341       -11.1931
 210   2.0000      -0.410695       -11.1756
 211   2.0000      -0.410336       -11.1658
 212   2.0000      -0.405006       -11.0208
 213   2.0000      -0.404230       -10.9997
 214   2.0000      -0.400143       -10.8884
 215   2.0000      -0.399451       -10.8696
 216   2.0000      -0.398658       -10.8480
 217   2.0000      -0.396376       -10.7859
 218   2.0000      -0.395685       -10.7671
 219   2.0000      -0.395355       -10.7581
 220   2.0000      -0.395097       -10.7511
 221   2.0000      -0.394468       -10.7340
 222   2.0000      -0.391637       -10.6570
 223   2.0000      -0.390542       -10.6272
 224   2.0000      -0.385163       -10.4808
 225   2.0000      -0.384361       -10.4590
 226   2.0000      -0.379542       -10.3279
 227   2.0000      -0.368376       -10.0240
 228   2.0000      -0.357977        -9.7410
 229   2.0000      -0.356085        -9.6896
 230   2.0000      -0.351842        -9.5741
 231   2.0000      -0.351747        -9.5715
 232   2.0000      -0.343096        -9.3361
 233   2.0000      -0.340710        -9.2712
 234   2.0000      -0.319200        -8.6859
 235   2.0000      -0.313422        -8.5287
 236   2.0000      -0.301966        -8.2169
 237   2.0000      -0.301127        -8.1941
 238   2.0000      -0.297561        -8.0971
 239   2.0000      -0.297406        -8.0928
 240   2.0000      -0.295926        -8.0526
 241   2.0000      -0.295071        -8.0293
 242   2.0000      -0.293494        -7.9864
 243   2.0000      -0.292386        -7.9562
 244   2.0000      -0.283851        -7.7240
 245   2.0000      -0.281559        -7.6616
 246   2.0000      -0.280487        -7.6324
 247   2.0000      -0.273811        -7.4508
 248   2.0000      -0.273548        -7.4436
 249   2.0000      -0.262507        -7.1432
 250   2.0000      -0.256695        -6.9850
 251   2.0000      -0.256022        -6.9667
 252   2.0000      -0.218772        -5.9531
 253   2.0000      -0.218184        -5.9371
 254   0.0000      -0.091531        -2.4907
 255   0.0000      -0.058976        -1.6048
 256   0.0000      -0.036008        -0.9798
 257   0.0000      -0.029432        -0.8009
 258   0.0000      -0.004534        -0.1234

MULLIKEN ATOMIC CHARGES
-----------------------
   0 C :   -0.358720
   1 C :    0.059989
   2 C :   -0.220841
   3 C :    0.058972
   4 C :   -0.355043
   5 C :    0.296345
   6 N :   -0.671765
   7 C :   -0.761197
   8 C :   -0.761673
   9 C :    0.302771
  10 C :   -0.279690
  11 C :   -0.267959
  12 C :    0.283617
  13 C :   -0.213486
  14 C :   -0.235904
  15 C :   -0.214715
  16 C :   -0.275679
  17 C :   -0.282028
  18 C :   -0.211378
  19 C :   -0.238874
  20 C :   -0.213079
  21 C :   -0.153895
  22 C :   -0.154968
  23 B :    0.708372
  24 C :   -0.153484
  25 C :   -0.155598
  26 B :    0.706838
  27 C :   -0.388661
  28 C :    0.107956
  29 C :    0.091168
  30 C :   -0.385673
  31 C :   -0.383682
  32 C :    0.089744
  33 C :    0.112029
  34 C :   -0.395495
  35 C :   -0.382226
  36 C :   -0.202649
  37 C :   -0.335264
  38 C :    0.251661
  39 C :   -0.062823
  40 C :    0.197552
  41 C :   -0.333245
  42 C :   -0.203587
  43 C :   -0.378269
  44 C :    0.198127
  45 C :   -0.202027
  46 C :   -0.384208
  47 C :    0.196277
  48 C :   -0.062050
  49 C :    0.253273
  50 C :   -0.337114
  51 C :    0.195651
  52 C :   -0.375312
  53 C :   -0.204778
  54 C :   -0.332553
  55 C :   -0.361167
  56 C :    0.060658
  57 C :   -0.225964
  58 C :    0.061224
  59 C :   -0.360723
  60 C :    0.306519
  61 N :   -0.675319
  62 C :   -0.761132
  63 C :   -0.759505
  64 C :    0.292900
  65 C :   -0.272193
  66 C :   -0.276279
  67 C :    0.290886
  68 C :   -0.213302
  69 C :   -0.236800
  70 C :   -0.212812
  71 C :   -0.272709
  72 C :   -0.278550
  73 C :   -0.213166
  74 C :   -0.236960
  75 C :   -0.212523
  76 H :    0.233838
  77 H :    0.233422
  78 H :    0.244932
  79 H :    0.244121
  80 H :    0.239594
  81 H :    0.245075
  82 H :    0.239438
  83 H :    0.244539
  84 H :    0.244406
  85 H :    0.239385
  86 H :    0.218222
  87 H :    0.217433
  88 H :    0.219881
  89 H :    0.244426
  90 H :    0.240255
  91 H :    0.216296
  92 H :    0.216065
  93 H :    0.218968
  94 H :    0.232570
  95 H :    0.231809
  96 H :    0.232224
  97 H :    0.229639
  98 H :    0.216354
  99 H :    0.225932
 100 H :    0.220591
 101 H :    0.220600
 102 H :    0.225836
 103 H :    0.216567
 104 H :    0.225853
 105 H :    0.217812
 106 H :    0.220815
 107 H :    0.216992
 108 H :    0.225918
 109 H :    0.220322
 110 H :    0.233693
 111 H :    0.233335
 112 H :    0.239489
 113 H :    0.244876
 114 H :    0.244720
 115 H :    0.239071
 116 H :    0.243346
 117 H :    0.244325
 118 H :    0.237891
 119 H :    0.244468
 120 H :    0.219631
 121 H :    0.216939
 122 H :    0.217107
 123 H :    0.238532
 124 H :    0.245054
 125 H :    0.219692
 126 H :    0.216860
 127 H :    0.217006
Sum of atomic charges:   -0.0000000

LOEWDIN ATOMIC CHARGES
----------------------
   0 C :   -0.155585
   1 C :   -0.032432
   2 C :   -0.118061
   3 C :   -0.032572
   4 C :   -0.154573
   5 C :    0.021174
   6 N :   -0.079341
   7 C :   -0.344538
   8 C :   -0.344480
   9 C :    0.026920
  10 C :   -0.149946
  11 C :   -0.143156
  12 C :    0.022419
  13 C :   -0.129284
  14 C :   -0.150961
  15 C :   -0.128765
  16 C :   -0.147728
  17 C :   -0.151930
  18 C :   -0.128302
  19 C :   -0.155154
  20 C :   -0.127725
  21 C :   -0.086174
  22 C :   -0.087807
  23 B :    0.086905
  24 C :   -0.085908
  25 C :   -0.086666
  26 B :    0.085723
  27 C :   -0.083636
  28 C :   -0.014354
  29 C :   -0.014526
  30 C :   -0.083590
  31 C :   -0.083704
  32 C :   -0.014111
  33 C :   -0.014711
  34 C :   -0.083495
  35 C :   -0.106608
  36 C :   -0.130632
  37 C :   -0.110850
  38 C :   -0.036709
  39 C :   -0.019679
  40 C :   -0.022668
  41 C :   -0.111267
  42 C :   -0.130570
  43 C :   -0.106856
  44 C :   -0.022694
  45 C :   -0.130575
  46 C :   -0.106423
  47 C :   -0.022598
  48 C :   -0.019699
  49 C :   -0.036830
  50 C :   -0.110791
  51 C :   -0.022970
  52 C :   -0.106529
  53 C :   -0.130157
  54 C :   -0.111123
  55 C :   -0.155967
  56 C :   -0.031811
  57 C :   -0.119172
  58 C :   -0.032482
  59 C :   -0.157092
  60 C :    0.022559
  61 N :   -0.079090
  62 C :   -0.344461
  63 C :   -0.344406
  64 C :    0.024266
  65 C :   -0.147081
  66 C :   -0.147302
  67 C :    0.024089
  68 C :   -0.128482
  69 C :   -0.152372
  70 C :   -0.129024
  71 C :   -0.147331
  72 C :   -0.147822
  73 C :   -0.128490
  74 C :   -0.152484
  75 C :   -0.129054
  76 H :    0.144933
  77 H :    0.144211
  78 H :    0.145768
  79 H :    0.145396
  80 H :    0.134784
  81 H :    0.146131
  82 H :    0.134588
  83 H :    0.145440
  84 H :    0.147251
  85 H :    0.146348
  86 H :    0.136090
  87 H :    0.135280
  88 H :    0.136662
  89 H :    0.147797
  90 H :    0.145882
  91 H :    0.135239
  92 H :    0.134723
  93 H :    0.136316
  94 H :    0.150102
  95 H :    0.150115
  96 H :    0.150292
  97 H :    0.149311
  98 H :    0.141498
  99 H :    0.139560
 100 H :    0.140027
 101 H :    0.140091
 102 H :    0.139491
 103 H :    0.141648
 104 H :    0.139565
 105 H :    0.142025
 106 H :    0.140055
 107 H :    0.141974
 108 H :    0.139501
 109 H :    0.140010
 110 H :    0.144339
 111 H :    0.144312
 112 H :    0.134741
 113 H :    0.145586
 114 H :    0.145778
 115 H :    0.134630
 116 H :    0.144949
 117 H :    0.145438
 118 H :    0.145566
 119 H :    0.147651
 120 H :    0.136576
 121 H :    0.135072
 122 H :    0.135655
 123 H :    0.145791
 124 H :    0.147789
 125 H :    0.136615
 126 H :    0.135110
 127 H :    0.135606

  Mayer bond orders larger than 0.1
B(  0-C ,  1-C ) :   1.4301 B(  0-C ,  5-C ) :   1.3853 B(  0-C , 76-H ) :   0.9038
B(  1-C ,  2-C ) :   1.4059 B(  1-C ,  7-C ) :   0.9768 B(  2-C ,  3-C ) :   1.3996
B(  2-C , 23-B ) :   0.8176 B(  3-C ,  4-C ) :   1.4364 B(  3-C ,  8-C ) :   0.9770
B(  4-C ,  5-C ) :   1.3829 B(  4-C , 77-H ) :   0.9051 B(  5-C ,  6-N ) :   0.9257
B(  6-N ,  9-C ) :   0.9621 B(  6-N , 12-C ) :   0.9546 B(  7-C , 78-H ) :   0.9034
B(  7-C , 79-H ) :   0.9061 B(  7-C , 80-H ) :   0.9261 B(  8-C , 81-H ) :   0.9036
B(  8-C , 82-H ) :   0.9263 B(  8-C , 83-H ) :   0.9053 B(  9-C , 10-C ) :   1.3703
B(  9-C , 17-C ) :   1.3722 B( 10-C , 20-C ) :   1.4380 B( 10-C , 84-H ) :   0.9055
B( 11-C , 12-C ) :   1.3801 B( 11-C , 13-C ) :   1.4341 B( 11-C , 85-H ) :   0.9079
B( 12-C , 16-C ) :   1.3777 B( 13-C , 14-C ) :   1.4189 B( 13-C , 86-H ) :   0.9206
B( 14-C , 15-C ) :   1.4240 B( 14-C , 87-H ) :   0.9200 B( 15-C , 16-C ) :   1.4283
B( 15-C , 88-H ) :   0.9201 B( 16-C , 89-H ) :   0.9060 B( 17-C , 18-C ) :   1.4342
B( 17-C , 90-H ) :   0.9057 B( 18-C , 19-C ) :   1.4225 B( 18-C , 91-H ) :   0.9213
B( 19-C , 20-C ) :   1.4207 B( 19-C , 92-H ) :   0.9201 B( 20-C , 93-H ) :   0.9202
B( 21-C , 22-C ) :   1.3372 B( 21-C , 26-B ) :   0.9148 B( 21-C , 31-C ) :   1.4093
B( 22-C , 23-B ) :   0.9157 B( 22-C , 34-C ) :   1.4063 B( 23-B , 24-C ) :   0.9143
B( 24-C , 25-C ) :   1.3409 B( 24-C , 27-C ) :   1.4034 B( 25-C , 26-B ) :   0.9146
B( 25-C , 30-C ) :   1.4058 B( 26-B , 57-C ) :   0.8190 B( 27-C , 28-C ) :   1.3298
B( 27-C , 94-H ) :   0.9183 B( 28-C , 29-C ) :   1.3465 B( 28-C , 40-C ) :   0.9667
B( 29-C , 30-C ) :   1.3305 B( 29-C , 44-C ) :   0.9730 B( 30-C , 95-H ) :   0.9188
B( 31-C , 32-C ) :   1.3277 B( 31-C , 96-H ) :   0.9183 B( 32-C , 33-C ) :   1.3483
B( 32-C , 51-C ) :   0.9781 B( 33-C , 34-C ) :   1.3228 B( 33-C , 47-C ) :   0.9642
B( 34-C , 97-H ) :   0.9209 B( 35-C , 36-C ) :   1.3098 B( 35-C , 40-C ) :   1.4012
B( 35-C , 98-H ) :   0.9323 B( 36-C , 37-C ) :   1.5467 B( 36-C , 99-H ) :   0.9185
B( 37-C , 38-C ) :   1.1871 B( 37-C ,100-H ) :   0.9262 B( 38-C , 39-C ) :   1.2309
B( 38-C , 41-C ) :   1.1874 B( 39-C , 40-C ) :   1.2221 B( 39-C , 44-C ) :   1.2242
B( 41-C , 42-C ) :   1.5463 B( 41-C ,101-H ) :   0.9261 B( 42-C , 43-C ) :   1.3101
B( 42-C ,102-H ) :   0.9183 B( 43-C , 44-C ) :   1.4011 B( 43-C ,103-H ) :   0.9321
B( 45-C , 46-C ) :   1.3090 B( 45-C , 50-C ) :   1.5484 B( 45-C ,104-H ) :   0.9185
B( 46-C , 47-C ) :   1.4016 B( 46-C ,105-H ) :   0.9321 B( 47-C , 48-C ) :   1.2205
B( 48-C , 49-C ) :   1.2310 B( 48-C , 51-C ) :   1.2249 B( 49-C , 50-C ) :   1.1851
B( 49-C , 54-C ) :   1.1869 B( 50-C ,106-H ) :   0.9261 B( 51-C , 52-C ) :   1.4029
B( 52-C , 53-C ) :   1.3099 B( 52-C ,107-H ) :   0.9317 B( 53-C , 54-C ) :   1.5461
B( 53-C ,108-H ) :   0.9184 B( 54-C ,109-H ) :   0.9264 B( 55-C , 56-C ) :   1.4378
B( 55-C , 60-C ) :   1.3814 B( 55-C ,110-H ) :   0.9039 B( 56-C , 57-C ) :   1.3998
B( 56-C , 62-C ) :   0.9764 B( 57-C , 58-C ) :   1.4009 B( 58-C , 59-C ) :   1.4329
B( 58-C , 63-C ) :   0.9769 B( 59-C , 60-C ) :   1.3826 B( 59-C ,111-H ) :   0.9042
B( 60-C , 61-N ) :   0.9264 B( 61-N , 64-C ) :   0.9573 B( 61-N , 67-C ) :   0.9567
B( 62-C ,112-H ) :   0.9260 B( 62-C ,113-H ) :   0.9050 B( 62-C ,114-H ) :   0.9041
B( 63-C ,115-H ) :   0.9262 B( 63-C ,116-H ) :   0.9063 B( 63-C ,117-H ) :   0.9047
B( 64-C , 65-C ) :   1.3778 B( 64-C , 72-C ) :   1.3732 B( 65-C , 75-C ) :   1.4323
B( 65-C ,118-H ) :   0.9081 B( 66-C , 67-C ) :   1.3740 B( 66-C , 68-C ) :   1.4343
B( 66-C ,119-H ) :   0.9057 B( 67-C , 71-C ) :   1.3773 B( 68-C , 69-C ) :   1.4205
B( 68-C ,120-H ) :   0.9201 B( 69-C , 70-C ) :   1.4215 B( 69-C ,121-H ) :   0.9201
B( 70-C , 71-C ) :   1.4315 B( 70-C ,122-H ) :   0.9211 B( 71-C ,123-H ) :   0.9076
B( 72-C , 73-C ) :   1.4347 B( 72-C ,124-H ) :   0.9052 B( 73-C , 74-C ) :   1.4209
B( 73-C ,125-H ) :   0.9200 B( 74-C , 75-C ) :   1.4217 B( 74-C ,126-H ) :   0.9200
B( 75-C ,127-H ) :   0.9209

Dispersion correction           -0.121882663
FINAL SINGLE POINT ENERGY     -2927.870885235834

DIPOLE MOMENT
-------------
                                X             Y             Z
Electronic contribution:      0.06419       1.66433      -0.51081
Nuclear contribution   :     -0.16535      -1.68801       0.47562
                        -----------------------------------------
Total Dipole Moment    :     -0.10116      -0.02368      -0.03519
                        -----------------------------------------
Magnitude (a.u.)       :      0.10969
Magnitude (Debye)      :      0.27882

                             ****ORCA TERMINATED NORMALLY****
TOTAL RUN TIME: 0 days 0 hours 28 minutes 41 seconds 14 msec
