                         Program Version 4.0.1 -  RELEASE  -
|  1> %maxcore 1700
|  2> %pal nprocs 4 end
|  3> !PBEh-3c RIJCOSX
|  4>
|  5> *xyzfile 0 1 gsopt.xyz
|  6>
|  7>
|  8>                          ****END OF INPUT****

CARTESIAN COORDINATES (ANGSTROEM)
---------------------------------
  C     -0.182322   -1.640475    1.188227
  C     -1.377453   -1.472427    0.499712
  C     -2.581105   -1.379904    1.205677
  C     -2.570745   -1.460715    2.603327
  C     -1.372127   -1.659251    3.274950
  C     -0.180415   -1.753146    2.570166
  N      1.024130   -2.006924    3.253270
  C     -1.386165   -1.419759   -1.003200
  C     -3.863956   -1.386659    3.366053
  C      1.806736   -3.130405    3.079617
  C      2.851220   -3.113065    4.018926
  C      2.674498   -1.922050    4.807614
  C      1.533692   -1.272840    4.304417
  C      3.358243   -1.368232    5.883128
  C      2.897451   -0.186385    6.432610
  C      1.767304    0.449519    5.911224
  C      1.070562   -0.079106    4.840502
  C      1.639014   -4.186546    2.189530
  C      2.553804   -5.221926    2.242886
  C      3.608183   -5.214689    3.159639
  C      3.758367   -4.167831    4.050019
  C     -5.817275    0.098668   -0.643216
  C     -4.551025    0.068208   -0.009979
  B     -3.950230   -1.292572    0.438743
  C     -4.713067   -2.615863    0.140701
  C     -5.986183   -2.577941   -0.474383
  B     -6.608291   -1.217495   -0.881948
  C     -4.151919   -3.845750    0.494693
  C     -4.842425   -5.017413    0.246787
  C     -6.118893   -4.976710   -0.356693
  C     -6.681673   -3.766066   -0.712343
  C     -6.359425    1.317981   -1.049626
  C     -5.655879    2.489357   -0.840305
  C     -4.390368    2.464935   -0.215026
  C     -3.850581    1.259030    0.201707
  C     -3.448438   -7.082621    1.067782
  C     -3.503543   -8.493688    1.158181
  C     -4.581898   -9.220374    0.711570
  C     -5.691943   -8.559346    0.134775
  C     -5.606839   -7.172966    0.056876
  C     -4.510171   -6.418670    0.511637
  C     -6.879940   -9.143055   -0.367504
  C     -7.869477   -8.347014   -0.894197
  C     -7.754163   -6.938321   -0.959838
  C     -6.613060   -6.349673   -0.479373
  C     -2.654559    5.855382    0.207272
  C     -2.765407    4.449628    0.327948
  C     -3.897798    3.842072   -0.144115
  C     -4.895383    4.646680   -0.726899
  C     -4.819101    6.026859   -0.858398
  C     -3.638566    6.629717   -0.362061
  C     -5.984634    3.872669   -1.164282
  C     -7.048713    4.499333   -1.755346
  C     -7.001681    5.905082   -1.900437
  C     -5.930490    6.654522   -1.472359
  C    -10.433923   -0.971468   -1.302989
  C     -9.170065   -0.987333   -0.726817
  C     -8.040062   -1.186072   -1.529473
  C     -8.199786   -1.388083   -2.905494
  C     -9.472340   -1.393480   -3.462015
  C    -10.586945   -1.179172   -2.665348
  N    -11.875728   -1.197170   -3.234805
  C     -9.018527   -0.797145    0.755650
  C     -7.000745   -1.640999   -3.775859
  C    -12.879180   -2.086238   -2.900208
  C    -13.981044   -1.869208   -3.744000
  C    -13.617045   -0.800805   -4.632463
  C    -12.308681   -0.419098   -4.291644
  C    -14.275183   -0.169395   -5.682033
  C    -13.623184    0.833300   -6.373450
  C    -12.324758    1.208286   -6.018084
  C    -11.650308    0.594410   -4.977395
  C    -12.884853   -3.104759   -1.953735
  C    -14.021193   -3.888726   -1.859227
  C    -15.128750   -3.677390   -2.684541
  C    -15.112621   -2.670675   -3.630606
  H      0.753430   -1.698807    0.644784
  H     -1.366480   -1.770611    4.352727
  H     -1.950699   -2.256470   -1.422361
  H     -0.379561   -1.465913   -1.416747
  H     -1.853827   -0.505287   -1.372983
  H     -4.504463   -2.243915    3.145374
  H     -4.432170   -0.490460    3.108165
  H     -3.699244   -1.371543    4.442758
  H      4.235773   -1.857764    6.286334
  H      3.415452    0.253677    7.273870
  H      1.427868    1.376250    6.354649
  H      0.197632    0.419061    4.439877
  H      0.818522   -4.207536    1.484451
  H      2.446136   -6.056453    1.562009
  H      4.306656   -6.040566    3.175385
  H      4.568262   -4.175982    4.768427
  H     -3.177041   -3.878561    0.967376
  H     -7.662613   -3.735363   -1.174632
  H     -7.332173    1.339528   -1.529713
  H     -2.883921    1.228123    0.692534
  H     -2.576712   -6.559714    1.440116
  H     -2.664657   -9.016495    1.598246
  H     -4.581977  -10.299728    0.803388
  H     -7.012105  -10.217791   -0.336573
  H     -8.771372   -8.809950   -1.273143
  H     -8.564267   -6.358589   -1.384826
  H     -1.759142    6.335201    0.579405
  H     -1.962211    3.885382    0.785194
  H     -3.507096    7.702369   -0.430584
  H     -7.913313    3.950750   -2.108628
  H     -7.840826    6.405304   -2.365747
  H     -5.939820    7.729023   -1.606473
  H    -11.311421   -0.793691   -0.692284
  H     -9.602751   -1.579998   -4.522001
  H     -9.977427   -0.611187    1.238201
  H     -8.364282    0.045266    0.987873
  H     -8.582001   -1.681509    1.225463
  H     -7.261494   -1.637727   -4.833657
  H     -6.548326   -2.609759   -3.552871
  H     -6.227325   -0.885079   -3.626317
  H    -15.281496   -0.462081   -5.955333
  H    -14.117476    1.332931   -7.195816
  H    -11.831892    1.997412   -6.570724
  H    -10.644895    0.894153   -4.714640
  H    -12.030812   -3.291193   -1.316733
  H    -14.048341   -4.688896   -1.131094
  H    -15.999540   -4.311348   -2.583955
  H    -15.964630   -2.514530   -4.280843

 Total Charge           Charge          ....    0
 Multiplicity           Mult            ....    1
 Number of Electrons    NEL             ....  504
 Basis Dimension        Dim             .... 1236

ORBITAL ENERGIES
----------------

  NO   OCC          E(Eh)            E(eV)
   0   2.0000     -14.689034      -399.7089
   1   2.0000     -14.688206      -399.6864
   2   2.0000     -10.493260      -285.5361
   3   2.0000     -10.493252      -285.5359
   4   2.0000     -10.484239      -285.2906
   5   2.0000     -10.484125      -285.2875
   6   2.0000     -10.483962      -285.2831
   7   2.0000     -10.483523      -285.2712
   8   2.0000     -10.469927      -284.9012
   9   2.0000     -10.469792      -284.8975
  10   2.0000     -10.469533      -284.8905
  11   2.0000     -10.469322      -284.8847
  12   2.0000     -10.469215      -284.8818
  13   2.0000     -10.469132      -284.8796
  14   2.0000     -10.468961      -284.8749
  15   2.0000     -10.468539      -284.8634
  16   2.0000     -10.468368      -284.8588
  17   2.0000     -10.468178      -284.8536
  18   2.0000     -10.467054      -284.8230
  19   2.0000     -10.466911      -284.8191
  20   2.0000     -10.466288      -284.8022
  21   2.0000     -10.466188      -284.7995
  22   2.0000     -10.466082      -284.7966
  23   2.0000     -10.465253      -284.7740
  24   2.0000     -10.465216      -284.7730
  25   2.0000     -10.464559      -284.7551
  26   2.0000     -10.464232      -284.7462
  27   2.0000     -10.464080      -284.7421
  28   2.0000     -10.463603      -284.7291
  29   2.0000     -10.463536      -284.7273
  30   2.0000     -10.463464      -284.7253
  31   2.0000     -10.463457      -284.7251
  32   2.0000     -10.463286      -284.7205
  33   2.0000     -10.463258      -284.7197
  34   2.0000     -10.461630      -284.6754
  35   2.0000     -10.459916      -284.6288
  36   2.0000     -10.459900      -284.6284
  37   2.0000     -10.459741      -284.6240
  38   2.0000     -10.450969      -284.3853
  39   2.0000     -10.450658      -284.3769
  40   2.0000     -10.448541      -284.3192
  41   2.0000     -10.448436      -284.3164
  42   2.0000     -10.448360      -284.3143
  43   2.0000     -10.448342      -284.3138
  44   2.0000     -10.446909      -284.2748
  45   2.0000     -10.446615      -284.2669
  46   2.0000     -10.446544      -284.2649
  47   2.0000     -10.446440      -284.2621
  48   2.0000     -10.446188      -284.2552
  49   2.0000     -10.445785      -284.2443
  50   2.0000     -10.445652      -284.2406
  51   2.0000     -10.445478      -284.2359
  52   2.0000     -10.445474      -284.2358
  53   2.0000     -10.445403      -284.2339
  54   2.0000     -10.445054      -284.2244
  55   2.0000     -10.445053      -284.2243
  56   2.0000     -10.444893      -284.2200
  57   2.0000     -10.444855      -284.2189
  58   2.0000     -10.444712      -284.2151
  59   2.0000     -10.444422      -284.2072
  60   2.0000     -10.441261      -284.1211
  61   2.0000     -10.440634      -284.1041
  62   2.0000     -10.440513      -284.1008
  63   2.0000     -10.439627      -284.0767
  64   2.0000     -10.437975      -284.0317
  65   2.0000     -10.437932      -284.0306
  66   2.0000     -10.437830      -284.0278
  67   2.0000     -10.437719      -284.0248
  68   2.0000     -10.436274      -283.9854
  69   2.0000     -10.435993      -283.9778
  70   2.0000     -10.435780      -283.9720
  71   2.0000     -10.435592      -283.9669
  72   2.0000     -10.432910      -283.8939
  73   2.0000     -10.432401      -283.8801
  74   2.0000      -6.956814      -189.3045
  75   2.0000      -6.955806      -189.2771
  76   2.0000      -1.108645       -30.1678
  77   2.0000      -1.107800       -30.1448
  78   2.0000      -1.021402       -27.7938
  79   2.0000      -1.020314       -27.7641
  80   2.0000      -0.977904       -26.6101
  81   2.0000      -0.977506       -26.5993
  82   2.0000      -0.967244       -26.3201
  83   2.0000      -0.964728       -26.2516
  84   2.0000      -0.948913       -25.8212
  85   2.0000      -0.948673       -25.8147
  86   2.0000      -0.946332       -25.7510
  87   2.0000      -0.946108       -25.7449
  88   2.0000      -0.938269       -25.5316
  89   2.0000      -0.937245       -25.5037
  90   2.0000      -0.914725       -24.8909
  91   2.0000      -0.906208       -24.6592
  92   2.0000      -0.888249       -24.1705
  93   2.0000      -0.887015       -24.1369
  94   2.0000      -0.882812       -24.0225
  95   2.0000      -0.882551       -24.0154
  96   2.0000      -0.862916       -23.4811
  97   2.0000      -0.860003       -23.4019
  98   2.0000      -0.853978       -23.2379
  99   2.0000      -0.852116       -23.1873
 100   2.0000      -0.851779       -23.1781
 101   2.0000      -0.850615       -23.1464
 102   2.0000      -0.844043       -22.9676
 103   2.0000      -0.844017       -22.9669
 104   2.0000      -0.827629       -22.5209
 105   2.0000      -0.819813       -22.3082
 106   2.0000      -0.817444       -22.2438
 107   2.0000      -0.810129       -22.0447
 108   2.0000      -0.809118       -22.0172
 109   2.0000      -0.808615       -22.0035
 110   2.0000      -0.807853       -21.9828
 111   2.0000      -0.807157       -21.9639
 112   2.0000      -0.778003       -21.1705
 113   2.0000      -0.777403       -21.1542
 114   2.0000      -0.774221       -21.0676
 115   2.0000      -0.774006       -21.0618
 116   2.0000      -0.740574       -20.1520
 117   2.0000      -0.737856       -20.0781
 118   2.0000      -0.731690       -19.9103
 119   2.0000      -0.730842       -19.8872
 120   2.0000      -0.727874       -19.8065
 121   2.0000      -0.725666       -19.7464
 122   2.0000      -0.698598       -19.0098
 123   2.0000      -0.695818       -18.9342
 124   2.0000      -0.693370       -18.8675
 125   2.0000      -0.686385       -18.6775
 126   2.0000      -0.686081       -18.6692
 127   2.0000      -0.684396       -18.6234
 128   2.0000      -0.678619       -18.4662
 129   2.0000      -0.671117       -18.2620
 130   2.0000      -0.656790       -17.8722
 131   2.0000      -0.656735       -17.8707
 132   2.0000      -0.655658       -17.8414
 133   2.0000      -0.653598       -17.7853
 134   2.0000      -0.648570       -17.6485
 135   2.0000      -0.648391       -17.6436
 136   2.0000      -0.644631       -17.5413
 137   2.0000      -0.643095       -17.4995
 138   2.0000      -0.601689       -16.3728
 139   2.0000      -0.601085       -16.3564
 140   2.0000      -0.597063       -16.2469
 141   2.0000      -0.594913       -16.1884
 142   2.0000      -0.594600       -16.1799
 143   2.0000      -0.593935       -16.1618
 144   2.0000      -0.589035       -16.0285
 145   2.0000      -0.586861       -15.9693
 146   2.0000      -0.586767       -15.9667
 147   2.0000      -0.580785       -15.8040
 148   2.0000      -0.579555       -15.7705
 149   2.0000      -0.573344       -15.6015
 150   2.0000      -0.572870       -15.5886
 151   2.0000      -0.558003       -15.1840
 152   2.0000      -0.557560       -15.1720
 153   2.0000      -0.553685       -15.0665
 154   2.0000      -0.548710       -14.9311
 155   2.0000      -0.547401       -14.8955
 156   2.0000      -0.533450       -14.5159
 157   2.0000      -0.531524       -14.4635
 158   2.0000      -0.526123       -14.3165
 159   2.0000      -0.522203       -14.2099
 160   2.0000      -0.518521       -14.1097
 161   2.0000      -0.518310       -14.1039
 162   2.0000      -0.517830       -14.0909
 163   2.0000      -0.514431       -13.9984
 164   2.0000      -0.507841       -13.8191
 165   2.0000      -0.504963       -13.7407
 166   2.0000      -0.502683       -13.6787
 167   2.0000      -0.499912       -13.6033
 168   2.0000      -0.499850       -13.6016
 169   2.0000      -0.499205       -13.5840
 170   2.0000      -0.498719       -13.5708
 171   2.0000      -0.496475       -13.5098
 172   2.0000      -0.494201       -13.4479
 173   2.0000      -0.490770       -13.3545
 174   2.0000      -0.489521       -13.3205
 175   2.0000      -0.488881       -13.3031
 176   2.0000      -0.488153       -13.2833
 177   2.0000      -0.487946       -13.2777
 178   2.0000      -0.485629       -13.2146
 179   2.0000      -0.485492       -13.2109
 180   2.0000      -0.484803       -13.1922
 181   2.0000      -0.484349       -13.1798
 182   2.0000      -0.480366       -13.0714
 183   2.0000      -0.479827       -13.0568
 184   2.0000      -0.477926       -13.0050
 185   2.0000      -0.476332       -12.9617
 186   2.0000      -0.474340       -12.9075
 187   2.0000      -0.474092       -12.9007
 188   2.0000      -0.473864       -12.8945
 189   2.0000      -0.473022       -12.8716
 190   2.0000      -0.469105       -12.7650
 191   2.0000      -0.468898       -12.7594
 192   2.0000      -0.468388       -12.7455
 193   2.0000      -0.460746       -12.5375
 194   2.0000      -0.451165       -12.2768
 195   2.0000      -0.446522       -12.1505
 196   2.0000      -0.446374       -12.1464
 197   2.0000      -0.445665       -12.1271
 198   2.0000      -0.442872       -12.0512
 199   2.0000      -0.435398       -11.8478
 200   2.0000      -0.430555       -11.7160
 201   2.0000      -0.430248       -11.7076
 202   2.0000      -0.428429       -11.6582
 203   2.0000      -0.423872       -11.5342
 204   2.0000      -0.423139       -11.5142
 205   2.0000      -0.423122       -11.5137
 206   2.0000      -0.420648       -11.4464
 207   2.0000      -0.415789       -11.3142
 208   2.0000      -0.411377       -11.1941
 209   2.0000      -0.411092       -11.1864
 210   2.0000      -0.409312       -11.1379
 211   2.0000      -0.408867       -11.1258
 212   2.0000      -0.403433       -10.9780
 213   2.0000      -0.400140       -10.8884
 214   2.0000      -0.399776       -10.8785
 215   2.0000      -0.399359       -10.8671
 216   2.0000      -0.399249       -10.8641
 217   2.0000      -0.398443       -10.8422
 218   2.0000      -0.397959       -10.8290
 219   2.0000      -0.395335       -10.7576
 220   2.0000      -0.393659       -10.7120
 221   2.0000      -0.392935       -10.6923
 222   2.0000      -0.390320       -10.6212
 223   2.0000      -0.389222       -10.5913
 224   2.0000      -0.386405       -10.5146
 225   2.0000      -0.376826       -10.2540
 226   2.0000      -0.374199       -10.1825
 227   2.0000      -0.372769       -10.1435
 228   2.0000      -0.366841        -9.9822
 229   2.0000      -0.356929        -9.7125
 230   2.0000      -0.353905        -9.6302
 231   2.0000      -0.349162        -9.5012
 232   2.0000      -0.326913        -8.8958
 233   2.0000      -0.326622        -8.8878
 234   2.0000      -0.325073        -8.8457
 235   2.0000      -0.318898        -8.6777
 236   2.0000      -0.299823        -8.1586
 237   2.0000      -0.298456        -8.1214
 238   2.0000      -0.296663        -8.0726
 239   2.0000      -0.296562        -8.0699
 240   2.0000      -0.289602        -7.8805
 241   2.0000      -0.286593        -7.7986
 242   2.0000      -0.286497        -7.7960
 243   2.0000      -0.286385        -7.7929
 244   2.0000      -0.285038        -7.7563
 245   2.0000      -0.266999        -7.2654
 246   2.0000      -0.262039        -7.1304
 247   2.0000      -0.260582        -7.0908
 248   2.0000      -0.251275        -6.8375
 249   2.0000      -0.250773        -6.8239
 250   2.0000      -0.236047        -6.4232
 251   2.0000      -0.235509        -6.4085
 252   0.0000      -0.097967        -2.6658
 253   0.0000      -0.063405        -1.7253
 254   0.0000      -0.042445        -1.1550
 255   0.0000      -0.034710        -0.9445
 256   0.0000      -0.009972        -0.2713

MULLIKEN ATOMIC CHARGES
-----------------------
   0 C :   -0.357046
   1 C :    0.051601
   2 C :   -0.213109
   3 C :    0.051254
   4 C :   -0.349629
   5 C :    0.320013
   6 N :   -0.738134
   7 C :   -0.760451
   8 C :   -0.764173
   9 C :    0.334049
  10 C :    0.103790
  11 C :    0.090695
  12 C :    0.342800
  13 C :   -0.343347
  14 C :   -0.227832
  15 C :   -0.235976
  16 C :   -0.281835
  17 C :   -0.280382
  18 C :   -0.235358
  19 C :   -0.226620
  20 C :   -0.346645
  21 C :   -0.155293
  22 C :   -0.153225
  23 B :    0.708288
  24 C :   -0.154625
  25 C :   -0.154420
  26 B :    0.707464
  27 C :   -0.386420
  28 C :    0.101229
  29 C :    0.092669
  30 C :   -0.387168
  31 C :   -0.384525
  32 C :    0.093275
  33 C :    0.106535
  34 C :   -0.393931
  35 C :   -0.382825
  36 C :   -0.204212
  37 C :   -0.333347
  38 C :    0.250971
  39 C :   -0.060975
  40 C :    0.198899
  41 C :   -0.332101
  42 C :   -0.204563
  43 C :   -0.381838
  44 C :    0.198953
  45 C :   -0.203597
  46 C :   -0.383602
  47 C :    0.196166
  48 C :   -0.060707
  49 C :    0.254715
  50 C :   -0.335412
  51 C :    0.195925
  52 C :   -0.377360
  53 C :   -0.205588
  54 C :   -0.332933
  55 C :   -0.359798
  56 C :    0.050260
  57 C :   -0.214205
  58 C :    0.053677
  59 C :   -0.351971
  60 C :    0.326525
  61 N :   -0.742630
  62 C :   -0.761926
  63 C :   -0.759815
  64 C :    0.338413
  65 C :    0.096250
  66 C :    0.087559
  67 C :    0.344423
  68 C :   -0.340806
  69 C :   -0.227931
  70 C :   -0.234341
  71 C :   -0.280992
  72 C :   -0.280669
  73 C :   -0.234283
  74 C :   -0.227780
  75 C :   -0.341041
  76 H :    0.236904
  77 H :    0.238488
  78 H :    0.246005
  79 H :    0.240731
  80 H :    0.248429
  81 H :    0.250612
  82 H :    0.246790
  83 H :    0.242117
  84 H :    0.205186
  85 H :    0.214125
  86 H :    0.216456
  87 H :    0.236992
  88 H :    0.234651
  89 H :    0.215333
  90 H :    0.214338
  91 H :    0.205815
  92 H :    0.232809
  93 H :    0.231328
  94 H :    0.230383
  95 H :    0.228707
  96 H :    0.221544
  97 H :    0.229091
  98 H :    0.221932
  99 H :    0.221789
 100 H :    0.229202
 101 H :    0.221071
 102 H :    0.228764
 103 H :    0.220587
 104 H :    0.221907
 105 H :    0.220676
 106 H :    0.228935
 107 H :    0.221977
 108 H :    0.236506
 109 H :    0.237713
 110 H :    0.241688
 111 H :    0.249932
 112 H :    0.245436
 113 H :    0.240739
 114 H :    0.248669
 115 H :    0.246723
 116 H :    0.205689
 117 H :    0.214237
 118 H :    0.215767
 119 H :    0.234608
 120 H :    0.234413
 121 H :    0.216255
 122 H :    0.214231
 123 H :    0.204719
Sum of atomic charges:   -0.0000000

LOEWDIN ATOMIC CHARGES
----------------------
   0 C :   -0.145696
   1 C :   -0.034358
   2 C :   -0.105327
   3 C :   -0.030837
   4 C :   -0.143743
   5 C :    0.018996
   6 N :   -0.036265
   7 C :   -0.344695
   8 C :   -0.344909
   9 C :    0.048351
  10 C :   -0.057062
  11 C :   -0.057138
  12 C :    0.046675
  13 C :   -0.117329
  14 C :   -0.157699
  15 C :   -0.130062
  16 C :   -0.163788
  17 C :   -0.164856
  18 C :   -0.130876
  19 C :   -0.158152
  20 C :   -0.117465
  21 C :   -0.087590
  22 C :   -0.088831
  23 B :    0.084617
  24 C :   -0.086383
  25 C :   -0.087170
  26 B :    0.083096
  27 C :   -0.084071
  28 C :   -0.012580
  29 C :   -0.013347
  30 C :   -0.083706
  31 C :   -0.083488
  32 C :   -0.012658
  33 C :   -0.013337
  34 C :   -0.083479
  35 C :   -0.104923
  36 C :   -0.129970
  37 C :   -0.108977
  38 C :   -0.036646
  39 C :   -0.019331
  40 C :   -0.024527
  41 C :   -0.109103
  42 C :   -0.130177
  43 C :   -0.105411
  44 C :   -0.024386
  45 C :   -0.129925
  46 C :   -0.104991
  47 C :   -0.024135
  48 C :   -0.019335
  49 C :   -0.036798
  50 C :   -0.108755
  51 C :   -0.024568
  52 C :   -0.104804
  53 C :   -0.129452
  54 C :   -0.109147
  55 C :   -0.145249
  56 C :   -0.031756
  57 C :   -0.105322
  58 C :   -0.033178
  59 C :   -0.144596
  60 C :    0.019345
  61 N :   -0.037411
  62 C :   -0.344654
  63 C :   -0.344281
  64 C :    0.047692
  65 C :   -0.056779
  66 C :   -0.056564
  67 C :    0.047011
  68 C :   -0.117541
  69 C :   -0.157288
  70 C :   -0.130600
  71 C :   -0.163896
  72 C :   -0.164009
  73 C :   -0.130655
  74 C :   -0.157610
  75 C :   -0.117412
  76 H :    0.145665
  77 H :    0.146494
  78 H :    0.146969
  79 H :    0.135578
  80 H :    0.147062
  81 H :    0.148849
  82 H :    0.146824
  83 H :    0.136062
  84 H :    0.136862
  85 H :    0.134390
  86 H :    0.135335
  87 H :    0.145168
  88 H :    0.143889
  89 H :    0.134829
  90 H :    0.134301
  91 H :    0.136733
  92 H :    0.150153
  93 H :    0.149745
  94 H :    0.149681
  95 H :    0.148924
  96 H :    0.143198
  97 H :    0.140842
  98 H :    0.140808
  99 H :    0.140859
 100 H :    0.140774
 101 H :    0.143011
 102 H :    0.140662
 103 H :    0.142924
 104 H :    0.140827
 105 H :    0.143107
 106 H :    0.140742
 107 H :    0.140837
 108 H :    0.145630
 109 H :    0.146153
 110 H :    0.135886
 111 H :    0.148035
 112 H :    0.146637
 113 H :    0.135913
 114 H :    0.147555
 115 H :    0.146614
 116 H :    0.136833
 117 H :    0.134446
 118 H :    0.135135
 119 H :    0.144035
 120 H :    0.144128
 121 H :    0.135078
 122 H :    0.134400
 123 H :    0.136691

  Mayer bond orders larger than 0.1
B(  0-C ,  1-C ) :   1.4155 B(  0-C ,  5-C ) :   1.4035 B(  0-C , 76-H ) :   0.9078
B(  1-C ,  2-C ) :   1.4090 B(  1-C ,  7-C ) :   0.9765 B(  2-C ,  3-C ) :   1.4068
B(  2-C , 23-B ) :   0.8107 B(  3-C ,  4-C ) :   1.4238 B(  3-C ,  8-C ) :   0.9753
B(  4-C ,  5-C ) :   1.3991 B(  4-C , 77-H ) :   0.9060 B(  5-C ,  6-N ) :   0.8815
B(  6-N ,  9-C ) :   1.0461 B(  6-N , 12-C ) :   1.0420 B(  7-C , 78-H ) :   0.9035
B(  7-C , 79-H ) :   0.9256 B(  7-C , 80-H ) :   0.9037 B(  8-C , 81-H ) :   0.9004
B(  8-C , 82-H ) :   0.9051 B(  8-C , 83-H ) :   0.9252 B(  9-C , 10-C ) :   1.2454
B(  9-C , 17-C ) :   1.3136 B( 10-C , 11-C ) :   1.1173 B( 10-C , 20-C ) :   1.3251
B( 11-C , 12-C ) :   1.2419 B( 11-C , 13-C ) :   1.3283 B( 12-C , 16-C ) :   1.3150
B( 13-C , 14-C ) :   1.4714 B( 13-C , 84-H ) :   0.9352 B( 14-C , 15-C ) :   1.3852
B( 14-C , 85-H ) :   0.9208 B( 15-C , 16-C ) :   1.4664 B( 15-C , 86-H ) :   0.9204
B( 16-C , 87-H ) :   0.9087 B( 17-C , 18-C ) :   1.4679 B( 17-C , 88-H ) :   0.9084
B( 18-C , 19-C ) :   1.3839 B( 18-C , 89-H ) :   0.9207 B( 19-C , 20-C ) :   1.4740
B( 19-C , 90-H ) :   0.9206 B( 20-C , 91-H ) :   0.9345 B( 21-C , 22-C ) :   1.3388
B( 21-C , 26-B ) :   0.9184 B( 21-C , 31-C ) :   1.4062 B( 22-C , 23-B ) :   0.9210
B( 22-C , 34-C ) :   1.4045 B( 23-B , 24-C ) :   0.9165 B( 24-C , 25-C ) :   1.3442
B( 24-C , 27-C ) :   1.3995 B( 25-C , 26-B ) :   0.9184 B( 25-C , 30-C ) :   1.4006
B( 26-B , 57-C ) :   0.8112 B( 27-C , 28-C ) :   1.3342 B( 27-C , 92-H ) :   0.9183
B( 28-C , 29-C ) :   1.3458 B( 28-C , 40-C ) :   0.9689 B( 29-C , 30-C ) :   1.3347
B( 29-C , 44-C ) :   0.9704 B( 30-C , 93-H ) :   0.9190 B( 31-C , 32-C ) :   1.3281
B( 31-C , 94-H ) :   0.9196 B( 32-C , 33-C ) :   1.3483 B( 32-C , 51-C ) :   0.9771
B( 33-C , 34-C ) :   1.3248 B( 33-C , 47-C ) :   0.9670 B( 34-C , 95-H ) :   0.9212
B( 35-C , 36-C ) :   1.3127 B( 35-C , 40-C ) :   1.3977 B( 35-C , 96-H ) :   0.9306
B( 36-C , 37-C ) :   1.5449 B( 36-C , 97-H ) :   0.9173 B( 37-C , 38-C ) :   1.1872
B( 37-C , 98-H ) :   0.9261 B( 38-C , 39-C ) :   1.2303 B( 38-C , 41-C ) :   1.1866
B( 39-C , 40-C ) :   1.2232 B( 39-C , 44-C ) :   1.2241 B( 41-C , 42-C ) :   1.5452
B( 41-C , 99-H ) :   0.9261 B( 42-C , 43-C ) :   1.3128 B( 42-C ,100-H ) :   0.9171
B( 43-C , 44-C ) :   1.3976 B( 43-C ,101-H ) :   0.9309 B( 45-C , 46-C ) :   1.3111
B( 45-C , 50-C ) :   1.5474 B( 45-C ,102-H ) :   0.9174 B( 46-C , 47-C ) :   1.3998
B( 46-C ,103-H ) :   0.9312 B( 47-C , 48-C ) :   1.2213 B( 48-C , 49-C ) :   1.2306
B( 48-C , 51-C ) :   1.2247 B( 49-C , 50-C ) :   1.1836 B( 49-C , 54-C ) :   1.1855
B( 50-C ,104-H ) :   0.9262 B( 51-C , 52-C ) :   1.4001 B( 52-C , 53-C ) :   1.3118
B( 52-C ,105-H ) :   0.9308 B( 53-C , 54-C ) :   1.5458 B( 53-C ,106-H ) :   0.9173
B( 54-C ,107-H ) :   0.9261 B( 55-C , 56-C ) :   1.4212 B( 55-C , 60-C ) :   1.4021
B( 55-C ,108-H ) :   0.9075 B( 56-C , 57-C ) :   1.4069 B( 56-C , 62-C ) :   0.9761
B( 57-C , 58-C ) :   1.4071 B( 58-C , 59-C ) :   1.4168 B( 58-C , 63-C ) :   0.9765
B( 59-C , 60-C ) :   1.4020 B( 59-C ,109-H ) :   0.9069 B( 60-C , 61-N ) :   0.8794
B( 61-N , 64-C ) :   1.0432 B( 61-N , 67-C ) :   1.0406 B( 62-C ,110-H ) :   0.9253
B( 62-C ,111-H ) :   0.9021 B( 62-C ,112-H ) :   0.9045 B( 63-C ,113-H ) :   0.9251
B( 63-C ,114-H ) :   0.9020 B( 63-C ,115-H ) :   0.9047 B( 64-C , 65-C ) :   1.2466
B( 64-C , 72-C ) :   1.3135 B( 65-C , 66-C ) :   1.1234 B( 65-C , 75-C ) :   1.3278
B( 66-C , 67-C ) :   1.2447 B( 66-C , 68-C ) :   1.3300 B( 67-C , 71-C ) :   1.3150
B( 68-C , 69-C ) :   1.4717 B( 68-C ,116-H ) :   0.9344 B( 69-C , 70-C ) :   1.3843
B( 69-C ,117-H ) :   0.9208 B( 70-C , 71-C ) :   1.4667 B( 70-C ,118-H ) :   0.9206
B( 71-C ,119-H ) :   0.9095 B( 72-C , 73-C ) :   1.4676 B( 72-C ,120-H ) :   0.9091
B( 73-C , 74-C ) :   1.3845 B( 73-C ,121-H ) :   0.9203 B( 74-C , 75-C ) :   1.4721
B( 74-C ,122-H ) :   0.9207 B( 75-C ,123-H ) :   0.9348

Dispersion correction           -0.118472063
FINAL SINGLE POINT ENERGY     -2925.533515285246

DIPOLE MOMENT
-------------
                                X             Y             Z
Electronic contribution:      0.74147       1.83045      -0.60648
Nuclear contribution   :     -0.71513      -1.74746       0.50205
                        -----------------------------------------
Total Dipole Moment    :      0.02633       0.08300      -0.10443
                        -----------------------------------------
Magnitude (a.u.)       :      0.13597
Magnitude (Debye)      :      0.34561

                             ****ORCA TERMINATED NORMALLY****
TOTAL RUN TIME: 0 days 0 hours 27 minutes 56 seconds 397 msec
