 Q-Chem 5.0, Q-Chem, Inc., Pleasanton, CA (2017)
 Q-Chem 5.0.1 for Intel X86 EM64T Linux

User input:
--------------------------------------------------------------
$solvent
dielectric      8.93
dielectric_infi 2.03
$end

$rem
threads 8
jobtype	sp
method PBEh-3c
basis def2-mSVP
mem_static	1024
mem_total	14000
sym_ignore	true
cis_n_roots             2
cis_singlets            true
cis_triplets		false
rpa                     false
calc_soc 		true
cis_moments             true
cis_relaxed_density	true
solvent_method		pcm
$end

$pcm
StateSpecific   1
ChargeSeparation Excited
$end

$molecule
read moms1opt_dcm.mol
$end

--------------------------------------------------------------

   14   -3006.3618555373      6.47E-09 Convergence criterion met
 Total energy in the final basis set = -3006.36185554
 Q-Chem 5.0, Q-Chem, Inc., Pleasanton, CA (2017)
 Q-Chem 5.0.1 for Intel X86 EM64T Linux

User input:
--------------------------------------------------------------
$rem
threads 8
jobtype sp
method PBEh-3c
basis def2-mSVP
mem_static      1024
mem_total       14000
sym_ignore      true
cis_n_roots             6
cis_singlets            true
cis_triplets            true
rpa                     false
calc_soc                true
cis_moments             true
cis_relaxed_density     true
solvent_method          pcm
$end

$molecule
read
$end

$pcm
statespecific           Marcus
$end

$solvent
dielectric      8.93
dielectric_infi 2.03
$end

--------------------------------------------------------------

             Standard Nuclear Orientation (Angstroms)
    I     Atom           X                Y                Z
 ----------------------------------------------------------------
    1      N       0.0000000000     0.0000000000     0.0000000000
    2      C       0.0000000000     0.0000000000     1.4047380000
    3      C       1.2012856507     0.0000000000     2.1135373814
    4      H       2.1421676725    -0.0061224579     1.5777941758
    5      C       1.1934543196     0.0036797246     3.4996363742
    6      H       2.1342811528     0.0026136178     4.0349970131
    7      C      -0.0056959095    -0.0124493090     4.1996777822
    8      H      -0.0082847444    -0.0185415766     5.2816315330
    9      C      -1.2019508288    -0.0213243467     3.4950640280
   10      H      -2.1451887844    -0.0265660675     4.0264927931
   11      C      -1.2039325078    -0.0048511211     2.1095233699
   12      H      -2.1438339787     0.0041317230     1.5720032402
   13      C      -0.9237219959    -0.7957895416    -0.6991462019
   14      C      -1.6025253274    -0.2930499672    -1.8096900149
   15      H      -1.4233975040     0.7232837505    -2.1375352235
   16      C      -2.5071072557    -1.0880711845    -2.4962096318
   17      H      -3.0238463027    -0.6812409164    -3.3562265280
   18      C      -2.7662164789    -2.3869551063    -2.0790690625
   19      H      -3.4789249987    -3.0018515044    -2.6126896120
   20      C      -2.0983371816    -2.8862643741    -0.9690170742
   21      H      -2.2831729612    -3.8994898538    -0.6353911763
   22      C      -1.1774250154    -2.1052205195    -0.2889094808
   23      H      -0.6534651637    -2.5132690952     0.5660723053
   24      C       0.8838386144     0.8341430089    -0.7099143582
   25      C       1.1216583494     2.1381084198    -0.2946857983
   26      H       0.6316483912     2.5189453207     0.5944827500
   27      C       1.9661395847     2.9690250330    -1.0218292029
   28      C       1.5178824333     0.3600606676    -1.8555033640
   29      H       1.3482177164    -0.6612660975    -2.1773182261
   30      C       2.3428605184     1.1855443965    -2.6042172324
   31      C       2.5708839158     2.5075234422    -2.1948336559
   32      C       2.9687480780     0.6656368379    -3.8689312926
   33      H       2.7526840789    -0.3917075547    -4.0192208689
   34      H       4.0541524228     0.7825400678    -3.8615004795
   35      H       2.5966241968     1.2020891852    -4.7454809106
   36      C       2.2342241349     4.3593749546    -0.5094283311
   37      H       1.3343007146     4.7588537275    -0.0353652663
   38      H       2.4617557591     5.0375010654    -1.3377021654
   39      C       3.3853683360     4.3775202320     0.4933363115
   40      H       3.5634956562     5.3857670096     0.8684520065
   41      H       4.3092023750     4.0224615235     0.0354871234
   42      H       3.1673584290     3.7338845488     1.3464819349
   43      B       3.3725860940     3.4834564420    -3.1249980145
   44      C       4.9163927333     3.6122180602    -3.0567187634
   45      C       5.6476832507     2.7716268371    -2.2151118535
   46      H       5.1302977496     2.0490943524    -1.5929940467
   47      C       7.0276435876     2.8506684882    -2.1933795621
   48      C       7.7013815070     3.7963951090    -2.9981297578
   49      C       6.9802637467     4.6543992272    -3.8129351160
   50      H       7.4969975309     5.3848529346    -4.4251995048
   51      C       5.5847516915     4.5625614901    -3.8653352305
   52      C       8.0228791648     2.0705179704    -1.4651569694
   53      C       7.9716712252     1.0279181088    -0.5776190132
   54      H       7.0321322202     0.6023356171    -0.2464809876
   55      C       9.2763895420     2.5699924102    -1.8603067119
   56      C      10.4900318892     2.0653538430    -1.4100814202
   57      C       9.1391574866     3.6208178807    -2.7883865886
   58      C      10.2748378219     4.2005210819    -3.2885431509
   59      H      10.2365264656     5.0084085487    -4.0088312128
   60      C       9.1918033829     0.4982687559    -0.0952002341
   61      H       9.1564209944    -0.3261505293     0.6050700415
   62      C      10.4158738266     0.9898350807    -0.4898336427
   63      H      11.3242855628     0.5489170935    -0.0982389243
   64      C      11.6489250454     2.6828323176    -1.9400935989
   65      H      12.6313426344     2.3423791280    -1.6371521967
   66      C      11.5286414659     3.7129775543    -2.8458170501
   67      H      12.4265162435     4.1695070437    -3.2411689994
   68      C       2.5738282009     4.3203093867    -4.1651480703
   69      C       1.2016849577     4.1127352760    -4.3117684924
   70      H       0.6942901135     3.3693054292    -3.7076943853
   71      C       0.4903610817     4.8562493110    -5.2322276256
   72      C       1.1320844090     5.8407234830    -6.0182578581
   73      C       2.4924988933     6.0538685694    -5.8759945855
   74      H       2.9933257897     6.8063054972    -6.4754190443
   75      C       3.2265966741     5.2912146112    -4.9594535705
   76      C      -0.9278839415     4.8349325662    -5.5841366951
   77      C      -2.0205563914     4.1140874696    -5.1740622580
   78      H      -1.9482843437     3.3459093357    -4.4136757356
   79      C      -1.0979381220     5.8163916733    -6.5760692369
   80      C      -2.3201003563     6.1098120617    -7.1767225398
   81      C       0.1174549255     6.4598151676    -6.8796574773
   82      C       0.1048727514     7.4463671581    -7.8325275516
   83      H       1.0020803943     7.9825487907    -8.1151113621
   84      C      -2.3042126120     7.1320005857    -8.1559934097
   85      H      -3.2193591709     7.4125384148    -8.6634232328
   86      C      -1.1232423713     7.7689829665    -8.4617264026
   87      H      -1.1269577709     8.5486269166    -9.2123449572
   88      C      -3.2758243584     4.3902333449    -5.7681596350
   89      H      -4.1379195132     3.8215048591    -5.4442713271
   90      C      -3.4349255797     5.3535679161    -6.7382347147
   91      H      -4.4136679651     5.5336050761    -7.1665288420
   92      B       4.7621537861     5.4858126342    -4.8202441568
   93      C       5.5032793891     6.6085243188    -5.6261068841
   94      C       6.1982453586     6.3167317028    -6.8037817602
   95      C       6.9289472930     7.3130276238    -7.4409870869
   96      H       7.4752044741     7.0833952878    -8.3496531259
   97      C       6.9879240645     8.5943313017    -6.9125531615
   98      C       6.2709137622     8.8947279921    -5.7592766672
   99      H       6.3137903862     9.8962310164    -5.3468332632
  100      C       5.5229671438     7.9160457352    -5.1199335559
  101      N       7.7917601679     9.5773292790    -7.5301928324
  102      C       9.1512685536     9.3082848929    -7.7346365399
  103      C       9.8249249380     9.8168528759    -8.8470642451
  104      H       9.2971339430    10.4307456420    -9.5659603623
  105      C      11.1674482529     9.5344542687    -9.0417642657
  106      H      11.6703371885     9.9385451449    -9.9112173325
  107      C      11.8603589693     8.7260227276    -8.1502746938
  108      H      12.9059005785     8.5000558941    -8.3121207267
  109      C      11.1896561302     8.2099804803    -7.0498774703
  110      H      11.7125618580     7.5808190007    -6.3405873431
  111      C       9.8524461076     8.5019930341    -6.8350066249
  112      H       9.3508938537     8.0991431263    -5.9643172789
  113      C       7.2233527219    10.8231663258    -7.8294497531
  114      C       7.9230289672    12.0105514141    -7.6117700484
  115      H       8.9278482752    11.9816350668    -7.2103806971
  116      C       7.3326647084    13.2312391676    -7.8992750328
  117      H       7.8902165666    14.1423474926    -7.7229450272
  118      C       6.0338750685    13.2941969678    -8.3859590553
  119      H       5.5743935435    14.2501772695    -8.5995123577
  120      C       5.3320409067    12.1140141131    -8.5926297483
  121      H       4.3198611238    12.1439602555    -8.9756276114
  122      C       5.9201597489    10.8880421381    -8.3268500733
  123      H       5.3647610108     9.9751661110    -8.5026060593
  124      C       4.7557710911     8.2479066845    -3.8699670459
  125      H       4.9631680579     9.2606953228    -3.5264511484
  126      H       3.6789817775     8.1700386377    -4.0351443579
  127      H       5.0016767574     7.5673157070    -3.0512859382
  128      C       6.1173297030     4.9483743137    -7.4328908771
  129      H       7.0717935009     4.7022275775    -7.9045969814
  130      H       5.9558701888     4.1841184786    -6.6671719902
  131      C       5.0035650779     4.8559836778    -8.4747296167
  132      H       4.0270081562     5.0453664063    -8.0280709282
  133      H       4.9755464790     3.8640239854    -8.9268978077
  134      H       5.1522951782     5.5846331013    -9.2724417501
 ----------------------------------------------------------------

   14   -3006.3524154289      7.26E-09 Convergence criterion met
 Total energy in the final basis set = -3006.35241543

         TDDFT/TDA Excitation Energies
 ---------------------------------------------------

 Excited state   1: excitation energy (eV) =    1.9838
 Total energy for state  1:                 -3006.27951037 au
    Multiplicity: Triplet
    Trans. Mom.:  0.0000 X   0.0000 Y   0.0000 Z
    Strength   :     0.0000000000
    D(262) --> V(  1) amplitude =  0.9738

 Excited state   2: excitation energy (eV) =    1.9975
 Total energy for state  2:                 -3006.27900767 au
    Multiplicity: Singlet
    Trans. Mom.: -0.1275 X  -0.0466 Y   0.0417 Z
    Strength   :     0.0009873943
    D(262) --> V(  1) amplitude =  0.9780

 Excited state   3: excitation energy (eV) =    2.4111
 Total energy for state  3:                 -3006.26380865 au
    Multiplicity: Triplet
    Trans. Mom.:  0.0000 X   0.0000 Y   0.0000 Z
    Strength   :     0.0000000000
    D(251) --> V(  2) amplitude = -0.2537
    D(258) --> V(  1) amplitude = -0.8896

 Excited state   4: excitation energy (eV) =    2.5092
 Total energy for state  4:                 -3006.26020519 au
    Multiplicity: Triplet
    Trans. Mom.:  0.0000 X   0.0000 Y   0.0000 Z
    Strength   :     0.0000000000
    D(257) --> V(  2) amplitude =  0.4961
    D(260) --> V(  1) amplitude =  0.7335

 Excited state   5: excitation energy (eV) =    2.5470
 Total energy for state  5:                 -3006.25881567 au
    Multiplicity: Triplet
    Trans. Mom.:  0.0000 X   0.0000 Y   0.0000 Z
    Strength   :     0.0000000000
    D(257) --> V(  1) amplitude = -0.6552
    D(257) --> V(  4) amplitude = -0.2218
    D(260) --> V(  2) amplitude = -0.5100
    D(261) --> V(  1) amplitude = -0.3572

 Excited state   6: excitation energy (eV) =    2.6057
 Total energy for state  6:                 -3006.25665742 au
    Multiplicity: Triplet
    Trans. Mom.:  0.0000 X   0.0000 Y   0.0000 Z
    Strength   :     0.0000000000
    D(257) --> V(  1) amplitude = -0.2491
    D(261) --> V(  1) amplitude =  0.8883

 Excited state   7: excitation energy (eV) =    2.6221
 Total energy for state  7:                 -3006.25605534 au
    Multiplicity: Singlet
    Trans. Mom.:  0.2218 X   0.3661 Y  -0.2311 Z
    Strength   :     0.0152015630
    D(261) --> V(  1) amplitude =  0.9726

 Excited state   8: excitation energy (eV) =    2.8217
 Total energy for state  8:                 -3006.24871939 au
    Multiplicity: Triplet
    Trans. Mom.:  0.0000 X   0.0000 Y   0.0000 Z
    Strength   :     0.0000000000
    D(250) --> V(  1) amplitude = -0.2640
    D(251) --> V(  1) amplitude = -0.6268
    D(258) --> V(  2) amplitude = -0.5656

 Excited state   9: excitation energy (eV) =    3.0808
 Total energy for state  9:                 -3006.23919712 au
    Multiplicity: Singlet
    Trans. Mom.:  0.0041 X   0.0730 Y  -0.0538 Z
    Strength   :     0.0006214364
    D(258) --> V(  1) amplitude =  0.2997
    D(262) --> V(  2) amplitude =  0.9444

 Excited state  10: excitation energy (eV) =    3.0859
 Total energy for state 10:                 -3006.23900985 au
    Multiplicity: Singlet
    Trans. Mom.:  0.2802 X  -0.0568 Y   0.1175 Z
    Strength   :     0.0072213155
    D(258) --> V(  1) amplitude = -0.9049
    D(262) --> V(  2) amplitude =  0.3117

 Excited state  11: excitation energy (eV) =    3.2499
 Total energy for state 11:                 -3006.23298347 au
    Multiplicity: Singlet
    Trans. Mom.:  3.4226 X  -1.0670 Y   1.5323 Z
    Strength   :     1.2102783311
    D(260) --> V(  1) amplitude =  0.9301

 Excited state  12: excitation energy (eV) =    3.3794
 Total energy for state 12:                 -3006.22822605 au
    Multiplicity: Singlet
    Trans. Mom.:  0.3860 X  -0.1534 Y   0.2042 Z
    Strength   :     0.0177359422
    D(259) --> V(  1) amplitude =  0.9502

 ---------------------------------------------------

                    Orbital Energies (a.u.)
 --------------------------------------------------------------

 Alpha MOs
 -- Occupied --
-14.679 -14.657 -10.501 -10.500 -10.495 -10.477 -10.477 -10.477
-10.477 -10.476 -10.475 -10.475 -10.475 -10.475 -10.475 -10.475
-10.474 -10.473 -10.473 -10.472 -10.471 -10.471 -10.470 -10.470
-10.470 -10.469 -10.468 -10.468 -10.468 -10.467 -10.467 -10.467
-10.465 -10.465 -10.464 -10.462 -10.459 -10.458 -10.455 -10.455
-10.455 -10.455 -10.452 -10.452 -10.452 -10.452 -10.449 -10.449
-10.449 -10.449 -10.449 -10.448 -10.447 -10.447 -10.447 -10.445
-10.445 -10.438 -10.436 -10.434 -10.434 -10.433 -10.433 -10.432
-10.432 -10.431 -10.430 -10.430 -10.429 -10.428 -10.428 -10.428
-10.427 -10.425 -10.419 -10.418  -6.963  -6.957  -1.090  -1.067
 -1.029  -1.027  -0.976  -0.972  -0.971  -0.968  -0.954  -0.949
 -0.946  -0.944  -0.942  -0.928  -0.920  -0.912  -0.896  -0.880
 -0.874  -0.866  -0.866  -0.859  -0.857  -0.855  -0.853  -0.846
 -0.844  -0.836  -0.834  -0.826  -0.825  -0.823  -0.822  -0.822
 -0.816  -0.808  -0.803  -0.783  -0.778  -0.762  -0.746  -0.739
 -0.736  -0.731  -0.724  -0.716  -0.709  -0.709  -0.699  -0.698
 -0.689  -0.688  -0.687  -0.686  -0.678  -0.676  -0.666  -0.662
 -0.658  -0.657  -0.651  -0.646  -0.633  -0.627  -0.614  -0.604
 -0.602  -0.599  -0.596  -0.596  -0.592  -0.592  -0.585  -0.583
 -0.577  -0.570  -0.564  -0.555  -0.553  -0.550  -0.549  -0.545
 -0.540  -0.537  -0.531  -0.528  -0.528  -0.523  -0.519  -0.517
 -0.513  -0.511  -0.509  -0.506  -0.505  -0.504  -0.503  -0.500
 -0.499  -0.498  -0.497  -0.494  -0.492  -0.491  -0.489  -0.488
 -0.487  -0.486  -0.484  -0.483  -0.480  -0.476  -0.475  -0.473
 -0.471  -0.468  -0.467  -0.465  -0.463  -0.458  -0.454  -0.453
 -0.452  -0.449  -0.446  -0.442  -0.441  -0.437  -0.436  -0.435
 -0.431  -0.429  -0.427  -0.421  -0.419  -0.418  -0.416  -0.413
 -0.412  -0.409  -0.407  -0.407  -0.405  -0.405  -0.403  -0.403
 -0.402  -0.400  -0.399  -0.398  -0.396  -0.391  -0.389  -0.387
 -0.386  -0.381  -0.381  -0.371  -0.367  -0.365  -0.364  -0.359
 -0.348  -0.341  -0.332  -0.326  -0.311  -0.309  -0.307  -0.305
 -0.305  -0.296  -0.293  -0.290  -0.288  -0.287  -0.285  -0.275
 -0.273  -0.271  -0.269  -0.267  -0.232  -0.210

          Ground-State Mulliken Net Atomic Charges

     Atom                 Charge (a.u.)
  ----------------------------------------
      1 N                    -0.674606
      2 C                     0.294549
      3 C                    -0.292071
      4 H                     0.259707
      5 C                    -0.241907
      6 H                     0.245830
      7 C                    -0.263870
      8 H                     0.244651
      9 C                    -0.241146
     10 H                     0.248112
     11 C                    -0.294022
     12 H                     0.264715
     13 C                     0.292135
     14 C                    -0.291962
     15 H                     0.257563
     16 C                    -0.241097
     17 H                     0.243538
     18 C                    -0.263895
     19 H                     0.244688
     20 C                    -0.241067
     21 H                     0.248438
     22 C                    -0.290953
     23 H                     0.265394
     24 C                     0.316362
     25 C                    -0.365580
     26 H                     0.256307
     27 C                     0.063544
     28 C                    -0.369164
     29 H                     0.258448
     30 C                     0.056546
     31 C                    -0.230249
     32 C                    -0.773640
     33 H                     0.262491
     34 H                     0.238748
     35 H                     0.239828
     36 C                    -0.549515
     37 H                     0.250566
     38 H                     0.239324
     39 C                    -0.655521
     40 H                     0.225022
     41 H                     0.224484
     42 H                     0.234871
     43 B                     0.662782
     44 C                    -0.147972
     45 C                    -0.400928
     46 H                     0.262904
     47 C                     0.071887
     48 C                     0.085456
     49 C                    -0.398537
     50 H                     0.245521
     51 C                    -0.159995
     52 C                     0.172072
     53 C                    -0.391098
     54 H                     0.262193
     55 C                    -0.066642
     56 C                     0.218912
     57 C                     0.172918
     58 C                    -0.397696
     59 H                     0.253216
     60 C                    -0.237121
     61 H                     0.265046
     62 C                    -0.349497
     63 H                     0.259291
     64 C                    -0.352197
     65 H                     0.259366
     66 C                    -0.235885
     67 H                     0.261121
     68 C                    -0.155498
     69 C                    -0.387975
     70 H                     0.265863
     71 C                     0.070009
     72 C                     0.082020
     73 C                    -0.407902
     74 H                     0.248413
     75 C                    -0.151799
     76 C                     0.173684
     77 C                    -0.393020
     78 H                     0.265393
     79 C                    -0.067343
     80 C                     0.215178
     81 C                     0.176918
     82 C                    -0.402099
     83 H                     0.252551
     84 C                    -0.350948
     85 H                     0.259524
     86 C                    -0.235246
     87 H                     0.260987
     88 C                    -0.237069
     89 H                     0.266151
     90 C                    -0.347866
     91 H                     0.259450
     92 B                     0.661221
     93 C                    -0.209532
     94 C                     0.061653
     95 C                    -0.349597
     96 H                     0.247143
     97 C                     0.274341
     98 C                    -0.360934
     99 H                     0.250066
    100 C                     0.035106
    101 N                    -0.672053
    102 C                     0.311499
    103 C                    -0.304166
    104 H                     0.264130
    105 C                    -0.242385
    106 H                     0.252091
    107 C                    -0.271826
    108 H                     0.248136
    109 C                    -0.241305
    110 H                     0.248331
    111 C                    -0.309200
    112 H                     0.258507
    113 C                     0.304723
    114 C                    -0.303447
    115 H                     0.263639
    116 C                    -0.243087
    117 H                     0.252642
    118 C                    -0.269511
    119 H                     0.249202
    120 C                    -0.241718
    121 H                     0.250573
    122 C                    -0.303686
    123 H                     0.257400
    124 C                    -0.773320
    125 H                     0.259056
    126 H                     0.248308
    127 H                     0.248792
    128 C                    -0.548900
    129 H                     0.246317
    130 H                     0.249002
    131 C                    -0.656465
    132 H                     0.230491
    133 H                     0.232577
    134 H                     0.226094
  ----------------------------------------
  Sum of atomic charges =    -0.000000

                    Cartesian Multipole Moments
 -----------------------------------------------------------------
    Charge (ESU x 10^10)
                -0.0000
    Dipole Moment (Debye)
         X      -1.5277      Y      -1.9699      Z       1.0073
       Tot       2.6887
    Quadrupole Moments (Debye-Ang)
        XX    -381.3747     XY     -18.2211     YY    -433.2552
        XZ      25.0244     YZ     -17.4419     ZZ    -425.8819

 Total job time:  27242.41s(wall), 79240.43s(cpu)
        *  Thank you very much for using Q-Chem.  Have a nice day.  *
