 Q-Chem 5.1, Q-Chem, Inc., Pleasanton, CA (2018)
 Q-Chem 5.1.1 for Intel X86 EM64T Linux

User input:
--------------------------------------------------------------
$solvent
dielectric      2.38
dielectric_infi 2.25
$end

$rem
threads 8
jobtype	sp
method PBEh-3c
basis def2-mSVP
mem_static	1024
mem_total	14000
sym_ignore	true
cis_n_roots             2
cis_singlets            true
cis_triplets		false
rpa                     false
calc_soc 		true
cis_moments             true
cis_relaxed_density	true
solvent_method		pcm
$end

$pcm
StateSpecific   1
ChargeSeparation Excited
$end

$molecule
read moms1opt_tol.mol
$end

--------------------------------------------------------------

   14   -3006.3394764561      9.87e-09  Convergence criterion met
 Total energy in the final basis set =    -3006.3394764561

                    Orbital Energies (a.u.)
 --------------------------------------------------------------

 Alpha MOs
 -- Occupied --
-14.671 -14.670 -10.492 -10.492 -10.492 -10.492 -10.487 -10.484
-10.467 -10.467 -10.467 -10.467 -10.466 -10.466 -10.466 -10.465
-10.465 -10.465 -10.465 -10.464 -10.463 -10.463 -10.463 -10.463
-10.463 -10.463 -10.460 -10.459 -10.459 -10.459 -10.457 -10.456
-10.456 -10.456 -10.454 -10.453 -10.451 -10.450 -10.450 -10.450
-10.450 -10.450 -10.450 -10.449 -10.448 -10.448 -10.448 -10.447
-10.447 -10.447 -10.447 -10.447 -10.446 -10.445 -10.444 -10.443
-10.443 -10.443 -10.441 -10.440 -10.439 -10.439 -10.438 -10.437
-10.436 -10.436 -10.435 -10.432 -10.431 -10.430 -10.427 -10.426
-10.424 -10.421 -10.419 -10.417  -6.950  -6.942  -1.087  -1.081
 -1.018  -1.017  -0.965  -0.964  -0.961  -0.960  -0.960  -0.959
 -0.940  -0.940  -0.935  -0.934  -0.910  -0.901  -0.884  -0.883
 -0.865  -0.861  -0.857  -0.855  -0.852  -0.851  -0.848  -0.847
 -0.842  -0.842  -0.838  -0.836  -0.825  -0.816  -0.815  -0.814
 -0.813  -0.805  -0.793  -0.789  -0.767  -0.763  -0.737  -0.732
 -0.728  -0.722  -0.714  -0.714  -0.709  -0.707  -0.701  -0.697
 -0.690  -0.686  -0.683  -0.681  -0.679  -0.677  -0.669  -0.668
 -0.649  -0.647  -0.641  -0.639  -0.636  -0.633  -0.607  -0.605
 -0.597  -0.595  -0.592  -0.589  -0.586  -0.586  -0.584  -0.577
 -0.577  -0.563  -0.561  -0.554  -0.553  -0.545  -0.545  -0.543
 -0.541  -0.538  -0.528  -0.526  -0.525  -0.520  -0.518  -0.514
 -0.510  -0.509  -0.505  -0.502  -0.501  -0.498  -0.496  -0.496
 -0.495  -0.493  -0.491  -0.489  -0.489  -0.487  -0.486  -0.486
 -0.484  -0.483  -0.482  -0.480  -0.479  -0.478  -0.476  -0.472
 -0.469  -0.467  -0.467  -0.462  -0.458  -0.455  -0.449  -0.445
 -0.444  -0.442  -0.441  -0.439  -0.434  -0.431  -0.431  -0.429
 -0.427  -0.426  -0.425  -0.422  -0.420  -0.420  -0.418  -0.414
 -0.412  -0.410  -0.406  -0.402  -0.401  -0.400  -0.400  -0.398
 -0.397  -0.397  -0.395  -0.394  -0.393  -0.392  -0.390  -0.387
 -0.381  -0.379  -0.373  -0.367  -0.361  -0.358  -0.355  -0.352
 -0.347  -0.337  -0.322  -0.316  -0.309  -0.302  -0.302  -0.300
 -0.298  -0.297  -0.296  -0.295  -0.286  -0.284  -0.283  -0.277
 -0.277  -0.264  -0.258  -0.257  -0.223  -0.215

          Ground-State Mulliken Net Atomic Charges

     Atom                 Charge (a.u.)
  ----------------------------------------
      1 N                    -0.658689
      2 C                     0.328439
      3 C                    -0.395779
      4 H                     0.248590
      5 C                     0.086702
      6 C                    -0.398920
      7 H                     0.251325
      8 C                     0.065633
      9 C                     0.272758
     10 C                    -0.282119
     11 H                     0.256489
     12 C                    -0.235077
     13 H                     0.241086
     14 C                    -0.253054
     15 H                     0.237187
     16 C                    -0.236648
     17 H                     0.241078
     18 C                    -0.275402
     19 H                     0.259875
     20 C                     0.254085
     21 C                    -0.274586
     22 H                     0.256146
     23 C                    -0.236454
     24 H                     0.241660
     25 C                    -0.251073
     26 H                     0.237958
     27 C                    -0.236647
     28 H                     0.241541
     29 C                    -0.266091
     30 H                     0.257595
     31 C                    -0.245928
     32 C                    -0.767788
     33 H                     0.246765
     34 H                     0.246687
     35 H                     0.247111
     36 C                    -0.545180
     37 H                     0.250657
     38 H                     0.237629
     39 C                    -0.654337
     40 H                     0.238756
     41 H                     0.223765
     42 H                     0.220300
     43 B                     0.641361
     44 C                    -0.137103
     45 C                    -0.404301
     46 H                     0.245729
     47 C                     0.087194
     48 C                     0.104222
     49 C                    -0.395234
     50 H                     0.240332
     51 C                    -0.155683
     52 C                     0.183175
     53 C                    -0.386090
     54 H                     0.242209
     55 C                    -0.066182
     56 C                     0.232933
     57 C                     0.182969
     58 C                    -0.388653
     59 H                     0.240776
     60 C                    -0.224105
     61 H                     0.247959
     62 C                    -0.342846
     63 H                     0.244106
     64 C                    -0.222596
     65 H                     0.246927
     66 C                    -0.344932
     67 H                     0.244466
     68 C                    -0.146024
     69 C                    -0.383280
     70 H                     0.245311
     71 C                     0.088626
     72 C                     0.098898
     73 C                    -0.408434
     74 H                     0.245838
     75 C                    -0.147195
     76 C                     0.186224
     77 C                    -0.386891
     78 H                     0.241545
     79 C                    -0.067770
     80 C                     0.229143
     81 C                     0.186788
     82 C                    -0.393061
     83 H                     0.240953
     84 C                    -0.223905
     85 H                     0.247660
     86 C                    -0.341227
     87 H                     0.244204
     88 C                    -0.221837
     89 H                     0.247175
     90 C                    -0.343552
     91 H                     0.244614
     92 B                     0.670999
     93 C                    -0.211599
     94 C                     0.062723
     95 C                    -0.340747
     96 H                     0.238978
     97 C                     0.264859
     98 C                    -0.347494
     99 H                     0.241570
    100 C                     0.039917
    101 N                    -0.673995
    102 C                     0.313949
    103 C                    -0.299799
    104 H                     0.258138
    105 C                    -0.232036
    106 H                     0.238623
    107 C                    -0.260599
    108 H                     0.235191
    109 C                    -0.230297
    110 H                     0.236913
    111 C                    -0.299954
    112 H                     0.253260
    113 C                     0.314843
    114 C                    -0.300548
    115 H                     0.258241
    116 C                    -0.231832
    117 H                     0.238500
    118 C                    -0.261539
    119 H                     0.234753
    120 C                    -0.229613
    121 H                     0.234935
    122 C                    -0.300674
    123 H                     0.254365
    124 C                    -0.769936
    125 H                     0.249786
    126 H                     0.248926
    127 H                     0.249375
    128 C                    -0.548651
    129 H                     0.252095
    130 H                     0.240194
    131 C                    -0.653911
    132 H                     0.239156
    133 H                     0.220525
    134 H                     0.225930
  ----------------------------------------
  Sum of atomic charges =    -0.000000

                    Cartesian Multipole Moments
 -----------------------------------------------------------------
    Charge (ESU x 10^10)
                -0.0000
    Dipole Moment (Debye)
         X      -0.5109      Y       0.0723      Z      -2.0425
       Tot       2.1066
    Quadrupole Moments (Debye-Ang)
        XX    -445.9940     XY      -7.5999     YY    -375.2638
        XZ      -7.1155     YZ      13.3208     ZZ    -431.2094

 Total job time:  17900.34s(wall), 48953.25s(cpu)
        *  Thank you very much for using Q-Chem.  Have a nice day.  *
 Q-Chem 5.1, Q-Chem, Inc., Pleasanton, CA (2018)
 Q-Chem 5.1.1 for Intel X86 EM64T Linux

User input:
--------------------------------------------------------------
$rem
threads 8
jobtype sp
method PBEh-3c
basis def2-mSVP
mem_static      1024
mem_total       14000
sym_ignore      true
cis_n_roots             6
cis_singlets            true
cis_triplets            true
rpa                     false
calc_soc                true
cis_moments             true
cis_relaxed_density     true
solvent_method          pcm
$end

$molecule
read
$end

$pcm
statespecific           Marcus
$end

$solvent
dielectric      2.38
dielectric_infi 2.25
$end

--------------------------------------------------------------

             Standard Nuclear Orientation (Angstroms)
    I     Atom           X                Y                Z
 ----------------------------------------------------------------
    1      N       0.0000000000     0.0000000000     0.0000000000
    2      C       0.0000000000     0.0000000000     1.3648440000
    3      C       1.2140677024     0.0000000000     2.0845930979
    4      H       2.1551357083    -0.0056493119     1.5490703483
    5      C       1.2067861442    -0.0961204422     3.4546872176
    6      C      -1.2261821528    -0.0345900333     2.0649080312
    7      H      -2.1565181438     0.0282449085     1.5151189672
    8      C      -1.2419674238    -0.1243541085     3.4327509474
    9      C       1.0774857175     0.5296356740    -0.7441581538
   10      C       1.5755576246    -0.1911876341    -1.8270043583
   11      H       1.1602054046    -1.1594076982    -2.0744565138
   12      C       2.6174374119     0.3330580467    -2.5697603675
   13      H       3.0133960241    -0.2298315484    -3.4040584350
   14      C       3.1576435477     1.5702004564    -2.2417709111
   15      H       3.9712492371     1.9766742318    -2.8272050802
   16      C       2.6504521069     2.2876411092    -1.1669523479
   17      H       3.0590137256     3.2577455157    -0.9192608861
   18      C       1.6069872008     1.7752654245    -0.4150815826
   19      H       1.1915481330     2.3451596840     0.4060647436
   20      C      -1.0756641135    -0.5734579597    -0.7198375510
   21      C      -1.6406522719     0.1223797483    -1.7853974026
   22      H      -1.2732350311     1.1047123193    -2.0530393363
   23      C      -2.6902233563    -0.4454914094    -2.4858819828
   24      H      -3.1403762458     0.0983987792    -3.3052390436
   25      C      -3.1703451891    -1.7009280419    -2.1353353973
   26      H      -3.9911900517    -2.1394903588    -2.6867163233
   27      C      -2.5937969217    -2.3950800443    -1.0807052834
   28      H      -2.9553203271    -3.3786120462    -0.8128704481
   29      C      -1.5439260398    -1.8384836983    -0.3708746899
   30      H      -1.0818160294    -2.3891389219     0.4387338308
   31      C      -0.0218307590    -0.2014635175     4.1590138398
   32      C      -2.5477332983    -0.1765194573     4.1645953231
   33      H      -3.3940357946    -0.1070698382     3.4821477730
   34      H      -2.6252638701     0.6316249575     4.8924063862
   35      H      -2.6366071223    -1.1085764375     4.7257884931
   36      C       2.5124003716    -0.1121874973     4.1960053183
   37      H       2.4511100253    -0.8036251872     5.0382711821
   38      H       3.3015192618    -0.4850029514     3.5389872583
   39      C       2.8823801801     1.2811518887     4.7006577845
   40      H       2.1366499374     1.6569549100     5.4003681957
   41      H       3.8401409137     1.2580370789     5.2198813361
   42      H       2.9623637396     1.9895988079     3.8748818705
   43      B      -0.0586259219    -0.5780147365     5.6925785961
   44      C      -0.2523253452     0.4626211249     6.7879974850
   45      C      -0.4245746491     1.8279100083     6.4756212392
   46      H      -0.3945272604     2.1482207230     5.4375252376
   47      C      -0.6451593718     2.7490380065     7.4664140400
   48      C      -0.6891677752     2.3384645384     8.8313368656
   49      C      -0.5062173918     1.0136490697     9.1558369493
   50      H      -0.5387330359     0.6996454229    10.1939381362
   51      C      -0.2959623488     0.0445181176     8.1530674497
   52      C      -0.8940521721     4.1852444704     7.4124750339
   53      C      -0.9897505146     5.1146714029     6.4079992523
   54      H      -0.8554524352     4.8467807331     5.3668045763
   55      C      -1.0871018128     4.6030356043     8.7433599678
   56      C      -1.3798956067     5.9113440051     9.1130184762
   57      C      -0.9714248253     3.5202392917     9.6412847574
   58      C      -1.1552512104     3.7664551119    10.9779923365
   59      H      -1.0859493511     2.9783961394    11.7175557253
   60      C      -1.2791869940     6.4534957732     6.7552080648
   61      H      -1.3565153420     7.1884754163     5.9638028351
   62      C      -1.4709476691     6.8533776895     8.0585243912
   63      H      -1.6958267902     7.8903006248     8.2764076702
   64      C      -1.4498569107     5.0886180009    11.3856028462
   65      H      -1.5955503463     5.2804492120    12.4410326231
   66      C      -1.5623534283     6.1359374323    10.4993280076
   67      H      -1.7944691005     7.1295666002    10.8623723563
   68      C       0.0475543084    -2.0645083536     6.0322561623
   69      C       0.1635163813    -3.0354665277     5.0157936322
   70      H       0.1809753158    -2.7333744817     3.9729581687
   71      C       0.2496953376    -4.3654458721     5.3275878646
   72      C       0.2352330939    -4.7951444641     6.6884011859
   73      C       0.1248491412    -3.8625698774     7.6929079227
   74      H       0.1082550156    -4.1790157519     8.7311030546
   75      C       0.0196910073    -2.4873497948     7.3952811505
   76      C       0.3569712752    -5.5460459366     4.4754093614
   77      C       0.4093107655    -5.7702446659     3.1211921205
   78      H       0.3772425862    -4.9564642280     2.4064419465
   79      C       0.4045168290    -6.6546245823     5.3422965269
   80      C       0.5013994534    -7.9767095288     4.9095319261
   81      C       0.3357478492    -6.2559704540     6.6942142644
   82      C       0.3679367570    -7.2384932877     7.6538514233
   83      H       0.3183994745    -7.0064571913     8.7102393372
   84      C       0.5079105924    -7.1015154562     2.6551086598
   85      H       0.5487872344    -7.2759177321     1.5870030477
   86      C       0.5536211720    -8.1799200015     3.5089117444
   87      H       0.6289425737    -9.1843176808     3.1094457419
   88      C       0.4677052058    -8.5896337663     7.2443416302
   89      H       0.4924276681    -9.3570094942     8.0077971678
   90      C       0.5334018071    -8.9654110754     5.9223626345
   91      H       0.6081725341   -10.0133620956     5.6577376250
   92      B      -0.1434735624    -1.4477016962     8.5148317950
   93      C      -0.1441209294    -1.8853016972    10.0329994869
   94      C      -1.3364124892    -2.0503918231    10.7487199859
   95      C      -1.3012620837    -2.3522619079    12.1059085355
   96      H      -2.2279197940    -2.4703674317    12.6578880598
   97      C      -0.0920166438    -2.4786831616    12.7712012491
   98      C       1.0956864871    -2.3400807542    12.0639749865
   99      H       2.0417778221    -2.4428511929    12.5835856030
  100      C       1.0762449836    -2.0554105521    10.7048207099
  101      N      -0.0712702064    -2.7276031324    14.1644648893
  102      C       0.6361692909    -3.8359540326    14.6411877708
  103      C       1.3433858876    -3.7816201194    15.8437183795
  104      H       1.3478321100    -2.8692989506    16.4261281235
  105      C       2.0482405945    -4.8864338404    16.2922855953
  106      H       2.5910243392    -4.8217704199    17.2268167413
  107      C       2.0830550490    -6.0570652207    15.5475139104
  108      H       2.6428200315    -6.9142656966    15.8971974615
  109      C       1.3924790955    -6.1090431316    14.3447473691
  110      H       1.4061068242    -7.0135049494    13.7497918415
  111      C       0.6688758418    -5.0169425134    13.8960243188
  112      H       0.1281931631    -5.0776491580    12.9601925875
  113      C      -0.7544480891    -1.8498943122    15.0133843453
  114      C      -1.3963601296    -2.3085650748    16.1656411447
  115      H      -1.3656918390    -3.3606468695    16.4185386110
  116      C      -2.0840434852    -1.4269544010    16.9833174111
  117      H      -2.5760211303    -1.8058505934    17.8701966834
  118      C      -2.1671120514    -0.0788729152    16.6641375453
  119      H      -2.7142373347     0.6042536470    17.2999838894
  120      C      -1.5408237658     0.3773754973    15.5127626492
  121      H      -1.5922671062     1.4253986874    15.2457525347
  122      C      -0.8346780658    -0.4913384124    14.6981030106
  123      H      -0.3472317079    -0.1159796300    13.8076615776
  124      C       2.3713405573    -1.8996779734     9.9566938696
  125      H       3.2325405179    -1.9800127515    10.6200800568
  126      H       2.4750034264    -2.6625463179     9.1825195400
  127      H       2.4264969913    -0.9331653606     9.4514592378
  128      C      -2.6744732700    -1.9544762915    10.0598455136
  129      H      -2.6317387827    -1.2150201859     9.2564625590
  130      H      -3.4259487034    -1.5937332887    10.7672408278
  131      C      -3.1292913156    -3.2934743991     9.4823542685
  132      H      -2.4264205713    -3.6560587205     8.7324584484
  133      H      -3.2089867963    -4.0529649522    10.2615928922
  134      H      -4.1056769813    -3.2005099986     9.0042901308
 ----------------------------------------------------------------

   14   -3006.3389362636      9.99e-09  Convergence criterion met
 Total energy in the final basis set =    -3006.3389362636

         TDDFT/TDA Excitation Energies
 ---------------------------------------------------

 Excited state   1: excitation energy (eV) =    2.0506
 Total energy for state  1:                 -3006.26357639 au
    Multiplicity: Triplet
    Trans. Mom.:  0.0000 X   0.0000 Y   0.0000 Z
    Strength   :     0.0000000000
    D(262) --> V(  1) amplitude =  0.9675

 Excited state   2: excitation energy (eV) =    2.0752
 Total energy for state  2:                 -3006.26267376 au
    Multiplicity: Singlet
    Trans. Mom.:  0.0207 X   0.0352 Y  -0.2679 Z
    Strength   :     0.0037329729
    D(262) --> V(  1) amplitude =  0.9730

 Excited state   3: excitation energy (eV) =    2.2219
 Total energy for state  3:                 -3006.25728271 au
    Multiplicity: Triplet
    Trans. Mom.:  0.0000 X   0.0000 Y   0.0000 Z
    Strength   :     0.0000000000
    D(259) --> V(  1) amplitude =  0.9157

 Excited state   4: excitation energy (eV) =    2.4300
 Total energy for state  4:                 -3006.24963722 au
    Multiplicity: Triplet
    Trans. Mom.:  0.0000 X   0.0000 Y   0.0000 Z
    Strength   :     0.0000000000
    D(258) --> V(  2) amplitude = -0.4755
    D(260) --> V(  1) amplitude =  0.8028

 Excited state   5: excitation energy (eV) =    2.4806
 Total energy for state  5:                 -3006.24777524 au
    Multiplicity: Triplet
    Trans. Mom.:  0.0000 X   0.0000 Y   0.0000 Z
    Strength   :     0.0000000000
    D(258) --> V(  1) amplitude =  0.6270
    D(260) --> V(  2) amplitude = -0.4566
    D(261) --> V(  1) amplitude =  0.5272

 Excited state   6: excitation energy (eV) =    2.5192
 Total energy for state  6:                 -3006.24635842 au
    Multiplicity: Triplet
    Trans. Mom.:  0.0000 X   0.0000 Y   0.0000 Z
    Strength   :     0.0000000000
    D(258) --> V(  1) amplitude = -0.3953
    D(260) --> V(  2) amplitude =  0.3045
    D(261) --> V(  1) amplitude =  0.8055

 Excited state   7: excitation energy (eV) =    2.5279
 Total energy for state  7:                 -3006.24603699 au
    Multiplicity: Singlet
    Trans. Mom.: -0.0171 X   0.1067 Y  -0.4212 Z
    Strength   :     0.0117096591
    D(261) --> V(  1) amplitude =  0.9743

 Excited state   8: excitation energy (eV) =    2.7310
 Total energy for state  8:                 -3006.23857442 au
    Multiplicity: Triplet
    Trans. Mom.:  0.0000 X   0.0000 Y   0.0000 Z
    Strength   :     0.0000000000
    D(253) --> V(  1) amplitude = -0.3418
    D(254) --> V(  1) amplitude = -0.5706
    D(255) --> V(  1) amplitude = -0.2158
    D(259) --> V(  2) amplitude =  0.5541

 Excited state   9: excitation energy (eV) =    2.8871
 Total energy for state  9:                 -3006.23283903 au
    Multiplicity: Singlet
    Trans. Mom.:  0.0126 X  -0.0462 Y  -0.0126 Z
    Strength   :     0.0001733807
    D(259) --> V(  1) amplitude =  0.9643

 Excited state  10: excitation energy (eV) =    3.1211
 Total energy for state 10:                 -3006.22423758 au
    Multiplicity: Singlet
    Trans. Mom.:  0.5236 X  -3.8970 Y  -1.1776 Z
    Strength   :     1.2882829299
    D(260) --> V(  1) amplitude =  0.9528

 Excited state  11: excitation energy (eV) =    3.3403
 Total energy for state 11:                 -3006.21618121 au
    Multiplicity: Singlet
    Trans. Mom.: -0.0228 X  -0.0118 Y  -0.0140 Z
    Strength   :     0.0000699761
    D(262) --> V(  2) amplitude =  0.9915

 Excited state  12: excitation energy (eV) =    3.4231
 Total energy for state 12:                 -3006.21313933 au
    Multiplicity: Singlet
    Trans. Mom.:  0.1629 X  -0.0554 Y  -0.1003 Z
    Strength   :     0.0033250900
    D(258) --> V(  1) amplitude = -0.9341

 ---------------------------------------------------
