 Q-Chem 5.0, Q-Chem, Inc., Pleasanton, CA (2017)
 Q-Chem 5.0.1 for Intel X86 EM64T Linux

User input:
--------------------------------------------------------------
$solvent
dielectric      2.38
dielectric_infi 2.25
$end

$rem
threads 8
jobtype	sp
method PBEh-3c
basis def2-mSVP
mem_static	1024
mem_total	14000
sym_ignore	true
cis_n_roots             2
cis_singlets            true
cis_triplets		false
rpa                     false
calc_soc 		true
cis_moments             true
cis_relaxed_density	true
solvent_method		pcm
$end

$pcm
StateSpecific   1
ChargeSeparation Excited
$end

$molecule
read moms1opt_tol.mol
$end

--------------------------------------------------------------

   14   -3006.3474574421      6.48E-09 Convergence criterion met
 Total energy in the final basis set = -3006.34745744
 Total job time:  18229.22s(wall), 35557.98s(cpu)
        *  Thank you very much for using Q-Chem.  Have a nice day.  *
 Q-Chem 5.0, Q-Chem, Inc., Pleasanton, CA (2017)
 Q-Chem 5.0.1 for Intel X86 EM64T Linux

User input:
--------------------------------------------------------------
$rem
threads 8
jobtype sp
method PBEh-3c
basis def2-mSVP
mem_static      1024
mem_total       14000
sym_ignore      true
cis_n_roots             6
cis_singlets            true
cis_triplets            true
rpa                     false
calc_soc                true
cis_moments             true
cis_relaxed_density     true
solvent_method          pcm
$end

$molecule
read
$end

$pcm
statespecific           Marcus
$end

$solvent
dielectric      2.38
dielectric_infi 2.25
$end

--------------------------------------------------------------

             Standard Nuclear Orientation (Angstroms)
    I     Atom           X                Y                Z
 ----------------------------------------------------------------
    1      N       0.0000000000     0.0000000000     0.0000000000
    2      C       0.0000000000     0.0000000000     1.4029230000
    3      C       1.2025167958     0.0000000000     2.1097303404
    4      H       2.1414281875    -0.0080328706     1.5712954021
    5      C       1.1989003181     0.0098112117     3.4947658695
    6      H       2.1416543593     0.0102892178     4.0266224847
    7      C       0.0028255823     0.0001926494     4.1988835858
    8      H       0.0034763471    -0.0000985197     5.2806593508
    9      C      -1.1946001237    -0.0084636945     3.4969919629
   10      H      -2.1365325954    -0.0077857932     4.0305232280
   11      C      -1.2016032810     0.0016852555     2.1120678549
   12      H      -2.1429594302     0.0124723324     1.5773452896
   13      C      -0.9165525747    -0.7868814448    -0.7153092568
   14      C      -1.2390991499    -2.0756298538    -0.2890765913
   15      H      -0.7795391424    -2.4804407073     0.6036664713
   16      C      -2.1435850172    -2.8435973681    -1.0049469043
   17      H      -2.3815232405    -3.8410491055    -0.6579213393
   18      C      -2.7255796005    -2.3547336806    -2.1658507905
   19      H      -3.4239080255    -2.9613201035    -2.7269911101
   20      C      -2.3983681329    -1.0770580758    -2.5975945874
   21      H      -2.8479163865    -0.6771965352    -3.4976552317
   22      C      -1.5115730223    -0.2937992677    -1.8772081055
   23      H      -1.2761390161     0.7064478995    -2.2179255356
   24      C       0.9573680540     0.7597821329    -0.7021357609
   25      C       1.2150958054     2.0767422914    -0.3467175178
   26      H       0.6738633975     2.5245767895     0.4796964288
   27      C       2.1510785808     2.8274634228    -1.0476676375
   28      C       1.6481593664     0.1938548814    -1.7691812650
   29      H       1.4548625421    -0.8365820676    -2.0443356341
   30      C       2.5691998905     0.9372345871    -2.4919299360
   31      C       2.8286042597     2.2672147544    -2.1349746688
   32      C       3.2847597940     0.3137370607    -3.6586586530
   33      H       3.0050649126    -0.7312197186    -3.7895055961
   34      H       4.3692114377     0.3504116758    -3.5342793767
   35      H       3.0547463867     0.8312140605    -4.5931441558
   36      C       2.4364507717     4.2366717728    -0.5983154126
   37      H       1.5089432959     4.7124041804    -0.2700334850
   38      H       2.7983022421     4.8430275572    -1.4349588660
   39      C       3.4563095310     4.2771186437     0.5372845224
   40      H       4.4084346599     3.8473558672     0.2254985052
   41      H       3.6425333944     5.3017864570     0.8608681796
   42      H       3.1023199652     3.7118394111     1.4004346488
   43      B       3.7990304004     3.1611492006    -2.9811020555
   44      C       5.3051511077     3.2793396272    -2.6322241412
   45      C       5.8792779915     2.4008952775    -1.7115450963
   46      H       5.2653657284     1.6437863532    -1.2351782751
   47      C       7.2258734587     2.4971063172    -1.4182177447
   48      C       8.0157904590     3.5072195594    -2.0106391715
   49      C       7.4427819919     4.4082221949    -2.8924421203
   50      H       8.0408836408     5.1986583929    -3.3318987510
   51      C       6.0912031034     4.2892151366    -3.2343439075
   52      C       8.0796983682     1.6915161379    -0.5514346203
   53      C       7.8854233037     0.5938730165     0.2441386940
   54      H       6.9132201083     0.1281819766     0.3506791439
   55      C       9.3694126153     2.2415962865    -0.6515295252
   56      C      10.4821993618     1.7360442223     0.0081731687
   57      C       9.3866875155     3.3475002706    -1.5234358450
   58      C      10.5790987924     3.9826971255    -1.7440831641
   59      H      10.6599781173     4.8349531042    -2.4073303413
   60      C       8.9987206991     0.0609144544     0.9348687548
   61      H       8.8500901406    -0.8070838911     1.5639456501
   62      C      10.2590311309     0.6031612024     0.8293440663
   63      H      11.0827421143     0.1578811603     1.3735343437
   64      C      11.7018130662     2.4120263001    -0.2352240717
   65      H      12.6135113483     2.0753298177     0.2424659632
   66      C      11.7325734304     3.4950704137    -1.0836312665
   67      H      12.6758385196     3.9955814959    -1.2586091999
   68      C       3.2214120586     3.9731887853    -4.1733132405
   69      C       1.9261959447     3.7220470562    -4.6268118748
   70      H       1.3245363745     2.9536807904    -4.1545139651
   71      C       1.4143434274     4.4571378320    -5.6768492592
   72      C       3.9919982111     4.9937979724    -4.7735095445
   73      C       3.4485240552     5.7610937008    -5.8104571604
   74      H       4.0307899391     6.5662701780    -6.2452899075
   75      C       2.1727391847     5.4910140520    -6.2722266279
   76      C       0.1160569612     4.3929470316    -6.3454327817
   77      C      -1.0083773030     3.6195812263    -6.2136397288
   78      H      -1.0778048670     2.8308570336    -5.4745880358
   79      C       0.1321290855     5.3988820156    -7.3269143653
   80      C      -0.9324777064     5.6662803749    -8.1835822715
   81      C       1.3537993598     6.0984848808    -7.3278822008
   82      C       1.5133869937     7.1163093351    -8.2321826198
   83      H       2.4263100255     7.6957349128    -8.2874954103
   84      C      -0.7401200869     6.7216445642    -9.1065158453
   85      H      -1.5272455291     6.9848308458    -9.8027610668
   86      C       0.4483975294     7.4138362964    -9.1175009146
   87      H       0.5801202407     8.2185288011    -9.8290468262
   88      C      -2.1060108010     3.8669312383    -7.0724972710
   89      H      -2.9932415887     3.2559240975    -6.9677539602
   90      C      -2.0826713158     4.8543020658    -8.0300108367
   91      H      -2.9453173175     5.0107942648    -8.6664029773
   92      B       5.4320796192     5.2674678809    -4.2580169912
   93      C       6.2040744210     6.5571282353    -4.7014300526
   94      C       7.2288120621     6.5332123872    -5.6530935046
   95      C       7.9432303547     7.6935032531    -5.9289436568
   96      H       8.7428700637     7.6753431279    -6.6613872091
   97      C       7.6586558701     8.8751289466    -5.2612500019
   98      C       6.6238015883     8.9070737168    -4.3334832679
   99      H       6.4042906254     9.8312198618    -3.8113561559
  100      C       5.8900512952     7.7631547327    -4.0562230121
  101      N       8.4294434347    10.0310379637    -5.5092881430
  102      C       7.7771247780    11.2286623931    -5.8283411640
  103      C       8.2285650852    12.4517535520    -5.3317460672
  104      H       9.0983909515    12.4849478670    -4.6886701138
  105      C       7.5633625171    13.6237772677    -5.6533457027
  106      H       7.9275790389    14.5632897495    -5.2576747872
  107      C       6.4299682383    13.5999779098    -6.4538600284
  108      H       5.9095131317    14.5172697796    -6.6947499732
  109      C       5.9720541835    12.3826968347    -6.9384183936
  110      H       5.0916307679    12.3454944905    -7.5672510939
  111      C       6.6400270718    11.2072074068    -6.6385729637
  112      H       6.2793060623    10.2658778116    -7.0335753666
  113      C       9.8211471750     9.9582709251    -5.3561724306
  114      C      10.6761713545    10.6582576673    -6.2079166904
  115      H      10.2653252147    11.2741167225    -6.9977916995
  116      C      12.0492362243    10.5625233268    -6.0513098350
  117      H      12.6967337694    11.1122936818    -6.7223758161
  118      C      12.5963698521     9.7569019797    -5.0620626463
  119      H      13.6694707336     9.6788188071    -4.9497307006
  120      C      11.7473440781     9.0521955664    -4.2206847215
  121      H      12.1555848255     8.4240115796    -3.4391248032
  122      C      10.3728924223     9.1549027522    -4.3568343441
  123      H       9.7220822841     8.6075265353    -3.6867469671
  124      C       4.7833626011     7.8109644399    -3.0382672653
  125      H       4.7456885271     8.7750103219    -2.5321225403
  126      H       3.8084265124     7.6441961277    -3.5008817713
  127      H       4.9058065761     7.0444526419    -2.2684511944
  128      C       7.5308964934     5.2793711911    -6.4343968378
  129      H       8.5907022922     5.2589850365    -6.6998879358
  130      H       7.3596556279     4.3933543355    -5.8163469224
  131      C       6.6929262775     5.1686606632    -7.7072814773
  132      H       5.6285576441     5.1083650917    -7.4789256958
  133      H       6.9594120701     4.2741350251    -8.2710914488
  134      H       6.8471768038     6.0323786931    -8.3550517296
 ----------------------------------------------------------------

   14   -3006.3469271086      6.55E-09 Convergence criterion met
 Total energy in the final basis set = -3006.34692711

         TDDFT/TDA Excitation Energies
 ---------------------------------------------------

 Excited state   1: excitation energy (eV) =    2.3917
 Total energy for state  1:                 -3006.25903354 au
    Multiplicity: Triplet
    Trans. Mom.:  0.0000 X   0.0000 Y   0.0000 Z
    Strength   :     0.0000000000
    D(255) --> V(  2) amplitude = -0.2578
    D(259) --> V(  1) amplitude =  0.8895

 Excited state   2: excitation energy (eV) =    2.4925
 Total energy for state  2:                 -3006.25533088 au
    Multiplicity: Triplet
    Trans. Mom.:  0.0000 X   0.0000 Y   0.0000 Z
    Strength   :     0.0000000000
    D(258) --> V(  2) amplitude =  0.4041
    D(260) --> V(  1) amplitude =  0.6215
    D(262) --> V(  1) amplitude =  0.5564

 Excited state   3: excitation energy (eV) =    2.5515
 Total energy for state  3:                 -3006.25316139 au
    Multiplicity: Triplet
    Trans. Mom.:  0.0000 X   0.0000 Y   0.0000 Z
    Strength   :     0.0000000000
    D(258) --> V(  1) amplitude =  0.6731
    D(258) --> V(  4) amplitude = -0.2356
    D(260) --> V(  2) amplitude =  0.5377
    D(261) --> V(  1) amplitude =  0.3017

 Excited state   4: excitation energy (eV) =    2.5540
 Total energy for state  4:                 -3006.25307029 au
    Multiplicity: Singlet
    Trans. Mom.:  0.0925 X  -0.2068 Y   0.2077 Z
    Strength   :     0.0059107867
    D(262) --> V(  1) amplitude =  0.9667

 Excited state   5: excitation energy (eV) =    2.5560
 Total energy for state  5:                 -3006.25299690 au
    Multiplicity: Triplet
    Trans. Mom.:  0.0000 X   0.0000 Y   0.0000 Z
    Strength   :     0.0000000000
    D(258) --> V(  2) amplitude = -0.3068
    D(260) --> V(  1) amplitude = -0.4339
    D(262) --> V(  1) amplitude =  0.7583

 Excited state   6: excitation energy (eV) =    2.6314
 Total energy for state  6:                 -3006.25022513 au
    Multiplicity: Triplet
    Trans. Mom.:  0.0000 X   0.0000 Y   0.0000 Z
    Strength   :     0.0000000000
    D(258) --> V(  1) amplitude = -0.2187
    D(261) --> V(  1) amplitude =  0.8776

 Excited state   7: excitation energy (eV) =    2.6466
 Total energy for state  7:                 -3006.24966565 au
    Multiplicity: Singlet
    Trans. Mom.: -0.2111 X  -0.5142 Y   0.1805 Z
    Strength   :     0.0221477484
    D(261) --> V(  1) amplitude =  0.9682

 Excited state   8: excitation energy (eV) =    2.8055
 Total energy for state  8:                 -3006.24382743 au
    Multiplicity: Triplet
    Trans. Mom.:  0.0000 X   0.0000 Y   0.0000 Z
    Strength   :     0.0000000000
    D(255) --> V(  1) amplitude = -0.6334
    D(259) --> V(  2) amplitude =  0.5646

 Excited state   9: excitation energy (eV) =    3.0660
 Total energy for state  9:                 -3006.23425256 au
    Multiplicity: Singlet
    Trans. Mom.:  0.0940 X  -0.0220 Y   0.0750 Z
    Strength   :     0.0011220958
    D(259) --> V(  1) amplitude =  0.9588

 Excited state  10: excitation energy (eV) =    3.2583
 Total energy for state 10:                 -3006.22718780 au
    Multiplicity: Singlet
    Trans. Mom.:  3.1092 X  -1.0630 Y   2.2223 Z
    Strength   :     1.2561274049
    D(258) --> V(  2) amplitude =  0.2167
    D(260) --> V(  1) amplitude =  0.9456

 Excited state  11: excitation energy (eV) =    3.5343
 Total energy for state 11:                 -3006.21704305 au
    Multiplicity: Singlet
    Trans. Mom.:  0.0868 X  -0.2912 Y  -0.3038 Z
    Strength   :     0.0159829583
    D(258) --> V(  1) amplitude =  0.9164
    D(260) --> V(  2) amplitude =  0.2451

 Excited state  12: excitation energy (eV) =    3.6422
 Total energy for state 12:                 -3006.21307703 au
    Multiplicity: Singlet
    Trans. Mom.:  0.1789 X   0.2491 Y  -0.1228 Z
    Strength   :     0.0097382245
    D(262) --> V(  2) amplitude =  0.9818

 ---------------------------------------------------

                    Orbital Energies (a.u.)
 --------------------------------------------------------------

 Alpha MOs
 -- Occupied --
-14.670 -14.669 -10.492 -10.492 -10.491 -10.491 -10.485 -10.485
-10.467 -10.467 -10.467 -10.467 -10.466 -10.466 -10.466 -10.466
-10.466 -10.465 -10.464 -10.464 -10.463 -10.463 -10.463 -10.463
-10.463 -10.462 -10.460 -10.460 -10.460 -10.460 -10.458 -10.457
-10.457 -10.456 -10.455 -10.455 -10.454 -10.452 -10.449 -10.449
-10.448 -10.448 -10.448 -10.448 -10.448 -10.447 -10.447 -10.447
-10.445 -10.444 -10.444 -10.444 -10.444 -10.444 -10.444 -10.444
-10.442 -10.442 -10.441 -10.441 -10.439 -10.439 -10.439 -10.437
-10.437 -10.437 -10.437 -10.437 -10.437 -10.436 -10.429 -10.428
-10.426 -10.423 -10.423 -10.420  -6.954  -6.951  -1.081  -1.080
 -1.019  -1.019  -0.967  -0.963  -0.962  -0.961  -0.961  -0.960
 -0.941  -0.940  -0.935  -0.935  -0.912  -0.904  -0.886  -0.885
 -0.866  -0.862  -0.857  -0.855  -0.852  -0.850  -0.849  -0.848
 -0.839  -0.838  -0.837  -0.837  -0.825  -0.818  -0.816  -0.815
 -0.814  -0.808  -0.794  -0.793  -0.768  -0.767  -0.738  -0.732
 -0.728  -0.723  -0.715  -0.713  -0.708  -0.707  -0.702  -0.699
 -0.691  -0.683  -0.681  -0.680  -0.680  -0.675  -0.668  -0.668
 -0.652  -0.650  -0.642  -0.641  -0.638  -0.636  -0.607  -0.606
 -0.597  -0.597  -0.593  -0.590  -0.588  -0.587  -0.585  -0.577
 -0.576  -0.563  -0.561  -0.555  -0.554  -0.546  -0.545  -0.543
 -0.542  -0.540  -0.530  -0.526  -0.521  -0.521  -0.518  -0.512
 -0.510  -0.510  -0.505  -0.502  -0.501  -0.498  -0.497  -0.496
 -0.496  -0.495  -0.494  -0.490  -0.488  -0.488  -0.486  -0.484
 -0.483  -0.482  -0.481  -0.480  -0.480  -0.479  -0.477  -0.475
 -0.471  -0.469  -0.468  -0.464  -0.459  -0.454  -0.451  -0.447
 -0.444  -0.443  -0.441  -0.440  -0.435  -0.432  -0.430  -0.428
 -0.428  -0.427  -0.426  -0.423  -0.421  -0.421  -0.419  -0.413
 -0.411  -0.411  -0.405  -0.404  -0.401  -0.400  -0.399  -0.398
 -0.397  -0.397  -0.396  -0.395  -0.394  -0.393  -0.391  -0.389
 -0.383  -0.380  -0.377  -0.371  -0.360  -0.359  -0.355  -0.354
 -0.348  -0.343  -0.322  -0.317  -0.304  -0.303  -0.301  -0.300
 -0.298  -0.297  -0.296  -0.295  -0.287  -0.285  -0.283  -0.278
 -0.277  -0.264  -0.261  -0.258  -0.223  -0.221

          Ground-State Mulliken Net Atomic Charges

     Atom                 Charge (a.u.)
  ----------------------------------------
      1 N                    -0.673510
      2 C                     0.300081
      3 C                    -0.293130
      4 H                     0.253856
      5 C                    -0.232286
      6 H                     0.238438
      7 C                    -0.257987
      8 H                     0.236001
      9 C                    -0.232279
     10 H                     0.239178
     11 C                    -0.292849
     12 H                     0.256553
     13 C                     0.294690
     14 C                    -0.292087
     15 H                     0.256557
     16 C                    -0.232489
     17 H                     0.239426
     18 C                    -0.257429
     19 H                     0.236304
     20 C                    -0.231258
     21 H                     0.236759
     22 C                    -0.288663
     23 H                     0.252325
     24 C                     0.297640
     25 C                    -0.361475
     26 H                     0.242978
     27 C                     0.058571
     28 C                    -0.360871
     29 H                     0.244540
     30 C                     0.063832
     31 C                    -0.217639
     32 C                    -0.765362
     33 H                     0.249414
     34 H                     0.244707
     35 H                     0.246333
     36 C                    -0.555605
     37 H                     0.243624
     38 H                     0.255355
     39 C                    -0.652342
     40 H                     0.238314
     41 H                     0.224483
     42 H                     0.223441
     43 B                     0.663467
     44 C                    -0.145969
     45 C                    -0.397692
     46 H                     0.243714
     47 C                     0.078456
     48 C                     0.099484
     49 C                    -0.395511
     50 H                     0.241279
     51 C                    -0.150270
     52 C                     0.182761
     53 C                    -0.386868
     54 H                     0.241462
     55 C                    -0.064247
     56 C                     0.233947
     57 C                     0.183607
     58 C                    -0.391505
     59 H                     0.241044
     60 C                    -0.224961
     61 H                     0.248037
     62 C                    -0.343868
     63 H                     0.243642
     64 C                    -0.346802
     65 H                     0.243865
     66 C                    -0.222989
     67 H                     0.247047
     68 C                    -0.149353
     69 C                    -0.385778
     70 H                     0.243350
     71 C                     0.079093
     72 C                    -0.152442
     73 C                    -0.406776
     74 H                     0.244856
     75 C                     0.093601
     76 C                     0.184784
     77 C                    -0.387175
     78 H                     0.240250
     79 C                    -0.064821
     80 C                     0.230180
     81 C                     0.187279
     82 C                    -0.394895
     83 H                     0.240472
     84 C                    -0.345054
     85 H                     0.244124
     86 C                    -0.222347
     87 H                     0.247351
     88 C                    -0.224237
     89 H                     0.247607
     90 C                    -0.342550
     91 H                     0.243897
     92 B                     0.674842
     93 C                    -0.203937
     94 C                     0.075364
     95 C                    -0.343573
     96 H                     0.238731
     97 C                     0.274285
     98 C                    -0.353840
     99 H                     0.242788
    100 C                     0.033258
    101 N                    -0.672848
    102 C                     0.310334
    103 C                    -0.299476
    104 H                     0.257298
    105 C                    -0.232566
    106 H                     0.238977
    107 C                    -0.259789
    108 H                     0.235512
    109 C                    -0.230773
    110 H                     0.237528
    111 C                    -0.296401
    112 H                     0.252554
    113 C                     0.307745
    114 C                    -0.294056
    115 H                     0.257184
    116 C                    -0.233165
    117 H                     0.239102
    118 C                    -0.259201
    119 H                     0.235476
    120 C                    -0.231677
    121 H                     0.236355
    122 C                    -0.297714
    123 H                     0.254994
    124 C                    -0.771834
    125 H                     0.252339
    126 H                     0.251320
    127 H                     0.250109
    128 C                    -0.545024
    129 H                     0.239781
    130 H                     0.249628
    131 C                    -0.652042
    132 H                     0.235238
    133 H                     0.227255
    134 H                     0.221237
  ----------------------------------------
  Sum of atomic charges =    -0.000000

                    Cartesian Multipole Moments
 -----------------------------------------------------------------
    Charge (ESU x 10^10)
                -0.0000
    Dipole Moment (Debye)
         X      -0.0769      Y      -0.9351      Z      -0.3747
       Tot       1.0103
    Quadrupole Moments (Debye-Ang)
        XX    -391.9544     XY      -6.7302     YY    -434.0509
        XZ      25.4053     YZ     -20.5338     ZZ    -416.7055

 Total job time:  25796.48s(wall), 73131.72s(cpu)
        *  Thank you very much for using Q-Chem.  Have a nice day.  *
