 Q-Chem 5.0, Q-Chem, Inc., Pleasanton, CA (2017)
 Q-Chem 5.0.1 for Intel X86 EM64T Linux

User input:
--------------------------------------------------------------
$solvent
dielectric      2.03
dielectric_infi 2.02
$end

$rem
threads 8
jobtype	sp
method PBEh-3c
basis def2-mSVP
mem_static	1024
mem_total	14000
sym_ignore	true
cis_n_roots             2
cis_singlets            true
cis_triplets		false
rpa                     false
calc_soc 		true
cis_moments             true
cis_relaxed_density	true
solvent_method		pcm
$end

$pcm
StateSpecific   1
ChargeSeparation Excited
$end

$molecule
read moms1opt_chx.mol
$end

--------------------------------------------------------------

   14   -3006.3362044112      8.73E-09 Convergence criterion met
 Total energy in the final basis set = -3006.33620441
 Q-Chem 5.0, Q-Chem, Inc., Pleasanton, CA (2017)
 Q-Chem 5.0.1 for Intel X86 EM64T Linux

User input:
--------------------------------------------------------------
$rem
threads 8
jobtype sp
method PBEh-3c
basis def2-mSVP
mem_static      1024
mem_total       14000
sym_ignore      true
cis_n_roots             6
cis_singlets            true
cis_triplets            true
rpa                     false
calc_soc                true
cis_moments             true
cis_relaxed_density     true
solvent_method          pcm
$end

$molecule
read
$end

$pcm
statespecific           Marcus
$end

$solvent
dielectric      2.03
dielectric_infi 2.02
$end

--------------------------------------------------------------

             Standard Nuclear Orientation (Angstroms)
    I     Atom           X                Y                Z
 ----------------------------------------------------------------
    1      N       0.0000000000     0.0000000000     0.0000000000
    2      C       0.0000000000     0.0000000000     1.3643930000
    3      C       1.2143860224     0.0000000000     2.0844248247
    4      H       2.1552375358    -0.0053211115     1.5485770509
    5      C       1.2075061937    -0.0970562747     3.4539868684
    6      C      -1.2264421413    -0.0344538373     2.0647023824
    7      H      -2.1566326045     0.0280139716     1.5146489334
    8      C      -1.2424547143    -0.1240469743     3.4321229125
    9      C       1.0792088112     0.5268710177    -0.7444533546
   10      C       1.5783822454    -0.1967189403    -1.8246415828
   11      H       1.1623157474    -1.1650530843    -2.0704330683
   12      C       2.6213715527     0.3251828367    -2.5675804106
   13      H       3.0179380565    -0.2399291849    -3.4000789273
   14      C       3.1619151563     1.5626812312    -2.2421393093
   15      H       3.9765492202     1.9671343787    -2.8275040501
   16      C       2.6537347064     2.2829363020    -1.1698682473
   17      H       3.0626972225     3.2532773321    -0.9238011374
   18      C       1.6088262188     1.7729845795    -0.4182881289
   19      H       1.1929947769     2.3447011448     0.4014021022
   20      C      -1.0770564081    -0.5708191235    -0.7205313027
   21      C      -1.6416406686     0.1273019178    -1.7845414173
   22      H      -1.2726200553     1.1094068272    -2.0507890904
   23      C      -2.6919305931    -0.4381056493    -2.4860059182
   24      H      -3.1414420053     0.1077044715    -3.3044300001
   25      C      -3.1735977141    -1.6933922300    -2.1376230883
   26      H      -3.9951525799    -2.1299603222    -2.6894838172
   27      C      -2.5976252831    -2.3899088629    -1.0844133575
   28      H      -2.9604502578    -3.3733025530    -0.8178579599
   29      C      -1.5466849912    -1.8358582245    -0.3741075438
   30      H      -1.0855336502    -2.3881703932     0.4349294307
   31      C      -0.0217820233    -0.2027802375     4.1587286602
   32      C      -2.5474607228    -0.1757982985     4.1647622599
   33      H      -3.3943690018    -0.1049776993     3.4831757213
   34      H      -2.6233159318     0.6313008135     4.8938891284
   35      H      -2.6358505158    -1.1083572351     4.7251877262
   36      C       2.5125135566    -0.1162701919     4.1958731255
   37      H       2.4512362464    -0.8143374853     5.0326444419
   38      H       3.3026077187    -0.4829723114     3.5365292640
   39      C       2.8800315588     1.2735881626     4.7119337908
   40      H       2.1341190385     1.6422697675     5.4151038019
   41      H       3.8378057441     1.2473374760     5.2309099443
   42      H       2.9591962678     1.9891863660     3.8922650825
   43      B      -0.0591683370    -0.5829706555     5.6909192499
   44      C      -0.2548578482     0.4549463495     6.7880689695
   45      C      -0.4263670182     1.8212942565     6.4796701751
   46      H      -0.3945601390     2.1450894206     5.4426327470
   47      C      -0.6481909822     2.7392119856     7.4729370751
   48      C      -0.6943021392     2.3244093691     8.8363092832
   49      C      -0.5120540544     0.9985679500     9.1569060595
   50      H      -0.5459066878     0.6809609973    10.1938363141
   51      C      -0.3006485735     0.0326720959     8.1515417011
   52      C      -0.8965052793     4.1757243186     7.4231492612
   53      C      -0.9903258725     5.1082933561     6.4216287175
   54      H      -0.8545101373     4.8435899031     5.3798179992
   55      C      -1.0914084544     4.5893578442     8.7549428329
   56      C      -1.3843193802     5.8964764844     9.1282778510
   57      C      -0.9774261194     3.5036644140     9.6494711891
   58      C      -1.1633014651     3.7456922424    10.9865022241
   59      H      -1.0955049850     2.9551632147    11.7235236259
   60      C      -1.2797830190     6.4460482028     6.7725001346
   61      H      -1.3556246588     7.1836109564     5.9833615410
   62      C      -1.4733963541     6.8417426530     8.0766766886
   63      H      -1.6982393285     7.8780511136     8.2974567389
   64      C      -1.4580728661     5.0665516633    11.3979097100
   65      H      -1.6053682111     5.2550471054    12.4537057949
   66      C      -1.5688239987     6.1166411680    10.5149396962
   67      H      -1.8011523784     7.1091480799    10.8808616421
   68      C       0.0463467911    -2.0703502366     6.0250309735
   69      C       0.1637780317    -3.0383546786     5.0058403061
   70      H       0.1837275050    -2.7333357784     3.9638289168
   71      C       0.2481860266    -4.3691301980     5.3137361546
   72      C       0.2303166571    -4.8029419439     6.6730395608
   73      C       0.1187635746    -3.8732997182     7.6801196228
   74      H       0.0997085945    -4.1924992289     8.7174165992
   75      C       0.0153806227    -2.4972712766     7.3865208741
   76      C       0.3561157192    -5.5472049160     4.4581419163
   77      C       0.4113921142    -5.7673447087     3.1035124640
   78      H       0.3822379262    -4.9512081670     2.3913087485
   79      C       0.4004594668    -6.6584639489     5.3215977275
   80      C       0.4968190703    -7.9792205767     4.8849932194
   81      C       0.3292265746    -6.2637843045     6.6745004493
   82      C       0.3582840927    -7.2492704209     7.6310164254
   83      H       0.3067542635    -7.0203488403     8.6879586696
   84      C       0.5095087806    -7.0971217492     2.6334439102
   85      H       0.5528006734    -7.2683824747     1.5649181077
   86      C       0.5519634806    -8.1780731242     3.4839851823
   87      H       0.6270826453    -9.1812923475     3.0815525008
   88      C       0.4574309032    -8.5991748546     7.2176328662
   89      H       0.4796676798    -9.3689083593     7.9787736341
   90      C       0.5255302779    -8.9709826808     5.8948042626
   91      H       0.5997201954   -10.0182048872     5.6272046199
   92      B      -0.1491700991    -1.4607865574     8.5089025091
   93      C      -0.1514333039    -1.9029932736    10.0255082308
   94      C      -1.3442106242    -2.0692060659    10.7399980221
   95      C      -1.3098502498    -2.3754151705    12.0961462431
   96      H      -2.2366703780    -2.4941671855    12.6476532323
   97      C      -0.1010060065    -2.5050300584    12.7614535322
   98      C       1.0870913473    -2.3652329498    12.0552687391
   99      H       2.0326854732    -2.4706721895    12.5751828603
  100      C       1.0685139339    -2.0761506662    10.6971464190
  101      N      -0.0810362702    -2.7581648127    14.1539851975
  102      C       0.6241085813    -3.8692426679    14.6273993325
  103      C       1.3297948613    -3.8207034787    15.8310437951
  104      H       1.3346872026    -2.9105658883    16.4168083743
  105      C       2.0323309693    -4.9282331956    16.2761824639
  106      H       2.5739604098    -4.8680182552    17.2116661574
  107      C       2.0664444903    -6.0959276677    15.5270064050
  108      H       2.6244362901    -6.9553027966    15.8741056008
  109      C       1.3775397268    -6.1420989571    14.3231800514
  110      H       1.3907601677    -7.0442139620    13.7246900914
  111      C       0.6562524912    -5.0473082919    13.8776930491
  112      H       0.1169063278    -5.1031908744    12.9408329558
  113      C      -0.7625295440    -1.8814289721    15.0051392038
  114      C      -1.4052179089    -2.3416149836    16.1562906999
  115      H      -1.3764342158    -3.3943964688    16.4063796040
  116      C      -2.0910627359    -1.4607122811    16.9760935289
  117      H      -2.5836955382    -1.8407994468    17.8620807526
  118      C      -2.1715716950    -0.1118190977    16.6602611649
  119      H      -2.7172809830     0.5708084174    17.2978188760
  120      C      -1.5446305541     0.3459285010    15.5099721303
  121      H      -1.5941730369     1.3946831194    15.2455436857
  122      C      -0.8403330378    -0.5220283631    14.6931413789
  123      H      -0.3523222607    -0.1458151682    13.8034076409
  124      C       2.3638404247    -1.9184701336     9.9498982527
  125      H       3.2248317064    -2.0016942487    10.6131991208
  126      H       2.4673044247    -2.6784817277     9.1729152194
  127      H       2.4195395147    -0.9500393220     9.4484167290
  128      C      -2.6816853610    -1.9691968152    10.0506269130
  129      H      -2.6382840613    -1.2246287607     9.2519824796
  130      H      -3.4336352230    -1.6125936886    10.7596261322
  131      C      -3.1362243076    -3.3044564507     9.4644129907
  132      H      -2.4335067105    -3.6620424762     8.7120300048
  133      H      -3.2157488874    -4.0690680611    10.2386223394
  134      H      -4.1126948554    -3.2085834009     8.9870789850
 ----------------------------------------------------------------

   14   -3006.3361524907      8.74E-09 Convergence criterion met
 Total energy in the final basis set = -3006.33615249

         TDDFT/TDA Excitation Energies
 ---------------------------------------------------

 Excited state   1: excitation energy (eV) =    2.0715
 Total energy for state  1:                 -3006.26002648 au
    Multiplicity: Triplet
    Trans. Mom.:  0.0000 X   0.0000 Y   0.0000 Z
    Strength   :     0.0000000000
    D(262) --> V(  1) amplitude =  0.9671

 Excited state   2: excitation energy (eV) =    2.0968
 Total energy for state  2:                 -3006.25909696 au
    Multiplicity: Singlet
    Trans. Mom.: -0.0209 X  -0.0381 Y   0.2693 Z
    Strength   :     0.0038224405
    D(262) --> V(  1) amplitude =  0.9728

 Excited state   3: excitation energy (eV) =    2.2192
 Total energy for state  3:                 -3006.25460003 au
    Multiplicity: Triplet
    Trans. Mom.:  0.0000 X   0.0000 Y   0.0000 Z
    Strength   :     0.0000000000
    D(259) --> V(  1) amplitude =  0.9121

 Excited state   4: excitation energy (eV) =    2.4307
 Total energy for state  4:                 -3006.24682602 au
    Multiplicity: Triplet
    Trans. Mom.:  0.0000 X   0.0000 Y   0.0000 Z
    Strength   :     0.0000000000
    D(258) --> V(  2) amplitude = -0.4760
    D(260) --> V(  1) amplitude =  0.7989

 Excited state   5: excitation energy (eV) =    2.4802
 Total energy for state  5:                 -3006.24500780 au
    Multiplicity: Triplet
    Trans. Mom.:  0.0000 X   0.0000 Y   0.0000 Z
    Strength   :     0.0000000000
    D(258) --> V(  1) amplitude =  0.6092
    D(260) --> V(  2) amplitude = -0.4416
    D(261) --> V(  1) amplitude =  0.5611

 Excited state   6: excitation energy (eV) =    2.5171
 Total energy for state  6:                 -3006.24364935 au
    Multiplicity: Triplet
    Trans. Mom.:  0.0000 X   0.0000 Y   0.0000 Z
    Strength   :     0.0000000000
    D(258) --> V(  1) amplitude = -0.4212
    D(260) --> V(  2) amplitude =  0.3244
    D(261) --> V(  1) amplitude =  0.7824

 Excited state   7: excitation energy (eV) =    2.5250
 Total energy for state  7:                 -3006.24336190 au
    Multiplicity: Singlet
    Trans. Mom.:  0.0165 X  -0.1085 Y   0.4186 Z
    Strength   :     0.0115845789
    D(261) --> V(  1) amplitude =  0.9744

 Excited state   8: excitation energy (eV) =    2.7286
 Total energy for state  8:                 -3006.23587753 au
    Multiplicity: Triplet
    Trans. Mom.:  0.0000 X   0.0000 Y   0.0000 Z
    Strength   :     0.0000000000
    D(253) --> V(  1) amplitude =  0.3490
    D(254) --> V(  1) amplitude = -0.5156
    D(255) --> V(  1) amplitude = -0.3177
    D(259) --> V(  2) amplitude =  0.5533

 Excited state   9: excitation energy (eV) =    2.8857
 Total energy for state  9:                 -3006.23010480 au
    Multiplicity: Singlet
    Trans. Mom.: -0.0140 X   0.0608 Y   0.0169 Z
    Strength   :     0.0002953141
    D(259) --> V(  1) amplitude =  0.9606

 Excited state  10: excitation energy (eV) =    3.1311
 Total energy for state 10:                 -3006.22108623 au
    Multiplicity: Singlet
    Trans. Mom.:  0.5147 X  -3.8282 Y  -1.1688 Z
    Strength   :     1.2493485094
    D(260) --> V(  1) amplitude =  0.9489

 Excited state  11: excitation energy (eV) =    3.3628
 Total energy for state 11:                 -3006.21257193 au
    Multiplicity: Singlet
    Trans. Mom.: -0.0212 X  -0.0180 Y  -0.0136 Z
    Strength   :     0.0000788440
    D(262) --> V(  2) amplitude =  0.9914

 Excited state  12: excitation energy (eV) =    3.4320
 Total energy for state 12:                 -3006.21003016 au
    Multiplicity: Singlet
    Trans. Mom.:  0.1602 X  -0.0533 Y  -0.1008 Z
    Strength   :     0.0032500957
    D(258) --> V(  1) amplitude =  0.9339

 ---------------------------------------------------

                    Orbital Energies (a.u.)
 --------------------------------------------------------------

 Alpha MOs
 -- Occupied --
-14.670 -14.670 -10.492 -10.492 -10.491 -10.491 -10.486 -10.483
-10.467 -10.466 -10.466 -10.466 -10.466 -10.466 -10.466 -10.465
-10.465 -10.464 -10.464 -10.463 -10.463 -10.463 -10.463 -10.463
-10.462 -10.462 -10.460 -10.460 -10.460 -10.459 -10.457 -10.456
-10.456 -10.455 -10.453 -10.452 -10.450 -10.450 -10.450 -10.450
-10.450 -10.450 -10.449 -10.449 -10.448 -10.448 -10.447 -10.447
-10.447 -10.447 -10.447 -10.447 -10.446 -10.445 -10.443 -10.443
-10.443 -10.443 -10.440 -10.440 -10.438 -10.438 -10.438 -10.437
-10.435 -10.435 -10.435 -10.432 -10.430 -10.430 -10.427 -10.426
-10.424 -10.420 -10.418 -10.416  -6.949  -6.942  -1.086  -1.080
 -1.017  -1.017  -0.964  -0.964  -0.961  -0.960  -0.959  -0.958
 -0.939  -0.939  -0.935  -0.934  -0.909  -0.900  -0.884  -0.883
 -0.865  -0.860  -0.857  -0.855  -0.852  -0.851  -0.848  -0.847
 -0.842  -0.841  -0.838  -0.835  -0.825  -0.816  -0.815  -0.814
 -0.813  -0.805  -0.793  -0.789  -0.767  -0.762  -0.737  -0.732
 -0.728  -0.722  -0.713  -0.713  -0.709  -0.707  -0.701  -0.697
 -0.690  -0.686  -0.683  -0.681  -0.678  -0.677  -0.669  -0.668
 -0.649  -0.647  -0.640  -0.639  -0.636  -0.633  -0.606  -0.604
 -0.597  -0.595  -0.592  -0.590  -0.586  -0.586  -0.584  -0.577
 -0.577  -0.562  -0.561  -0.554  -0.553  -0.545  -0.544  -0.542
 -0.540  -0.537  -0.528  -0.525  -0.525  -0.520  -0.518  -0.514
 -0.509  -0.509  -0.505  -0.502  -0.501  -0.498  -0.496  -0.496
 -0.495  -0.493  -0.491  -0.489  -0.488  -0.487  -0.486  -0.486
 -0.484  -0.483  -0.482  -0.480  -0.479  -0.477  -0.476  -0.472
 -0.469  -0.467  -0.466  -0.462  -0.457  -0.455  -0.448  -0.444
 -0.443  -0.441  -0.441  -0.438  -0.433  -0.430  -0.430  -0.428
 -0.427  -0.425  -0.425  -0.422  -0.420  -0.420  -0.418  -0.414
 -0.412  -0.410  -0.406  -0.402  -0.401  -0.400  -0.399  -0.398
 -0.397  -0.396  -0.395  -0.394  -0.393  -0.392  -0.390  -0.386
 -0.381  -0.378  -0.373  -0.366  -0.361  -0.357  -0.355  -0.351
 -0.346  -0.337  -0.322  -0.316  -0.309  -0.302  -0.301  -0.299
 -0.298  -0.297  -0.296  -0.294  -0.286  -0.283  -0.282  -0.276
 -0.276  -0.263  -0.258  -0.257  -0.222  -0.214

          Ground-State Mulliken Net Atomic Charges

     Atom                 Charge (a.u.)
  ----------------------------------------
      1 N                    -0.659132
      2 C                     0.328930
      3 C                    -0.395323
      4 H                     0.247440
      5 C                     0.088826
      6 C                    -0.397900
      7 H                     0.250080
      8 C                     0.066933
      9 C                     0.272723
     10 C                    -0.280085
     11 H                     0.254745
     12 C                    -0.232739
     13 H                     0.238514
     14 C                    -0.250386
     15 H                     0.234746
     16 C                    -0.234344
     17 H                     0.238492
     18 C                    -0.273638
     19 H                     0.258354
     20 C                     0.254300
     21 C                    -0.272692
     22 H                     0.254465
     23 C                    -0.234076
     24 H                     0.239119
     25 C                    -0.248542
     26 H                     0.235508
     27 C                    -0.234305
     28 H                     0.238988
     29 C                    -0.264266
     30 H                     0.255547
     31 C                    -0.246541
     32 C                    -0.766670
     33 H                     0.245385
     34 H                     0.246402
     35 H                     0.246813
     36 C                    -0.544890
     37 H                     0.250450
     38 H                     0.236451
     39 C                    -0.653287
     40 H                     0.239282
     41 H                     0.222867
     42 H                     0.219704
     43 B                     0.641367
     44 C                    -0.136699
     45 C                    -0.404423
     46 H                     0.244511
     47 C                     0.088857
     48 C                     0.105937
     49 C                    -0.394557
     50 H                     0.238691
     51 C                    -0.155500
     52 C                     0.184987
     53 C                    -0.385220
     54 H                     0.239253
     55 C                    -0.065867
     56 C                     0.235900
     57 C                     0.184721
     58 C                    -0.387650
     59 H                     0.237589
     60 C                    -0.221544
     61 H                     0.245155
     62 C                    -0.341759
     63 H                     0.240956
     64 C                    -0.219981
     65 H                     0.244055
     66 C                    -0.343840
     67 H                     0.241324
     68 C                    -0.145694
     69 C                    -0.382491
     70 H                     0.244178
     71 C                     0.090281
     72 C                     0.100611
     73 C                    -0.408489
     74 H                     0.244307
     75 C                    -0.146959
     76 C                     0.188157
     77 C                    -0.385985
     78 H                     0.238500
     79 C                    -0.067474
     80 C                     0.232141
     81 C                     0.188456
     82 C                    -0.392133
     83 H                     0.237850
     84 C                    -0.221325
     85 H                     0.244835
     86 C                    -0.340158
     87 H                     0.241028
     88 C                    -0.219235
     89 H                     0.244333
     90 C                    -0.342468
     91 H                     0.241454
     92 B                     0.671518
     93 C                    -0.211694
     94 C                     0.063879
     95 C                    -0.339492
     96 H                     0.237459
     97 C                     0.264101
     98 C                    -0.345752
     99 H                     0.239969
    100 C                     0.040858
    101 N                    -0.674181
    102 C                     0.314434
    103 C                    -0.298555
    104 H                     0.256873
    105 C                    -0.229581
    106 H                     0.235999
    107 C                    -0.258045
    108 H                     0.232592
    109 C                    -0.227724
    110 H                     0.234053
    111 C                    -0.298095
    112 H                     0.251638
    113 C                     0.315203
    114 C                    -0.299193
    115 H                     0.257018
    116 C                    -0.229378
    117 H                     0.235900
    118 C                    -0.258912
    119 H                     0.232163
    120 C                    -0.226966
    121 H                     0.231855
    122 C                    -0.298706
    123 H                     0.252687
    124 C                    -0.768904
    125 H                     0.248423
    126 H                     0.248732
    127 H                     0.249084
    128 C                    -0.548526
    129 H                     0.252070
    130 H                     0.239125
    131 C                    -0.652865
    132 H                     0.239696
    133 H                     0.219848
    134 H                     0.225165
  ----------------------------------------
  Sum of atomic charges =    -0.000000

                    Cartesian Multipole Moments
 -----------------------------------------------------------------
    Charge (ESU x 10^10)
                -0.0000
    Dipole Moment (Debye)
         X      -0.4959      Y       0.0886      Z      -2.0597
       Tot       2.1204
    Quadrupole Moments (Debye-Ang)
        XX    -446.3625     XY      -7.3705     YY    -377.3306
        XZ      -7.0190     YZ      13.2531     ZZ    -432.6367

 Total job time:  26777.19s(wall), 77268.12s(cpu)
        *  Thank you very much for using Q-Chem.  Have a nice day.  *
