 Q-Chem 5.0, Q-Chem, Inc., Pleasanton, CA (2017)
 Q-Chem 5.0.1 for Intel X86 EM64T Linux

User input:
--------------------------------------------------------------
$solvent
dielectric      4.33
dielectric_infi 1.83
$end

$rem
threads 8
jobtype	sp
method PBEh-3c
basis def2-mSVP
mem_static	1024
mem_total	14000
sym_ignore	true
cis_n_roots             2
cis_singlets            true
cis_triplets		false
rpa                     false
calc_soc 		true
cis_moments             true
cis_relaxed_density	true
solvent_method		pcm
$end

$pcm
StateSpecific   1
ChargeSeparation Excited
$end

$molecule
read moms1opt_eth.mol
$end

--------------------------------------------------------------

   14   -3006.3500297618      7.88E-09 Convergence criterion met
 Total energy in the final basis set = -3006.35002976
 Q-Chem 5.0, Q-Chem, Inc., Pleasanton, CA (2017)
 Q-Chem 5.0.1 for Intel X86 EM64T Linux

User input:
--------------------------------------------------------------
$rem
threads 8
jobtype sp
method PBEh-3c
basis def2-mSVP
mem_static      1024
mem_total       14000
sym_ignore      true
cis_n_roots             6
cis_singlets            true
cis_triplets            true
rpa                     false
calc_soc                true
cis_moments             true
cis_relaxed_density     true
solvent_method          pcm
$end

$molecule
read
$end

$pcm
statespecific           Marcus
$end

$solvent
dielectric      4.33
dielectric_infi 1.83
$end

--------------------------------------------------------------

             Standard Nuclear Orientation (Angstroms)
    I     Atom           X                Y                Z
 ----------------------------------------------------------------
    1      N       0.0000000000     0.0000000000     0.0000000000
    2      C       0.0000000000     0.0000000000     1.3702570000
    3      C       1.2154266173     0.0000000000     2.0809099038
    4      H       2.1528557863    -0.0319069976     1.5392231073
    5      C       1.2137841520    -0.0495748531     3.4560175870
    6      C       1.0424673663     0.6120575188    -0.7244983742
    7      C       1.4976283678     1.8738825405    -0.3438968492
    8      H       1.0428236281     2.3877204278     0.4930314294
    9      C       2.5129328967     2.4743581059    -1.0666028056
   10      H       2.8613882936     3.4572372102    -0.7805052467
   11      C       3.0690314094     1.8267661117    -2.1623838821
   12      H       3.8620700293     2.3005963544    -2.7249905189
   13      C       2.6044526472     0.5726417316    -2.5409846405
   14      H       3.0406463348     0.0648544981    -3.3904733723
   15      C       1.5890986889    -0.0393057054    -1.8296290990
   16      H       1.2368492964    -1.0223758636    -2.1141178037
   17      C      -1.2227329591    -0.0186273190     2.0718954054
   18      H      -2.1557422416     0.0285305080     1.5244688351
   19      C      -1.2308112456    -0.0491186203     3.4445360211
   20      C      -1.0461767603    -0.6180550249    -0.7168042083
   21      C      -1.6193878873     0.0346469248    -1.8071693292
   22      H      -1.2799876301     1.0207717997    -2.0963470697
   23      C      -2.6491177371    -0.5783462903    -2.4979691474
   24      H      -3.1065733376    -0.0685734534    -3.3350194469
   25      C      -3.1030661278    -1.8346169172    -2.1141605446
   26      H      -3.9090137240    -2.3076040659    -2.6590950684
   27      C      -2.5201382065    -2.4845133064    -1.0342257841
   28      H      -2.8605797381    -3.4685144594    -0.7417650279
   29      C      -1.4898748297    -1.8834213598    -0.3331072960
   30      H      -1.0190684107    -2.3993820834     0.4938291284
   31      C      -0.0096427409    -0.0851049894     4.1674862971
   32      C      -2.5346286370    -0.0567620249     4.1835221380
   33      H      -3.3834558825    -0.0111464221     3.5022322210
   34      H      -2.6028775154     0.7858997275     4.8725717801
   35      H      -2.6310780420    -0.9612122527     4.7868736100
   36      C       2.5287315441    -0.0606242502     4.1836600867
   37      H       2.4346327637    -0.6225500516     5.1145747312
   38      H       3.2751430720    -0.5799310443     3.5779919133
   39      C       3.0131049465     1.3561897201     4.4846917324
   40      H       2.3093297178     1.8832399085     5.1284050194
   41      H       3.9762030645     1.3329426430     4.9943065935
   42      H       3.1307496425     1.9336657912     3.5664586713
   43      B      -0.0436334446    -0.2694194495     5.7365381810
   44      C      -0.1327026122     0.9277706912     6.6774937864
   45      C      -0.2204667759     2.2421959474     6.1722396268
   46      H      -0.2127981551     2.4056080291     5.0981280927
   47      C      -0.3250878831     3.3127736975     7.0223547997
   48      C      -0.3369055960     3.1108353643     8.4345254741
   49      C      -0.2453597928     1.8361902957     8.9458290352
   50      H      -0.2581816058     1.6805248209    10.0196681807
   51      C      -0.1523497352     0.7174656905     8.0908474648
   52      C      -0.4567325887     4.7415868296     6.7630842242
   53      C      -0.5204794531     5.5191400153     5.6340264310
   54      H      -0.4604841186     5.0904883544     4.6407358243
   55      C      -0.5474384783     5.3651351418     8.0228096918
   56      C      -0.7055555752     6.7355430778     8.2022109123
   57      C      -0.4790579614     4.4191028544     9.0684197408
   58      C      -0.5702630570     4.8746941004    10.3594259671
   59      H      -0.5283500825     4.2013316462    11.2066336124
   60      C      -0.6748630113     6.9156667620     5.7870532209
   61      H      -0.7265694536     7.5311770091     4.8976660454
   62      C      -0.7660984505     7.5181447792     7.0220653592
   63      H      -0.8877319583     8.5923313012     7.0900716025
   64      C      -0.7284221948     6.2642343812    10.5741215325
   65      H      -0.8010728464     6.6212646656    11.5935630599
   66      C      -0.7958653969     7.1768555971     9.5450641670
   67      H      -0.9211778521     8.2303294326     9.7630587236
   68      C      -0.0318335325    -1.6944937015     6.2891134659
   69      C      -0.0189665503    -2.8061801507     5.4216852358
   70      H      -0.0062352190    -2.6554509710     4.3464755240
   71      C      -0.0306063201    -4.0812657687     5.9221513884
   72      C      -0.0425852139    -4.3079462163     7.3316963161
   73      C      -0.0489530012    -3.2356192458     8.1923639756
   74      H      -0.0611124893    -3.4002859299     9.2652195377
   75      C      -0.0525241459    -1.9127343239     7.7001120906
   76      C      -0.0414312942    -5.3776605317     5.2501396434
   77      C      -0.0433581498    -5.7991306336     3.9423716117
   78      H      -0.0305961777    -5.0984724804     3.1161667290
   79      C      -0.0598773641    -6.3496044742     6.2693097308
   80      C      -0.0807120103    -7.7241215282     6.0337932065
   81      C      -0.0600014415    -5.7559444083     7.5495086259
   82      C      -0.0813150527    -6.5880250465     8.6427548029
   83      H      -0.0839775313    -6.2020276749     9.6544110111
   84      C      -0.0636122325    -7.1879912639     3.6753206101
   85      H      -0.0654421909    -7.5171241705     2.6435908922
   86      C      -0.0817437780    -8.1320934098     4.6770797500
   87      H      -0.0977019875    -9.1865617502     4.4282897743
   88      C      -0.1014410571    -7.9880338427     8.4342713203
   89      H      -0.1184060467    -8.6362855314     9.3013510941
   90      C      -0.1013255091    -8.5551401167     7.1801224283
   91      H      -0.1183107575    -9.6328836364     7.0702574544
   92      B      -0.0995097138    -0.7147065489     8.6612570655
   93      C      -0.0876037836    -0.9327710921    10.2265769355
   94      C      -1.2680463198    -0.8974021345    10.9794083401
   95      C      -1.2192593984    -1.0156018560    12.3646649428
   96      H      -2.1369892342    -0.9806591056    12.9427288698
   97      C      -0.0059481158    -1.1542972468    13.0201645021
   98      C       1.1685752707    -1.2120522950    12.2799449405
   99      H       2.1181050946    -1.3234459319    12.7916041595
  100      C       1.1336091132    -1.1132399798    10.8948332066
  101      N       0.0346139922    -1.2203657386    14.4334998061
  102      C      -0.5478729466    -0.1854967968    15.1732765481
  103      C      -1.1805322189    -0.4341638641    16.3935724141
  104      H      -1.2229527448    -1.4423095717    16.7856471424
  105      C      -1.7661122445     0.6011573814    17.1039985988
  106      H      -2.2523303847     0.3837813205    18.0466546932
  107      C      -1.7554154827     1.8982244056    16.6094457510
  108      H      -2.2229136939     2.7018420436    17.1626734135
  109      C      -1.1389132206     2.1459623484    15.3906028871
  110      H      -1.1178730194     3.1503861967    14.9868076439
  111      C      -0.5337340954     1.1221085982    14.6810262668
  112      H      -0.0515733771     1.3377318453    13.7362786049
  113      C       0.6637616344    -2.3145943221    15.0379236160
  114      C       1.4202872096    -2.1631951815    16.2015310141
  115      H       1.5260447465    -1.1853861323    16.6535828387
  116      C       2.0457133815    -3.2570598239    16.7777072042
  117      H       2.6286223660    -3.1171195201    17.6792623384
  118      C       1.9508353214    -4.5154051396    16.1990205455
  119      H       2.4487462142    -5.3650135790    16.6471361784
  120      C       1.2111271861    -4.6660021331    15.0339828888
  121      H       1.1237211826    -5.6396188049    14.5684650385
  122      C       0.5658976394    -3.5827368200    14.4603569031
  123      H      -0.0150963956    -3.7203617773    13.5572777926
  124      C       2.4154079050    -1.1768535766    10.1109013918
  125      H       3.2862096295    -1.2253701197    10.7647617309
  126      H       2.4372035898    -2.0546517542     9.4618521336
  127      H       2.5315157885    -0.3063610609     9.4619748762
  128      C      -2.6143257852    -0.7874741978    10.3085766550
  129      H      -2.5326034658    -0.1941806439     9.3948527380
  130      H      -3.3071546311    -0.2505019496    10.9619385212
  131      C      -3.2043444763    -2.1543673765     9.9663231609
  132      H      -2.5613355910    -2.6960191049     9.2724247744
  133      H      -3.3225048737    -2.7675034399    10.8609755662
  134      H      -4.1847574223    -2.0505542895     9.4989936685
 ----------------------------------------------------------------

   14   -3006.3424702532      9.01E-09 Convergence criterion met
 Total energy in the final basis set = -3006.34247025

         TDDFT/TDA Excitation Energies
 ---------------------------------------------------

 Excited state   1: excitation energy (eV) =    1.7105
 Total energy for state  1:                 -3006.27961181 au
    Multiplicity: Triplet
    Trans. Mom.:  0.0000 X   0.0000 Y   0.0000 Z
    Strength   :     0.0000000000
    D(262) --> V(  1) amplitude =  0.9730

 Excited state   2: excitation energy (eV) =    1.7267
 Total energy for state  2:                 -3006.27901512 au
    Multiplicity: Singlet
    Trans. Mom.: -0.0027 X   0.0203 Y   0.0734 Z
    Strength   :     0.0002456796
    D(262) --> V(  1) amplitude =  0.9764

 Excited state   3: excitation energy (eV) =    2.2416
 Total energy for state  3:                 -3006.26009454 au
    Multiplicity: Triplet
    Trans. Mom.:  0.0000 X   0.0000 Y   0.0000 Z
    Strength   :     0.0000000000
    D(252) --> V(  2) amplitude =  0.2223
    D(259) --> V(  1) amplitude =  0.9166

 Excited state   4: excitation energy (eV) =    2.4311
 Total energy for state  4:                 -3006.25312785 au
    Multiplicity: Triplet
    Trans. Mom.:  0.0000 X   0.0000 Y   0.0000 Z
    Strength   :     0.0000000000
    D(257) --> V(  2) amplitude = -0.4721
    D(260) --> V(  1) amplitude =  0.8042

 Excited state   5: excitation energy (eV) =    2.4844
 Total energy for state  5:                 -3006.25116949 au
    Multiplicity: Triplet
    Trans. Mom.:  0.0000 X   0.0000 Y   0.0000 Z
    Strength   :     0.0000000000
    D(257) --> V(  1) amplitude =  0.6735
    D(260) --> V(  2) amplitude = -0.4983
    D(261) --> V(  1) amplitude =  0.4011

 Excited state   6: excitation energy (eV) =    2.5319
 Total energy for state  6:                 -3006.24942554 au
    Multiplicity: Triplet
    Trans. Mom.:  0.0000 X   0.0000 Y   0.0000 Z
    Strength   :     0.0000000000
    D(257) --> V(  1) amplitude = -0.2945
    D(260) --> V(  2) amplitude =  0.2281
    D(261) --> V(  1) amplitude =  0.8753

 Excited state   7: excitation energy (eV) =    2.5446
 Total energy for state  7:                 -3006.24895662 au
    Multiplicity: Singlet
    Trans. Mom.:  0.0211 X  -0.0431 Y   0.4227 Z
    Strength   :     0.0112816313
    D(261) --> V(  1) amplitude =  0.9747

 Excited state   8: excitation energy (eV) =    2.7437
 Total energy for state  8:                 -3006.24164175 au
    Multiplicity: Triplet
    Trans. Mom.:  0.0000 X   0.0000 Y   0.0000 Z
    Strength   :     0.0000000000
    D(251) --> V(  1) amplitude = -0.2860
    D(252) --> V(  1) amplitude = -0.6293
    D(259) --> V(  2) amplitude = -0.5538

 Excited state   9: excitation energy (eV) =    2.9122
 Total energy for state  9:                 -3006.23544940 au
    Multiplicity: Singlet
    Trans. Mom.: -0.0059 X   0.0971 Y   0.0129 Z
    Strength   :     0.0006873532
    D(259) --> V(  1) amplitude =  0.9653

 Excited state  10: excitation energy (eV) =    2.9559
 Total energy for state 10:                 -3006.23384176 au
    Multiplicity: Singlet
    Trans. Mom.:  0.0202 X   0.0368 Y   0.0250 Z
    Strength   :     0.0001727126
    D(262) --> V(  2) amplitude =  0.9942

 Excited state  11: excitation energy (eV) =    3.1391
 Total energy for state 11:                 -3006.22711054 au
    Multiplicity: Singlet
    Trans. Mom.: -0.1667 X   3.9186 Y   0.5925 Z
    Strength   :     1.2100487212
    D(260) --> V(  1) amplitude =  0.9559

 Excited state  12: excitation energy (eV) =    3.3234
 Total energy for state 12:                 -3006.22033919 au
    Multiplicity: Singlet
    Trans. Mom.:  0.0020 X   0.2396 Y  -0.0124 Z
    Strength   :     0.0046858073
    D(258) --> V(  1) amplitude = -0.9391

 ---------------------------------------------------

                    Orbital Energies (a.u.)
 --------------------------------------------------------------

 Alpha MOs
 -- Occupied --
-14.678 -14.659 -10.499 -10.499 -10.492 -10.479 -10.479 -10.478
-10.475 -10.475 -10.473 -10.473 -10.473 -10.473 -10.473 -10.472
-10.472 -10.471 -10.471 -10.471 -10.469 -10.469 -10.469 -10.469
-10.469 -10.468 -10.466 -10.466 -10.465 -10.465 -10.465 -10.464
-10.464 -10.462 -10.461 -10.460 -10.457 -10.457 -10.453 -10.453
-10.453 -10.453 -10.450 -10.450 -10.450 -10.450 -10.447 -10.447
-10.446 -10.446 -10.446 -10.445 -10.445 -10.443 -10.443 -10.443
-10.442 -10.437 -10.437 -10.436 -10.436 -10.435 -10.435 -10.435
-10.434 -10.434 -10.434 -10.432 -10.432 -10.430 -10.429 -10.424
-10.423 -10.422 -10.417 -10.413  -6.958  -6.947  -1.088  -1.075
 -1.025  -1.024  -0.972  -0.968  -0.967  -0.966  -0.950  -0.950
 -0.946  -0.941  -0.940  -0.930  -0.916  -0.907  -0.893  -0.879
 -0.872  -0.864  -0.864  -0.858  -0.854  -0.853  -0.851  -0.845
 -0.842  -0.840  -0.832  -0.829  -0.828  -0.823  -0.821  -0.819
 -0.812  -0.807  -0.801  -0.781  -0.775  -0.758  -0.743  -0.738
 -0.734  -0.728  -0.721  -0.714  -0.708  -0.708  -0.700  -0.696
 -0.688  -0.687  -0.687  -0.685  -0.676  -0.674  -0.672  -0.665
 -0.655  -0.653  -0.648  -0.643  -0.630  -0.626  -0.613  -0.603
 -0.600  -0.598  -0.595  -0.594  -0.594  -0.590  -0.583  -0.583
 -0.577  -0.568  -0.562  -0.553  -0.551  -0.549  -0.549  -0.544
 -0.539  -0.534  -0.530  -0.529  -0.526  -0.521  -0.516  -0.515
 -0.514  -0.511  -0.508  -0.503  -0.503  -0.502  -0.501  -0.500
 -0.496  -0.495  -0.494  -0.492  -0.490  -0.490  -0.488  -0.486
 -0.485  -0.485  -0.484  -0.482  -0.479  -0.476  -0.473  -0.472
 -0.472  -0.471  -0.468  -0.465  -0.461  -0.455  -0.452  -0.451
 -0.450  -0.447  -0.443  -0.439  -0.438  -0.435  -0.434  -0.432
 -0.429  -0.427  -0.426  -0.421  -0.418  -0.418  -0.416  -0.413
 -0.409  -0.407  -0.407  -0.404  -0.404  -0.403  -0.402  -0.401
 -0.401  -0.400  -0.399  -0.398  -0.395  -0.389  -0.388  -0.387
 -0.387  -0.384  -0.378  -0.366  -0.366  -0.362  -0.360  -0.359
 -0.342  -0.340  -0.329  -0.324  -0.309  -0.307  -0.304  -0.303
 -0.302  -0.295  -0.293  -0.291  -0.289  -0.286  -0.285  -0.274
 -0.270  -0.269  -0.266  -0.264  -0.230  -0.205

          Ground-State Mulliken Net Atomic Charges

     Atom                 Charge (a.u.)
  ----------------------------------------
      1 N                    -0.657828
      2 C                     0.326245
      3 C                    -0.383989
      4 H                     0.256886
      5 C                     0.080382
      6 C                     0.270643
      7 C                    -0.276327
      8 H                     0.263856
      9 C                    -0.240649
     10 H                     0.243645
     11 C                    -0.258165
     12 H                     0.240575
     13 C                    -0.239791
     14 H                     0.245205
     15 C                    -0.284369
     16 H                     0.262817
     17 C                    -0.391758
     18 H                     0.260104
     19 C                     0.065926
     20 C                     0.264964
     21 C                    -0.280866
     22 H                     0.263272
     23 C                    -0.240356
     24 H                     0.245575
     25 C                    -0.257415
     26 H                     0.240816
     27 C                    -0.239997
     28 H                     0.242813
     29 C                    -0.273392
     30 H                     0.261277
     31 C                    -0.251404
     32 C                    -0.771674
     33 H                     0.256704
     34 H                     0.240284
     35 H                     0.240303
     36 C                    -0.545982
     37 H                     0.240235
     38 H                     0.245841
     39 C                    -0.656505
     40 H                     0.229745
     41 H                     0.223163
     42 H                     0.229650
     43 B                     0.647562
     44 C                    -0.142816
     45 C                    -0.403117
     46 H                     0.261128
     47 C                     0.081269
     48 C                     0.097708
     49 C                    -0.401314
     50 H                     0.241737
     51 C                    -0.156375
     52 C                     0.176974
     53 C                    -0.388824
     54 H                     0.256006
     55 C                    -0.067524
     56 C                     0.223616
     57 C                     0.176704
     58 C                    -0.394026
     59 H                     0.247853
     60 C                    -0.231906
     61 H                     0.258950
     62 C                    -0.346465
     63 H                     0.253654
     64 C                    -0.230427
     65 H                     0.255430
     66 C                    -0.348997
     67 H                     0.253859
     68 C                    -0.150875
     69 C                    -0.390089
     70 H                     0.259973
     71 C                     0.082040
     72 C                     0.091392
     73 C                    -0.409932
     74 H                     0.246306
     75 C                    -0.149549
     76 C                     0.180151
     77 C                    -0.389881
     78 H                     0.256908
     79 C                    -0.068806
     80 C                     0.219591
     81 C                     0.180062
     82 C                    -0.397484
     83 H                     0.247610
     84 C                    -0.231528
     85 H                     0.259365
     86 C                    -0.345201
     87 H                     0.253951
     88 C                    -0.229891
     89 H                     0.255609
     90 C                    -0.347274
     91 H                     0.254021
     92 B                     0.658273
     93 C                    -0.210137
     94 C                     0.056796
     95 C                    -0.343295
     96 H                     0.243759
     97 C                     0.266115
     98 C                    -0.352052
     99 H                     0.246439
    100 C                     0.034963
    101 N                    -0.673529
    102 C                     0.315165
    103 C                    -0.305540
    104 H                     0.262438
    105 C                    -0.237988
    106 H                     0.246916
    107 C                    -0.268755
    108 H                     0.243063
    109 C                    -0.236232
    110 H                     0.243219
    111 C                    -0.306770
    112 H                     0.256455
    113 C                     0.311110
    114 C                    -0.302561
    115 H                     0.262113
    116 C                    -0.238644
    117 H                     0.247262
    118 C                    -0.266855
    119 H                     0.243830
    120 C                    -0.237045
    121 H                     0.245079
    122 C                    -0.304391
    123 H                     0.255548
    124 C                    -0.770906
    125 H                     0.254866
    126 H                     0.248117
    127 H                     0.248393
    128 C                    -0.548654
    129 H                     0.250175
    130 H                     0.243816
    131 C                    -0.656696
    132 H                     0.234647
    133 H                     0.223224
    134 H                     0.230679
  ----------------------------------------
  Sum of atomic charges =    -0.000000

                    Cartesian Multipole Moments
 -----------------------------------------------------------------
    Charge (ESU x 10^10)
                -0.0000
    Dipole Moment (Debye)
         X      -0.4490      Y       0.0790      Z      -3.3120
       Tot       3.3432
    Quadrupole Moments (Debye-Ang)
        XX    -447.7739     XY      -2.0488     YY    -364.9645
        XZ      -3.6572     YZ       6.6725     ZZ    -440.7315

 Total job time:  27080.92s(wall), 78721.13s(cpu)
        *  Thank you very much for using Q-Chem.  Have a nice day.  *
