 Q-Chem 5.0, Q-Chem, Inc., Pleasanton, CA (2017)
 Q-Chem 5.0.1 for Intel X86 EM64T Linux

User input:
--------------------------------------------------------------
$solvent
dielectric      1.0001
dielectric_infi 1.00009
$end

$rem
threads 8
jobtype	sp
method PBEh-3c
basis def2-mSVP
mem_static	1024
mem_total	14000
sym_ignore	true
cis_n_roots             2
cis_singlets            true
cis_triplets		false
rpa                     false
calc_soc 		true
cis_moments             true
cis_relaxed_density	true
solvent_method		pcm
$end

$pcm
StateSpecific   1
ChargeSeparation Excited
$end

$molecule
read moms1opt_vac.mol
$end

--------------------------------------------------------------

   15   -3006.3147495691      7.00E-09 Convergence criterion met
 Total energy in the final basis set = -3006.31474957
 Q-Chem 5.0, Q-Chem, Inc., Pleasanton, CA (2017)
 Q-Chem 5.0.1 for Intel X86 EM64T Linux

User input:
--------------------------------------------------------------
$rem
threads 8
jobtype sp
method PBEh-3c
basis def2-mSVP
mem_static      1024
mem_total       14000
sym_ignore      true
cis_n_roots             6
cis_singlets            true
cis_triplets            true
rpa                     false
calc_soc                true
cis_moments             true
cis_relaxed_density     true
solvent_method          pcm
$end

$molecule
read
$end

$pcm
statespecific           Marcus
$end

$solvent
dielectric      1.0001
dielectric_infi 1.00009
$end

--------------------------------------------------------------

             Standard Nuclear Orientation (Angstroms)
    I     Atom           X                Y                Z
 ----------------------------------------------------------------
    1      N       0.0000000000     0.0000000000     0.0000000000
    2      C       0.0000000000     0.0000000000     1.3631140000
    3      C       1.2157161553     0.0000000000     2.0837886671
    4      H       2.1550972234    -0.0003451577     1.5456950774
    5      C       1.2112596066    -0.1086685746     3.4502773558
    6      C      -1.2275561457    -0.0343661308     2.0638873823
    7      H      -2.1568667414     0.0286981420     1.5124833289
    8      C      -1.2446539731    -0.1296338419     3.4289452282
    9      C       1.0849506195     0.5178740376    -0.7454451233
   10      C       1.5947982417    -0.2171304826    -1.8115568419
   11      H       1.1815738502    -1.1889922564    -2.0479797525
   12      C       2.6402390605     0.2990110483    -2.5555127672
   13      H       3.0434742527    -0.2753864205    -3.3783475641
   14      C       3.1748159318     1.5417406886    -2.2437663141
   15      H       3.9920099961     1.9408430431    -2.8290026002
   16      C       2.6573877217     2.2732273937    -1.1844523129
   17      H       3.0625081235     3.2472629151    -0.9469829601
   18      C       1.6083537709     1.7694298019    -0.4343706753
   19      H       1.1869261922     2.3479460030     0.3776375463
   20      C      -1.0811258391    -0.5632883763    -0.7229311328
   21      C      -1.6483349314     0.1430290214    -1.7788572923
   22      H      -1.2768299812     1.1259657363    -2.0381523061
   23      C      -2.7000341575    -0.4152676374    -2.4841989789
   24      H      -3.1496974301     0.1377460333    -3.2976158631
   25      C      -3.1830263906    -1.6719427658    -2.1458543523
   26      H      -4.0063625965    -2.1027750154    -2.6993089890
   27      C      -2.6057732513    -2.3768972689    -1.0997624494
   28      H      -2.9699787160    -3.3613029759    -0.8390640344
   29      C      -1.5517158192    -1.8303178811    -0.3880720944
   30      H      -1.0922616602    -2.3881909292     0.4181476569
   31      C      -0.0213732149    -0.2255184672     4.1560780497
   32      C      -2.5455496207    -0.1829212548     4.1658119947
   33      H      -3.3957338711    -0.0911110543     3.4907013265
   34      H      -2.6079269020     0.6082596056     4.9133413028
   35      H      -2.6351265516    -1.1257930831     4.7086014375
   36      C       2.5123181871    -0.1492074966     4.1956954708
   37      H       2.4555529823    -0.9020272006     4.9841892634
   38      H       3.3117639624    -0.4595380412     3.5186592698
   39      C       2.8543859647     1.2084403169     4.8069840960
   40      H       2.1029057175     1.5154526202     5.5329157264
   41      H       3.8112510555     1.1595947849     5.3257252606
   42      H       2.9262270836     1.9811835811     4.0403655089
   43      B      -0.0607692304    -0.6545151328     5.6722077211
   44      C      -0.2671632824     0.3430600431     6.8020852785
   45      C      -0.4460545095     1.7198355848     6.5463769485
   46      H      -0.4117732556     2.0852285047     5.5229166234
   47      C      -0.6782865810     2.5957194746     7.5737894669
   48      C      -0.7263037742     2.1270147230     8.9185152827
   49      C      -0.5337519388     0.7914227476     9.1875013726
   50      H      -0.5665987180     0.4322133809    10.2105935696
   51      C      -0.3133834199    -0.1324215665     8.1466460724
   52      C      -0.9386736356     4.0314434977     7.5803481991
   53      C      -1.0367117562     5.0021375838     6.6172972133
   54      H      -0.8933406055     4.7806963292     5.5664813965
   55      C      -1.1437720880     4.3893585333     8.9261335627
   56      C      -1.4519589347     5.6767882751     9.3501075585
   57      C      -1.0242093058     3.2697801225     9.7764113927
   58      C      -1.2210487184     3.4553467992    11.1200954962
   59      H      -1.1512740190     2.6355422894    11.8241248480
   60      C      -1.3409175239     6.3215451125     7.0195638220
   61      H      -1.4201121114     7.0896169390     6.2605382662
   62      C      -1.5451294706     6.6619309901     8.3369778701
   63      H      -1.7817160253     7.6861843198     8.5977348552
   64      C      -1.5310377436     4.7550921928    11.5830253942
   65      H      -1.6871128986     4.8990832875    12.6444460332
   66      C      -1.6466915656     5.8384040020    10.7430471600
   67      H      -1.8911696960     6.8127588999    11.1474958008
   68      C       0.0448886052    -2.1531318889     5.9436334796
   69      C       0.1611209493    -3.0822631843     4.8882133680
   70      H       0.1837054124    -2.7400790354     3.8575329711
   71      C       0.2401256537    -4.4229656473     5.1451189770
   72      C       0.2204229702    -4.9085288220     6.4859357681
   73      C       0.1122001099    -4.0173584177     7.5277316561
   74      H       0.0935384317    -4.3732672754     8.5530331314
   75      C       0.0112132273    -2.6318911433     7.2869378407
   76      C       0.3425212204    -5.5672891273     4.2442899569
   77      C       0.3967763231    -5.7347209695     2.8827959424
   78      H       0.3736567766    -4.8905630586     2.2035757106
   79      C       0.3812745200    -6.7110745404     5.0634820725
   80      C       0.4702889509    -8.0138536555     4.5757372572
   81      C       0.3128867902    -6.3684030951     6.4304310460
   82      C       0.3381189286    -7.3904263691     7.3470221549
   83      H       0.2887427088    -7.2023986362     8.4119585788
   84      C       0.4872921024    -7.0449010980     2.3608382571
   85      H       0.5302065818    -7.1752421630     1.2865438967
   86      C       0.5235440509    -8.1576433008     3.1685715459
   87      H       0.5930091658    -9.1446328509     2.7270563892
   88      C       0.4301887702    -8.7233722546     6.8815596583
   89      H       0.4494883206    -9.5221196577     7.6121433118
   90      C       0.4948208805    -9.0438927439     5.5459803620
   91      H       0.5634781451   -10.0802768088     5.2381435993
   92      B      -0.1525777254    -1.6381086868     8.4474751339
   93      C      -0.1367145605    -2.1269554865     9.9480776983
   94      C      -1.3189216277    -2.3117976150    10.6746589045
   95      C      -1.2640365266    -2.6365161220    12.0253157255
   96      H      -2.1813799475    -2.7648203632    12.5900176085
   97      C      -0.0454505069    -2.7668865067    12.6720870650
   98      C       1.1319083862    -2.6148696720    11.9513088431
   99      H       2.0843699856    -2.7225533090    12.4576327095
  100      C       1.0932940934    -2.3062061456    10.5985527292
  101      N      -0.0056743715    -3.0245408749    14.0631741073
  102      C       0.7213427077    -4.1269015146    14.5227839279
  103      C       1.4573302582    -4.0703037289    15.7072114766
  104      H       1.4685943824    -3.1590356269    16.2908291457
  105      C       2.1814212022    -5.1705504104    16.1343168661
  106      H       2.7467847781    -5.1044766076    17.0551233800
  107      C       2.2070958986    -6.3380497456    15.3857836296
  108      H       2.7819247829    -7.1916445941    15.7189580153
  109      C       1.4879257125    -6.3919181858    14.2006983438
  110      H       1.4945961499    -7.2944314568    13.6029084191
  111      C       0.7455086638    -5.3049861934    13.7733391603
  112      H       0.1834114649    -5.3638504756    12.8502840225
  113      C      -0.6527192715    -2.1348364632    14.9269924855
  114      C      -1.2538065068    -2.5786433070    16.1065462177
  115      H      -1.2183685061    -3.6285982868    16.3669776684
  116      C      -1.9042147123    -1.6853786365    16.9406238598
  117      H      -2.3645509681    -2.0527337900    17.8489577087
  118      C      -1.9908682232    -0.3402914706    16.6128111133
  119      H      -2.5090060965     0.3519921325    17.2625819786
  120      C      -1.4059970225     0.1009096390    15.4350130613
  121      H      -1.4606795051     1.1468656887    15.1608675408
  122      C      -0.7369944559    -0.7790525957    14.6025026038
  123      H      -0.2805337781    -0.4161358240    13.6909468399
  124      C       2.3762573945    -2.1267794694     9.8353589025
  125      H       3.2476589874    -2.2250241482    10.4827522505
  126      H       2.4691485008    -2.8657283457     9.0371995996
  127      H       2.4220241569    -1.1449102596     9.3595271789
  128      C      -2.6651582572    -2.2069336377    10.0035577913
  129      H      -2.6379227288    -1.4422014483     9.2233160715
  130      H      -3.4114776564    -1.8737827788    10.7297126533
  131      C      -3.1148199982    -3.5316026125     9.3906076912
  132      H      -2.4220558775    -3.8613943623     8.6167630908
  133      H      -3.1712091754    -4.3165015734    10.1460711635
  134      H      -4.1008609463    -3.4357173689     8.9334280731
 ----------------------------------------------------------------

   15   -3006.3147478707      7.00E-09 Convergence criterion met
 Total energy in the final basis set = -3006.31474787

         TDDFT/TDA Excitation Energies
 ---------------------------------------------------

 Excited state   1: excitation energy (eV) =    2.0390
 Total energy for state  1:                 -3006.23981527 au
    Multiplicity: Triplet
    Trans. Mom.:  0.0000 X   0.0000 Y   0.0000 Z
    Strength   :     0.0000000000
    D(262) --> V(  1) amplitude =  0.9666

 Excited state   2: excitation energy (eV) =    2.0671
 Total energy for state  2:                 -3006.23878289 au
    Multiplicity: Singlet
    Trans. Mom.: -0.0230 X  -0.0524 Y   0.2781 Z
    Strength   :     0.0040827552
    D(262) --> V(  1) amplitude =  0.9725

 Excited state   3: excitation energy (eV) =    2.2082
 Total energy for state  3:                 -3006.23359701 au
    Multiplicity: Triplet
    Trans. Mom.:  0.0000 X   0.0000 Y   0.0000 Z
    Strength   :     0.0000000000
    D(259) --> V(  1) amplitude =  0.7743
    D(260) --> V(  1) amplitude = -0.4970

 Excited state   4: excitation energy (eV) =    2.4358
 Total energy for state  4:                 -3006.22523368 au
    Multiplicity: Triplet
    Trans. Mom.:  0.0000 X   0.0000 Y   0.0000 Z
    Strength   :     0.0000000000
    D(258) --> V(  2) amplitude = -0.4795
    D(259) --> V(  1) amplitude =  0.4378
    D(260) --> V(  1) amplitude =  0.6715

 Excited state   5: excitation energy (eV) =    2.4720
 Total energy for state  5:                 -3006.22390386 au
    Multiplicity: Triplet
    Trans. Mom.:  0.0000 X   0.0000 Y   0.0000 Z
    Strength   :     0.0000000000
    D(258) --> V(  1) amplitude =  0.4341
    D(260) --> V(  2) amplitude = -0.2585
    D(261) --> V(  1) amplitude =  0.7883

 Excited state   6: excitation energy (eV) =    2.5045
 Total energy for state  6:                 -3006.22270828 au
    Multiplicity: Singlet
    Trans. Mom.:  0.0201 X  -0.1175 Y   0.3880 Z
    Strength   :     0.0101085767
    D(261) --> V(  1) amplitude =  0.9757

 Excited state   7: excitation energy (eV) =    2.5074
 Total energy for state  7:                 -3006.22260407 au
    Multiplicity: Triplet
    Trans. Mom.:  0.0000 X   0.0000 Y   0.0000 Z
    Strength   :     0.0000000000
    D(258) --> V(  1) amplitude = -0.5944
    D(260) --> V(  2) amplitude =  0.4121
    D(261) --> V(  1) amplitude =  0.5533

 Excited state   8: excitation energy (eV) =    2.7165
 Total energy for state  8:                 -3006.21491845 au
    Multiplicity: Triplet
    Trans. Mom.:  0.0000 X   0.0000 Y   0.0000 Z
    Strength   :     0.0000000000
    D(253) --> V(  1) amplitude = -0.4199
    D(254) --> V(  1) amplitude =  0.4630
    D(255) --> V(  1) amplitude =  0.3131
    D(259) --> V(  2) amplitude = -0.4911
    D(260) --> V(  2) amplitude =  0.2710

 Excited state   9: excitation energy (eV) =    2.8883
 Total energy for state  9:                 -3006.20860341 au
    Multiplicity: Singlet
    Trans. Mom.: -0.0154 X   0.0811 Y   0.0240 Z
    Strength   :     0.0005234089
    D(259) --> V(  1) amplitude =  0.8225
    D(260) --> V(  1) amplitude = -0.5087

 Excited state  10: excitation energy (eV) =    3.2139
 Total energy for state 10:                 -3006.19664062 au
    Multiplicity: Singlet
    Trans. Mom.:  0.4456 X  -3.1999 Y  -1.1156 Z
    Strength   :     0.9198796588
    D(259) --> V(  1) amplitude =  0.4994
    D(260) --> V(  1) amplitude =  0.8074

 Excited state  11: excitation energy (eV) =    3.3235
 Total energy for state 11:                 -3006.19261247 au
    Multiplicity: Singlet
    Trans. Mom.: -0.0174 X  -0.0082 Y  -0.0108 Z
    Strength   :     0.0000394316
    D(262) --> V(  2) amplitude =  0.9911

 Excited state  12: excitation energy (eV) =    3.6422
 Total energy for state 12:                 -3006.18090132 au
    Multiplicity: Singlet
    Trans. Mom.:  0.0153 X   0.0720 Y  -0.0167 Z
    Strength   :     0.0005079340
    D(261) --> V(  2) amplitude =  0.9904

 ---------------------------------------------------

                    Orbital Energies (a.u.)
 --------------------------------------------------------------

 Alpha MOs
 -- Occupied --
-14.668 -14.666 -10.491 -10.490 -10.488 -10.487 -10.483 -10.480
-10.466 -10.466 -10.465 -10.465 -10.465 -10.465 -10.464 -10.464
-10.463 -10.463 -10.463 -10.463 -10.463 -10.462 -10.462 -10.462
-10.461 -10.461 -10.460 -10.460 -10.460 -10.460 -10.454 -10.454
-10.453 -10.453 -10.451 -10.451 -10.451 -10.450 -10.450 -10.450
-10.449 -10.448 -10.448 -10.447 -10.447 -10.447 -10.447 -10.446
-10.445 -10.445 -10.444 -10.444 -10.444 -10.444 -10.440 -10.440
-10.440 -10.440 -10.438 -10.438 -10.436 -10.435 -10.435 -10.434
-10.434 -10.432 -10.432 -10.430 -10.427 -10.427 -10.427 -10.423
-10.422 -10.420 -10.416 -10.413  -6.947  -6.938  -1.084  -1.077
 -1.016  -1.015  -0.963  -0.962  -0.959  -0.958  -0.956  -0.956
 -0.937  -0.936  -0.934  -0.933  -0.908  -0.899  -0.882  -0.880
 -0.862  -0.858  -0.855  -0.853  -0.851  -0.848  -0.848  -0.847
 -0.842  -0.841  -0.835  -0.833  -0.823  -0.815  -0.813  -0.812
 -0.811  -0.804  -0.791  -0.786  -0.765  -0.760  -0.736  -0.731
 -0.727  -0.721  -0.712  -0.712  -0.707  -0.705  -0.698  -0.696
 -0.690  -0.686  -0.682  -0.680  -0.676  -0.675  -0.667  -0.666
 -0.648  -0.645  -0.639  -0.638  -0.634  -0.631  -0.604  -0.604
 -0.597  -0.594  -0.593  -0.590  -0.584  -0.584  -0.583  -0.576
 -0.576  -0.562  -0.560  -0.553  -0.552  -0.545  -0.543  -0.540
 -0.539  -0.536  -0.528  -0.525  -0.524  -0.517  -0.516  -0.514
 -0.508  -0.507  -0.504  -0.503  -0.500  -0.497  -0.495  -0.494
 -0.494  -0.492  -0.490  -0.489  -0.488  -0.486  -0.484  -0.484
 -0.483  -0.482  -0.481  -0.479  -0.478  -0.476  -0.475  -0.471
 -0.468  -0.467  -0.466  -0.460  -0.456  -0.454  -0.447  -0.444
 -0.442  -0.441  -0.440  -0.436  -0.431  -0.429  -0.429  -0.427
 -0.425  -0.423  -0.423  -0.422  -0.419  -0.418  -0.416  -0.414
 -0.411  -0.409  -0.405  -0.402  -0.400  -0.399  -0.398  -0.397
 -0.395  -0.395  -0.395  -0.394  -0.392  -0.391  -0.388  -0.385
 -0.379  -0.377  -0.371  -0.364  -0.358  -0.355  -0.352  -0.349
 -0.344  -0.334  -0.319  -0.314  -0.307  -0.300  -0.298  -0.296
 -0.296  -0.296  -0.295  -0.291  -0.283  -0.281  -0.280  -0.274
 -0.273  -0.261  -0.255  -0.255  -0.219  -0.211

          Ground-State Mulliken Net Atomic Charges

     Atom                 Charge (a.u.)
  ----------------------------------------
      1 N                    -0.661712
      2 C                     0.330084
      3 C                    -0.390846
      4 H                     0.239595
      5 C                     0.101639
      6 C                    -0.388935
      7 H                     0.241324
      8 C                     0.074429
      9 C                     0.272266
     10 C                    -0.266940
     11 H                     0.242616
     12 C                    -0.216944
     13 H                     0.221726
     14 C                    -0.233179
     15 H                     0.218780
     16 C                    -0.218776
     17 H                     0.221726
     18 C                    -0.262583
     19 H                     0.247856
     20 C                     0.255181
     21 C                    -0.260087
     22 H                     0.242803
     23 C                    -0.218158
     24 H                     0.222534
     25 C                    -0.231968
     26 H                     0.219532
     27 C                    -0.218740
     28 H                     0.222588
     29 C                    -0.252763
     30 H                     0.241755
     31 C                    -0.248833
     32 C                    -0.758231
     33 H                     0.236339
     34 H                     0.244328
     35 H                     0.244530
     36 C                    -0.542625
     37 H                     0.248748
     38 H                     0.228843
     39 C                    -0.646267
     40 H                     0.242600
     41 H                     0.217375
     42 H                     0.215893
     43 B                     0.640512
     44 C                    -0.134836
     45 C                    -0.405181
     46 H                     0.235685
     47 C                     0.098848
     48 C                     0.116787
     49 C                    -0.389663
     50 H                     0.228373
     51 C                    -0.154246
     52 C                     0.195744
     53 C                    -0.378648
     54 H                     0.219702
     55 C                    -0.064107
     56 C                     0.253869
     57 C                     0.195601
     58 C                    -0.380351
     59 H                     0.217214
     60 C                    -0.204607
     61 H                     0.227054
     62 C                    -0.333619
     63 H                     0.220872
     64 C                    -0.202630
     65 H                     0.225590
     66 C                    -0.335566
     67 H                     0.221278
     68 C                    -0.144300
     69 C                    -0.376475
     70 H                     0.236262
     71 C                     0.099994
     72 C                     0.111412
     73 C                    -0.409942
     74 H                     0.234224
     75 C                    -0.145207
     76 C                     0.200002
     77 C                    -0.379292
     78 H                     0.218471
     79 C                    -0.065760
     80 C                     0.250373
     81 C                     0.198598
     82 C                    -0.385372
     83 H                     0.218045
     84 C                    -0.204461
     85 H                     0.226616
     86 C                    -0.331987
     87 H                     0.220791
     88 C                    -0.201980
     89 H                     0.226248
     90 C                    -0.334395
     91 H                     0.221292
     92 B                     0.673613
     93 C                    -0.211574
     94 C                     0.070456
     95 C                    -0.329905
     96 H                     0.227024
     97 C                     0.258616
     98 C                    -0.333588
     99 H                     0.229191
    100 C                     0.046764
    101 N                    -0.675194
    102 C                     0.315997
    103 C                    -0.290984
    104 H                     0.248311
    105 C                    -0.213197
    106 H                     0.218892
    107 C                    -0.240711
    108 H                     0.215695
    109 C                    -0.210634
    110 H                     0.215860
    111 C                    -0.284755
    112 H                     0.240637
    113 C                     0.318232
    114 C                    -0.289894
    115 H                     0.248531
    116 C                    -0.212856
    117 H                     0.218782
    118 C                    -0.241467
    119 H                     0.215104
    120 C                    -0.208962
    121 H                     0.211210
    122 C                    -0.286883
    123 H                     0.241784
    124 C                    -0.761695
    125 H                     0.239809
    126 H                     0.247021
    127 H                     0.246737
    128 C                    -0.546558
    129 H                     0.251289
    130 H                     0.232351
    131 C                    -0.644744
    132 H                     0.241280
    133 H                     0.215845
    134 H                     0.220238
  ----------------------------------------
  Sum of atomic charges =    -0.000000

                    Cartesian Multipole Moments
 -----------------------------------------------------------------
    Charge (ESU x 10^10)
                -0.0000
    Dipole Moment (Debye)
         X      -0.4386      Y       0.1328      Z      -2.0279
       Tot       2.0790
    Quadrupole Moments (Debye-Ang)
        XX    -448.5137     XY      -6.3915     YY    -389.4494
        XZ      -6.1884     YZ      13.0261     ZZ    -439.3607

 Total job time:  25639.24s(wall), 73344.02s(cpu)
        *  Thank you very much for using Q-Chem.  Have a nice day.  *
