 Q-Chem 5.0, Q-Chem, Inc., Pleasanton, CA (2017)
 Q-Chem 5.0.1 for Intel X86 EM64T Linux

User input:
--------------------------------------------------------------
$solvent
dielectric      4.33
dielectric_infi 1.83
$end

$rem
threads 8
jobtype	sp
method PBEh-3c
basis def2-mSVP
mem_static	1024
mem_total	14000
sym_ignore	true
cis_n_roots             2
cis_singlets            false
cis_triplets		true
rpa                     false
calc_soc 		true
cis_moments             true
cis_relaxed_density	true
solvent_method		pcm
$end

$pcm
StateSpecific   1
ChargeSeparation Excited
$end

$molecule
read ut1opt_eth.mol
$end

--------------------------------------------------------------

   14   -3006.3500593230      7.88E-09 Convergence criterion met
 Total energy in the final basis set = -3006.35005932
 Q-Chem 5.0, Q-Chem, Inc., Pleasanton, CA (2017)
 Q-Chem 5.0.1 for Intel X86 EM64T Linux

User input:
--------------------------------------------------------------
$rem
threads 8
jobtype sp
method PBEh-3c
basis def2-mSVP
mem_static      1024
mem_total       14000
sym_ignore      true
cis_n_roots             6
cis_singlets            true
cis_triplets            true
rpa                     false
calc_soc                true
cis_moments             true
cis_relaxed_density     true
solvent_method          pcm
$end

$molecule
read
$end

$pcm
statespecific           Marcus
$end

$solvent
dielectric      4.33
dielectric_infi 1.83
$end

--------------------------------------------------------------

             Standard Nuclear Orientation (Angstroms)
    I     Atom           X                Y                Z
 ----------------------------------------------------------------
    1      N       0.0000000000     0.0000000000     0.0000000000
    2      C       0.0000000000     0.0000000000     1.3704080000
    3      C       1.2153747345     0.0000000000     2.0810307675
    4      H       2.1528760834    -0.0311334085     1.5394278799
    5      C       1.2136359998    -0.0505993854     3.4560940093
    6      C       1.0417827936     0.6132217810    -0.7244012954
    7      C       1.4955939421     1.8754866544    -0.3436061403
    8      H       1.0403195738     2.3886464711     0.4934724731
    9      C       2.5101051246     2.4772448638    -1.0663382997
   10      H       2.8574748101     3.4604703369    -0.7801068478
   11      C       3.0668246420     1.8305059392    -2.1623243265
   12      H       3.8592380736     2.3053759829    -2.7249313368
   13      C       2.6036596523     0.5758972794    -2.5410784472
   14      H       3.0403268471     0.0687393581    -3.3906972976
   15      C       1.5890887909    -0.0373249987    -1.8296995273
   16      H       1.2378876911    -1.0207391378    -2.1142915993
   17      C      -1.2226843215    -0.0188516384     2.0719523639
   18      H      -2.1556475464     0.0280376272     1.5244380803
   19      C      -1.2309203080    -0.0496064337     3.4446321763
   20      C      -1.0454627009    -0.6192576272    -0.7166860544
   21      C      -1.6189495640     0.0322654239    -1.8076481610
   22      H      -1.2802069415     1.0184249205    -2.0974894026
   23      C      -2.6481023054    -0.5819369873    -2.4982218853
   24      H      -3.1057328130    -0.0730611596    -3.3357235564
   25      C      -3.1012830404    -1.8382504903    -2.1136291464
   26      H      -3.9068125638    -2.3121619143    -2.6583787724
   27      C      -2.5181021096    -2.4869849127    -1.0331299234
   28      H      -2.8579310686    -3.4710057567    -0.7400200127
   29      C      -1.4883801275    -1.8847082578    -0.3322565022
   30      H      -1.0174070210    -2.3998231853     0.4951069532
   31      C      -0.0098137849    -0.0862905691     4.1673660332
   32      C      -2.5348760629    -0.0578741004     4.1834323154
   33      H      -3.3835813556    -0.0140592783     3.5018755262
   34      H      -2.6043848652     0.7855566677     4.8713936926
   35      H      -2.6304723323    -0.9616901361     4.7878797705
   36      C       2.5283203378    -0.0618140658     4.1841327791
   37      H       2.4349179171    -0.6272412967     5.1130127711
   38      H       3.2759938714    -0.5774724675     3.5769204019
   39      C       3.0095739355     1.3549193781     4.4904500153
   40      H       2.3040344749     1.8783223868     5.1352121169
   41      H       3.9721890087     1.3318902430     5.0009844589
   42      H       3.1269214625     1.9357034118     3.5742806522
   43      B      -0.0438398010    -0.2725203780     5.7358757016
   44      C      -0.1393770967     0.9227876403     6.6785555812
   45      C      -0.2315741224     2.2377092795     6.1753334882
   46      H      -0.2230434989     2.4030421576     5.1015254733
   47      C      -0.3413729552     3.3064577523     7.0270990104
   48      C      -0.3538479193     3.1021297870     8.4389343991
   49      C      -0.2576821350     1.8270688812     8.9482415098
   50      H      -0.2707936925     1.6696131468    10.0218161127
   51      C      -0.1594033806     0.7100574374     8.0915533532
   52      C      -0.4783751596     4.7351593885     6.7700554442
   53      C      -0.5440455702     5.5143399912     5.6422256324
   54      H      -0.4813546997     5.0875962324     4.6482812838
   55      C      -0.5728388147     5.3562592224     8.0307229104
   56      C      -0.7365616866     6.7257349761     8.2122327877
   57      C      -0.5017990279     4.4087876708     9.0748406139
   58      C      -0.5961398031     4.8618618601    10.3665039577
   59      H      -0.5524486508     4.1872566755    11.2126324436
   60      C      -0.7041059706     6.9099899476     5.7974130341
   61      H      -0.7573332198     7.5267643822     4.9089918922
   62      C      -0.7989890697     7.5100547491     7.0333226469
   63      H      -0.9249376836     8.5836376646     7.1029855037
   64      C      -0.7600077070     6.2504032348    10.5833373096
   65      H      -0.8351182550     6.6054567400    11.6032908296
   66      C      -0.8299958569     7.1644520688     9.5557152842
   67      H      -0.9596925508     8.2170603561     9.7753206612
   68      C      -0.0254141077    -1.6984032161     6.2862236326
   69      C      -0.0061582588    -2.8086651067     5.4170632641
   70      H       0.0069428580    -2.6562653569     4.3421076503
   71      C      -0.0122015730    -4.0845596345     5.9155545887
   72      C      -0.0250760162    -4.3134599771     7.3247429574
   73      C      -0.0377584807    -3.2425372102     8.1870348643
   74      H      -0.0507227593    -3.4089142491     9.2596160801
   75      C      -0.0469062291    -1.9188707678     7.6968685727
   76      C      -0.0159957539    -5.3799337741     5.2415359971
   77      C      -0.0141677834    -5.7993915283     3.9331157377
   78      H      -0.0035247782    -5.0974052425     3.1080076409
   79      C      -0.0313524753    -6.3535321154     6.2591867775
   80      C      -0.0455288421    -7.7277678756     6.0215199703
   81      C      -0.0360719530    -5.7618716022     7.5402968245
   82      C      -0.0551549000    -6.5957306310     8.6322271680
   83      H      -0.0610849072    -6.2113151260     9.6444716531
   84      C      -0.0276356250    -7.1879161652     3.6639031137
   85      H      -0.0265346739    -7.5154616184     2.6316672909
   86      C      -0.0427900284    -8.1336419894     4.6641776986
   87      H      -0.0535439485    -9.1877860737     4.4137396820
   88      C      -0.0685350847    -7.9954884716     8.4215551914
   89      H      -0.0837889222    -8.6451561671     9.2876063463
   90      C      -0.0639780325    -8.5606415921     7.1665321163
   91      H      -0.0758612896    -9.6382802397     7.0549810575
   92      B      -0.1008091884    -0.7226776678     8.6598203866
   93      C      -0.0897227892    -0.9432247425    10.2248226660
   94      C      -1.2711562287    -0.9142230611    10.9764043434
   95      C      -1.2234199106    -1.0346827565    12.3615018550
   96      H      -2.1419415020    -1.0047313638    12.9385875949
   97      C      -0.0102707050    -1.1694039343    13.0181208263
   98      C       1.1653235815    -1.2207677232    12.2791443640
   99      H       2.1147326193    -1.3290411704    12.7917009580
  100      C       1.1314980182    -1.1196162542    10.8941681464
  101      N       0.0289752724    -1.2380469378    14.4313826117
  102      C      -0.5588529431    -0.2071277810    15.1724443319
  103      C      -1.1923511156    -0.4608794290    16.3912527901
  104      H      -1.2312558393    -1.4699884156    16.7812055715
  105      C      -1.7832764570     0.5705772118    17.1028792113
  106      H      -2.2700455160     0.3492792905    18.0443376848
  107      C      -1.7771627818     1.8686801419    16.6109791623
  108      H      -2.2488102649     2.6692405223    17.1651167455
  109      C      -1.1598276552     2.1214323486    15.3935859348
  110      H      -1.1423167685     3.1267516239    14.9918585227
  111      C      -0.5493503493     1.1015260123    14.6828678189
  112      H      -0.0666535190     1.3210418063    13.7392899269
  113      C       0.6611805406    -2.3312679848    15.0344028005
  114      C       1.4150522945    -2.1796520668    16.1997162905
  115      H       1.5163329977    -1.2024694796    16.6541440855
  116      C       2.0435071509    -3.2724537991    16.7746004238
  117      H       2.6242535570    -3.1323410859    17.6775245832
  118      C       1.9543760083    -4.5298590749    16.1929594747
  119      H       2.4546320664    -5.3786034158    16.6400996071
  120      C       1.2173536234    -4.6806053917    15.0262425765
  121      H       1.1344249483    -5.6534984012    14.5583961334
  122      C       0.5691209185    -3.5984830260    14.4538441187
  123      H      -0.0097361623    -3.7363096744    13.5494256828
  124      C       2.4144818802    -1.1763154723    10.1116417592
  125      H       3.2847186608    -1.2220459125    10.7664560031
  126      H       2.4409175267    -2.0529537828     9.4612004649
  127      H       2.5275013360    -0.3042840212     9.4642430549
  128      C      -2.6171452213    -0.8088882333    10.3042608641
  129      H      -2.5371020977    -0.2129605054     9.3921062465
  130      H      -3.3132350890    -0.2767822434    10.9581376452
  131      C      -3.2003765457    -2.1776525167     9.9578810500
  132      H      -2.5539736480    -2.7145698928     9.2634568156
  133      H      -3.3168214852    -2.7935673693    10.8508505190
  134      H      -4.1806721330    -2.0772321542     9.4895603984
 ----------------------------------------------------------------

   14   -3006.3427086369      9.01E-09 Convergence criterion met
 Total energy in the final basis set = -3006.34270864

         TDDFT/TDA Excitation Energies
 ---------------------------------------------------

 Excited state   1: excitation energy (eV) =    1.7167
 Total energy for state  1:                 -3006.27962209 au
    Multiplicity: Triplet
    Trans. Mom.:  0.0000 X   0.0000 Y   0.0000 Z
    Strength   :     0.0000000000
    D(262) --> V(  1) amplitude =  0.9729

 Excited state   2: excitation energy (eV) =    1.7331
 Total energy for state  2:                 -3006.27901668 au
    Multiplicity: Singlet
    Trans. Mom.: -0.0034 X   0.0176 Y   0.0954 Z
    Strength   :     0.0003998674
    D(262) --> V(  1) amplitude =  0.9764

 Excited state   3: excitation energy (eV) =    2.2412
 Total energy for state  3:                 -3006.26034701 au
    Multiplicity: Triplet
    Trans. Mom.:  0.0000 X   0.0000 Y   0.0000 Z
    Strength   :     0.0000000000
    D(252) --> V(  2) amplitude =  0.2210
    D(259) --> V(  1) amplitude =  0.9169

 Excited state   4: excitation energy (eV) =    2.4310
 Total energy for state  4:                 -3006.25337171 au
    Multiplicity: Triplet
    Trans. Mom.:  0.0000 X   0.0000 Y   0.0000 Z
    Strength   :     0.0000000000
    D(257) --> V(  2) amplitude = -0.4713
    D(260) --> V(  1) amplitude =  0.8045

 Excited state   5: excitation energy (eV) =    2.4843
 Total energy for state  5:                 -3006.25141343 au
    Multiplicity: Triplet
    Trans. Mom.:  0.0000 X   0.0000 Y   0.0000 Z
    Strength   :     0.0000000000
    D(257) --> V(  1) amplitude =  0.6721
    D(260) --> V(  2) amplitude = -0.4981
    D(261) --> V(  1) amplitude =  0.4022

 Excited state   6: excitation energy (eV) =    2.5316
 Total energy for state  6:                 -3006.24967403 au
    Multiplicity: Triplet
    Trans. Mom.:  0.0000 X   0.0000 Y   0.0000 Z
    Strength   :     0.0000000000
    D(257) --> V(  1) amplitude = -0.2950
    D(260) --> V(  2) amplitude =  0.2288
    D(261) --> V(  1) amplitude =  0.8747

 Excited state   7: excitation energy (eV) =    2.5444
 Total energy for state  7:                 -3006.24920541 au
    Multiplicity: Singlet
    Trans. Mom.:  0.0208 X  -0.0438 Y   0.4240 Z
    Strength   :     0.0113523287
    D(261) --> V(  1) amplitude =  0.9747

 Excited state   8: excitation energy (eV) =    2.7436
 Total energy for state  8:                 -3006.24188446 au
    Multiplicity: Triplet
    Trans. Mom.:  0.0000 X   0.0000 Y   0.0000 Z
    Strength   :     0.0000000000
    D(251) --> V(  1) amplitude = -0.2886
    D(252) --> V(  1) amplitude = -0.6257
    D(259) --> V(  2) amplitude = -0.5539

 Excited state   9: excitation energy (eV) =    2.9117
 Total energy for state  9:                 -3006.23570445 au
    Multiplicity: Singlet
    Trans. Mom.: -0.0066 X   0.0968 Y   0.0135 Z
    Strength   :     0.0006844936
    D(259) --> V(  1) amplitude =  0.9656

 Excited state  10: excitation energy (eV) =    2.9628
 Total energy for state 10:                 -3006.23382819 au
    Multiplicity: Singlet
    Trans. Mom.:  0.0194 X   0.0484 Y   0.0260 Z
    Strength   :     0.0002465765
    D(262) --> V(  2) amplitude =  0.9941

 Excited state  11: excitation energy (eV) =    3.1389
 Total energy for state 11:                 -3006.22735766 au
    Multiplicity: Singlet
    Trans. Mom.: -0.1847 X   3.9175 Y   0.5983 Z
    Strength   :     1.2103575465
    D(260) --> V(  1) amplitude =  0.9559

 Excited state  12: excitation energy (eV) =    3.3283
 Total energy for state 12:                 -3006.22039449 au
    Multiplicity: Singlet
    Trans. Mom.:  0.0029 X   0.2362 Y  -0.0102 Z
    Strength   :     0.0045574167
    D(258) --> V(  1) amplitude = -0.9438

 ---------------------------------------------------

                    Orbital Energies (a.u.)
 --------------------------------------------------------------

 Alpha MOs
 -- Occupied --
-14.677 -14.659 -10.499 -10.499 -10.492 -10.480 -10.479 -10.478
-10.475 -10.474 -10.473 -10.473 -10.473 -10.473 -10.472 -10.472
-10.472 -10.471 -10.471 -10.471 -10.469 -10.469 -10.469 -10.469
-10.469 -10.468 -10.466 -10.465 -10.465 -10.465 -10.465 -10.464
-10.464 -10.462 -10.461 -10.460 -10.457 -10.457 -10.453 -10.453
-10.453 -10.453 -10.450 -10.450 -10.450 -10.450 -10.447 -10.447
-10.446 -10.446 -10.446 -10.445 -10.445 -10.443 -10.443 -10.442
-10.442 -10.437 -10.437 -10.437 -10.436 -10.435 -10.435 -10.435
-10.434 -10.434 -10.434 -10.433 -10.432 -10.430 -10.429 -10.424
-10.423 -10.422 -10.417 -10.413  -6.958  -6.947  -1.088  -1.075
 -1.025  -1.024  -0.972  -0.968  -0.967  -0.966  -0.950  -0.950
 -0.946  -0.941  -0.940  -0.930  -0.916  -0.907  -0.892  -0.879
 -0.872  -0.864  -0.863  -0.857  -0.854  -0.853  -0.851  -0.845
 -0.842  -0.840  -0.832  -0.829  -0.828  -0.823  -0.820  -0.819
 -0.812  -0.807  -0.801  -0.782  -0.775  -0.758  -0.743  -0.738
 -0.734  -0.728  -0.721  -0.714  -0.708  -0.708  -0.700  -0.696
 -0.689  -0.687  -0.687  -0.685  -0.676  -0.674  -0.672  -0.665
 -0.655  -0.653  -0.648  -0.643  -0.630  -0.627  -0.613  -0.603
 -0.600  -0.598  -0.595  -0.594  -0.594  -0.589  -0.583  -0.582
 -0.578  -0.568  -0.562  -0.554  -0.551  -0.549  -0.549  -0.544
 -0.539  -0.534  -0.530  -0.529  -0.526  -0.521  -0.516  -0.515
 -0.514  -0.511  -0.508  -0.503  -0.503  -0.502  -0.501  -0.500
 -0.496  -0.495  -0.494  -0.491  -0.490  -0.490  -0.488  -0.486
 -0.485  -0.485  -0.484  -0.482  -0.479  -0.476  -0.473  -0.473
 -0.472  -0.471  -0.468  -0.465  -0.461  -0.455  -0.452  -0.451
 -0.450  -0.447  -0.443  -0.439  -0.438  -0.434  -0.434  -0.432
 -0.429  -0.427  -0.426  -0.421  -0.418  -0.418  -0.416  -0.413
 -0.409  -0.407  -0.406  -0.404  -0.404  -0.403  -0.402  -0.401
 -0.400  -0.400  -0.399  -0.398  -0.395  -0.389  -0.388  -0.387
 -0.387  -0.384  -0.378  -0.366  -0.366  -0.362  -0.360  -0.359
 -0.342  -0.340  -0.329  -0.324  -0.309  -0.307  -0.304  -0.303
 -0.302  -0.295  -0.293  -0.291  -0.290  -0.286  -0.285  -0.275
 -0.270  -0.269  -0.266  -0.264  -0.230  -0.205

          Ground-State Mulliken Net Atomic Charges

     Atom                 Charge (a.u.)
  ----------------------------------------
      1 N                    -0.657832
      2 C                     0.326001
      3 C                    -0.383902
      4 H                     0.256751
      5 C                     0.080453
      6 C                     0.270652
      7 C                    -0.276418
      8 H                     0.263899
      9 C                    -0.240675
     10 H                     0.243703
     11 C                    -0.258248
     12 H                     0.240603
     13 C                    -0.239821
     14 H                     0.245230
     15 C                    -0.284459
     16 H                     0.262778
     17 C                    -0.391749
     18 H                     0.260009
     19 C                     0.065852
     20 C                     0.265027
     21 C                    -0.280993
     22 H                     0.263233
     23 C                    -0.240371
     24 H                     0.245593
     25 C                    -0.257519
     26 H                     0.240836
     27 C                    -0.240006
     28 H                     0.242884
     29 C                    -0.273529
     30 H                     0.261337
     31 C                    -0.251030
     32 C                    -0.771712
     33 H                     0.256645
     34 H                     0.240434
     35 H                     0.240412
     36 C                    -0.546001
     37 H                     0.240446
     38 H                     0.245767
     39 C                    -0.656494
     40 H                     0.229836
     41 H                     0.223207
     42 H                     0.229542
     43 B                     0.647484
     44 C                    -0.142873
     45 C                    -0.403036
     46 H                     0.260979
     47 C                     0.081197
     48 C                     0.097740
     49 C                    -0.401291
     50 H                     0.241781
     51 C                    -0.156366
     52 C                     0.177025
     53 C                    -0.388802
     54 H                     0.255930
     55 C                    -0.067524
     56 C                     0.223636
     57 C                     0.176698
     58 C                    -0.394008
     59 H                     0.247874
     60 C                    -0.231898
     61 H                     0.258903
     62 C                    -0.346450
     63 H                     0.253646
     64 C                    -0.230415
     65 H                     0.255424
     66 C                    -0.348981
     67 H                     0.253844
     68 C                    -0.150803
     69 C                    -0.389932
     70 H                     0.259870
     71 C                     0.082026
     72 C                     0.091454
     73 C                    -0.409945
     74 H                     0.246364
     75 C                    -0.149566
     76 C                     0.180184
     77 C                    -0.389864
     78 H                     0.256822
     79 C                    -0.068823
     80 C                     0.219609
     81 C                     0.180062
     82 C                    -0.397460
     83 H                     0.247628
     84 C                    -0.231513
     85 H                     0.259315
     86 C                    -0.345175
     87 H                     0.253940
     88 C                    -0.229880
     89 H                     0.255597
     90 C                    -0.347267
     91 H                     0.254006
     92 B                     0.658322
     93 C                    -0.210150
     94 C                     0.056816
     95 C                    -0.343249
     96 H                     0.243760
     97 C                     0.266038
     98 C                    -0.351996
     99 H                     0.246434
    100 C                     0.034989
    101 N                    -0.673515
    102 C                     0.315167
    103 C                    -0.305552
    104 H                     0.262432
    105 C                    -0.237997
    106 H                     0.246892
    107 C                    -0.268753
    108 H                     0.243040
    109 C                    -0.236225
    110 H                     0.243214
    111 C                    -0.306759
    112 H                     0.256477
    113 C                     0.311155
    114 C                    -0.302582
    115 H                     0.262125
    116 C                    -0.238640
    117 H                     0.247239
    118 C                    -0.266872
    119 H                     0.243804
    120 C                    -0.237045
    121 H                     0.245067
    122 C                    -0.304409
    123 H                     0.255576
    124 C                    -0.770916
    125 H                     0.254849
    126 H                     0.248142
    127 H                     0.248399
    128 C                    -0.548654
    129 H                     0.250190
    130 H                     0.243812
    131 C                    -0.656713
    132 H                     0.234691
    133 H                     0.223218
    134 H                     0.230647
  ----------------------------------------
  Sum of atomic charges =    -0.000000

                    Cartesian Multipole Moments
 -----------------------------------------------------------------
    Charge (ESU x 10^10)
                -0.0000
    Dipole Moment (Debye)
         X      -0.4464      Y       0.0795      Z      -3.2861
       Tot       3.3173
    Quadrupole Moments (Debye-Ang)
        XX    -447.7328     XY      -2.4217     YY    -365.0438
        XZ      -3.7449     YZ       6.7432     ZZ    -440.5906

 Total job time:  27546.05s(wall), 80943.77s(cpu)
        *  Thank you very much for using Q-Chem.  Have a nice day.  *
