 Q-Chem 5.0, Q-Chem, Inc., Pleasanton, CA (2017)
 Q-Chem 5.0.1 for Intel X86 EM64T Linux

User input:
--------------------------------------------------------------
$solvent
dielectric      1.0001
dielectric_infi 1.00009
$end

$rem
threads 8
jobtype	sp
method PBEh-3c
basis def2-mSVP
mem_static	1024
mem_total	14000
sym_ignore	true
cis_n_roots             2
cis_singlets            false
cis_triplets		true
rpa                     false
calc_soc 		true
cis_moments             true
cis_relaxed_density	true
solvent_method		pcm
$end

$pcm
StateSpecific   1
ChargeSeparation Excited
$end

$molecule
read ut1opt_vac.mol
$end

--------------------------------------------------------------

   15   -3006.3148585778      7.01E-09 Convergence criterion met
 Total energy in the final basis set = -3006.31485858
 Q-Chem 5.0, Q-Chem, Inc., Pleasanton, CA (2017)
 Q-Chem 5.0.1 for Intel X86 EM64T Linux

User input:
--------------------------------------------------------------
$rem
threads 8
jobtype sp
method PBEh-3c
basis def2-mSVP
mem_static      1024
mem_total       14000
sym_ignore      true
cis_n_roots             6
cis_singlets            true
cis_triplets            true
rpa                     false
calc_soc                true
cis_moments             true
cis_relaxed_density     true
solvent_method          pcm
$end

$molecule
read
$end

$pcm
statespecific           Marcus
$end

$solvent
dielectric      1.0001
dielectric_infi 1.00009
$end

--------------------------------------------------------------

             Standard Nuclear Orientation (Angstroms)
    I     Atom           X                Y                Z
 ----------------------------------------------------------------
    1      N       0.0000000000     0.0000000000     0.0000000000
    2      C       0.0000000000     0.0000000000     1.3634130000
    3      C       1.2155370161     0.0000000000     2.0841270693
    4      H       2.1550902069     0.0018283138     1.5463431118
    5      C       1.2107140485    -0.1103924953     3.4503910487
    6      C      -1.2275527059    -0.0339545092     2.0640671957
    7      H      -2.1567306522     0.0280929533     1.5122968809
    8      C      -1.2453061607    -0.1280649678     3.4292711266
    9      C       1.0833095630     0.5216036531    -0.7448706720
   10      C       1.5948692273    -0.2100251345    -1.8125366242
   11      H       1.1839852076    -1.1823918537    -2.0509584099
   12      C       2.6391372055     0.3100018256    -2.5554425301
   13      H       3.0435609549    -0.2618231889    -3.3794914207
   14      C       3.1711635155     1.5531479229    -2.2410313850
   15      H       3.9875250421     1.9552269064    -2.8253896010
   16      C       2.6521677548     2.2812136880    -1.1801234498
   17      H       3.0552159220     3.2555869856    -0.9405051433
   18      C       1.6041690819     1.7736177466    -0.4312135694
   19      H       1.1815352219     2.3495496701     0.3820078551
   20      C      -1.0789784970    -0.5678555815    -0.7223424440
   21      C      -1.6485530519     0.1347797878    -1.7794932756
   22      H      -1.2804945577     1.1186483313    -2.0401738867
   23      C      -2.6979631906    -0.4284843507    -2.4843046169
   24      H      -3.1493903185     0.1216031899    -3.2987319870
   25      C      -3.1764694939    -1.6863963897    -2.1441584486
   26      H      -3.9980178187    -2.1211166887    -2.6972353613
   27      C      -2.5969955688    -2.3875732912    -1.0967682348
   28      H      -2.9576779395    -3.3729012779    -0.8346473558
   29      C      -1.5451611686    -1.8360395011    -0.3856327504
   30      H      -1.0838558313    -2.3910390313     0.4215086005
   31      C      -0.0222161152    -0.2261277714     4.1561508706
   32      C      -2.5468393582    -0.1807512600     4.1651764770
   33      H      -3.3963377260    -0.0929689047     3.4886842168
   34      H      -2.6118541829     0.6131938006     4.9094923657
   35      H      -2.6354778692    -1.1216582194     4.7115199422
   36      C       2.5115749114    -0.1497357541     4.1963448874
   37      H       2.4576336074    -0.9058334950     4.9818254005
   38      H       3.3124160848    -0.4544568644     3.5184233652
   39      C       2.8483100965     1.2067673186     4.8132770388
   40      H       2.0940579167     1.5094136288     5.5382370917
   41      H       3.8038753696     1.1586431741     5.3344862623
   42      H       2.9202336770     1.9824278023     4.0496251150
   43      B      -0.0610842135    -0.6544771956     5.6716902775
   44      C      -0.2814399519     0.3419102302     6.8000913870
   45      C      -0.4679195823     1.7173899444     6.5428848436
   46      H      -0.4322327176     2.0824123357     5.5193445997
   47      C      -0.7075967355     2.5926147373     7.5691645855
   48      C      -0.7549817743     2.1247501228     8.9141831099
   49      C      -0.5544599303     0.7906824174     9.1846246872
   50      H      -0.5861243455     0.4321760561    10.2079975266
   51      C      -0.3264790246    -0.1326564183     8.1448960066
   52      C      -0.9756816301     4.0269366845     7.5741857081
   53      C      -1.0771772769     4.9963577755     6.6102295771
   54      H      -0.9311143148     4.7748443734     5.5598007819
   55      C      -1.1844833440     4.3848595544     8.9193952069
   56      C      -1.4995303941     5.6710904754     9.3419501444
   57      C      -1.0601010727     3.2666490253     9.7707577750
   58      C      -1.2591258826     3.4523662087    11.1140695305
   59      H      -1.1857107870     2.6335690084    11.8188989240
   60      C      -1.3885541646     6.3145385859     7.0110353095
   61      H      -1.4704935805     7.0816214532     6.2513041837
   62      C      -1.5962561296     6.6549380382     8.3278969917
   63      H      -1.8382409709     7.6782200885     8.5875068960
   64      C      -1.5761554295     4.7509323909    11.5755812928
   65      H      -1.7338817264     4.8950671237    12.6367373093
   66      C      -1.6964667424     5.8329100824    10.7345531022
   67      H      -1.9461781013     6.8063814488    11.1379306704
   68      C       0.0592368223    -2.1517469586     5.9449402744
   69      C       0.1862505344    -3.0808574691     4.8906405921
   70      H       0.2095282319    -2.7393811233     3.8597535396
   71      C       0.2738198218    -4.4207084301     5.1489896360
   72      C       0.2514619055    -4.9054103440     6.4901125305
   73      C       0.1323467356    -4.0142974023     7.5306839247
   74      H       0.1113415056    -4.3695785203     8.5561514134
   75      C       0.0226950248    -2.6296832831     7.2884199577
   76      C       0.3874395311    -5.5650354155     4.2494972270
   77      C       0.4481585753    -5.7331475917     2.8883701107
   78      H       0.4224921966    -4.8896932680     2.2083820600
   79      C       0.4299034691    -6.7079348979     5.0697429303
   80      C       0.5287802547    -8.0105204007     4.5833768529
   81      C       0.3534808282    -6.3647178003     6.4361189705
   82      C       0.3809367044    -7.3858831384     7.3535884829
   83      H       0.3257283598    -7.1973765980     8.4181538164
   84      C       0.5487766094    -7.0431613358     2.3678138508
   85      H       0.5967166550    -7.1740230971     1.2937983612
   86      C       0.5885760254    -8.1550478541     3.1765459447
   87      H       0.6657561463    -9.1419358755     2.7360887923
   88      C       0.4831096983    -8.7185886247     6.8895448202
   89      H       0.5040718588    -9.5166718569     7.6208052205
   90      C       0.5553953093    -9.0396755206     5.5544960397
   91      H       0.6315714478   -10.0758514594     5.2477257528
   92      B      -0.1536712571    -1.6365714614     8.4475882842
   93      C      -0.1377125879    -2.1239955106     9.9486252378
   94      C      -1.3201737726    -2.3162969240    10.6728744506
   95      C      -1.2659945113    -2.6394273981    12.0239323294
   96      H      -2.1836309901    -2.7734750414    12.5868229392
   97      C      -0.0479284923    -2.7609318977    12.6734124339
   98      C       1.1299116124    -2.6015424509    11.9550015212
   99      H       2.0820037848    -2.7022293022    12.4634532955
  100      C       1.0921230494    -2.2942519464    10.6019197983
  101      N      -0.0094503858    -3.0168312098    14.0648283685
  102      C       0.7251683877    -4.1131202322    14.5270514998
  103      C       1.4605269894    -4.0489978949    15.7114414648
  104      H       1.4653542137    -3.1365189285    16.2932438625
  105      C       2.1922615424    -5.1433247971    16.1408036397
  106      H       2.7570445364    -5.0715032899    17.0615325368
  107      C       2.2262009264    -6.3120593370    15.3945658235
  108      H       2.8069526997    -7.1609477120    15.7294953895
  109      C       1.5076107674    -6.3733309019    14.2094649120
  110      H       1.5207190095    -7.2769630023    13.6134798461
  111      C       0.7576821525    -5.2924686900    13.7798968766
  112      H       0.1961525014    -5.3569686478    12.8568682112
  113      C      -0.6623765597    -2.1293925121    14.9264942495
  114      C      -1.2611657484    -2.5745569013    16.1067488352
  115      H      -1.2193640054    -3.6237565536    16.3692722741
  116      C      -1.9172852601    -1.6836622091    16.9388475486
  117      H      -2.3756357154    -2.0520353965    17.8477731304
  118      C      -2.0120439323    -0.3397460805    16.6083921345
  119      H      -2.5345802539     0.3506323048    17.2566627349
  120      C      -1.4295577448     0.1026797009    15.4298976581
  121      H      -1.4905436433     1.1477380441    15.1536662740
  122      C      -0.7549503751    -0.7748088179    14.5992845693
  123      H      -0.3004220741    -0.4108060483    13.6872035060
  124      C       2.3755767209    -2.1062353521     9.8416079731
  125      H       3.2461277607    -2.1991413983    10.4909308925
  126      H       2.4750655328    -2.8441557506     9.0433182693
  127      H       2.4160591556    -1.1238538416     9.3663481879
  128      C      -2.6656014466    -2.2215275985     9.9987038202
  129      H      -2.6420334359    -1.4572764784     9.2178841613
  130      H      -3.4159546426    -1.8931742198    10.7228796305
  131      C      -3.1041428158    -3.5499084213     9.3857072885
  132      H      -2.4072332283    -3.8750205234     8.6135841050
  133      H      -3.1562894096    -4.3347026603    10.1415769880
  134      H      -4.0898700376    -3.4616858870     8.9263183478
 ----------------------------------------------------------------

   15   -3006.3148569256      7.01E-09 Convergence criterion met
 Total energy in the final basis set = -3006.31485693

         TDDFT/TDA Excitation Energies
 ---------------------------------------------------

 Excited state   1: excitation energy (eV) =    2.0407
 Total energy for state  1:                 -3006.23986115 au
    Multiplicity: Triplet
    Trans. Mom.:  0.0000 X   0.0000 Y   0.0000 Z
    Strength   :     0.0000000000
    D(262) --> V(  1) amplitude =  0.9661

 Excited state   2: excitation energy (eV) =    2.0708
 Total energy for state  2:                 -3006.23875793 au
    Multiplicity: Singlet
    Trans. Mom.: -0.0245 X  -0.0640 Y   0.3257 Z
    Strength   :     0.0056208116
    D(262) --> V(  1) amplitude =  0.9725

 Excited state   3: excitation energy (eV) =    2.2086
 Total energy for state  3:                 -3006.23369171 au
    Multiplicity: Triplet
    Trans. Mom.:  0.0000 X   0.0000 Y   0.0000 Z
    Strength   :     0.0000000000
    D(259) --> V(  1) amplitude =  0.7759
    D(260) --> V(  1) amplitude = -0.4944

 Excited state   4: excitation energy (eV) =    2.4360
 Total energy for state  4:                 -3006.22533570 au
    Multiplicity: Triplet
    Trans. Mom.:  0.0000 X   0.0000 Y   0.0000 Z
    Strength   :     0.0000000000
    D(258) --> V(  2) amplitude = -0.4794
    D(259) --> V(  1) amplitude =  0.4355
    D(260) --> V(  1) amplitude =  0.6728

 Excited state   5: excitation energy (eV) =    2.4725
 Total energy for state  5:                 -3006.22399452 au
    Multiplicity: Triplet
    Trans. Mom.:  0.0000 X   0.0000 Y   0.0000 Z
    Strength   :     0.0000000000
    D(258) --> V(  1) amplitude =  0.4352
    D(260) --> V(  2) amplitude = -0.2598
    D(261) --> V(  1) amplitude =  0.7869

 Excited state   6: excitation energy (eV) =    2.5052
 Total energy for state  6:                 -3006.22279082 au
    Multiplicity: Singlet
    Trans. Mom.:  0.0202 X  -0.1193 Y   0.3944 Z
    Strength   :     0.0104445492
    D(261) --> V(  1) amplitude =  0.9757

 Excited state   7: excitation energy (eV) =    2.5076
 Total energy for state  7:                 -3006.22270306 au
    Multiplicity: Triplet
    Trans. Mom.:  0.0000 X   0.0000 Y   0.0000 Z
    Strength   :     0.0000000000
    D(258) --> V(  1) amplitude = -0.5932
    D(260) --> V(  2) amplitude =  0.4121
    D(261) --> V(  1) amplitude =  0.5549

 Excited state   8: excitation energy (eV) =    2.7172
 Total energy for state  8:                 -3006.21500219 au
    Multiplicity: Triplet
    Trans. Mom.:  0.0000 X   0.0000 Y   0.0000 Z
    Strength   :     0.0000000000
    D(253) --> V(  1) amplitude = -0.4230
    D(254) --> V(  1) amplitude =  0.4424
    D(255) --> V(  1) amplitude =  0.3367
    D(259) --> V(  2) amplitude = -0.4913
    D(260) --> V(  2) amplitude =  0.2690

 Excited state   9: excitation energy (eV) =    2.8886
 Total energy for state  9:                 -3006.20870423 au
    Multiplicity: Singlet
    Trans. Mom.: -0.0151 X   0.0807 Y   0.0237 Z
    Strength   :     0.0005171978
    D(259) --> V(  1) amplitude =  0.8242
    D(260) --> V(  1) amplitude = -0.5058

 Excited state  10: excitation energy (eV) =    3.2139
 Total energy for state 10:                 -3006.19674795 au
    Multiplicity: Singlet
    Trans. Mom.:  0.4699 X  -3.1973 Y  -1.1120 Z
    Strength   :     0.9196882839
    D(259) --> V(  1) amplitude =  0.4966
    D(260) --> V(  1) amplitude =  0.8091

 Excited state  11: excitation energy (eV) =    3.3264
 Total energy for state 11:                 -3006.19261426 au
    Multiplicity: Singlet
    Trans. Mom.: -0.0163 X  -0.0152 Y  -0.0123 Z
    Strength   :     0.0000526611
    D(262) --> V(  2) amplitude =  0.9911

 Excited state  12: excitation energy (eV) =    3.6429
 Total energy for state 12:                 -3006.18098199 au
    Multiplicity: Singlet
    Trans. Mom.:  0.0147 X   0.0730 Y  -0.0172 Z
    Strength   :     0.0005217222
    D(261) --> V(  2) amplitude =  0.9904

 ---------------------------------------------------

                    Orbital Energies (a.u.)
 --------------------------------------------------------------

 Alpha MOs
 -- Occupied --
-14.668 -14.666 -10.491 -10.490 -10.488 -10.487 -10.483 -10.480
-10.466 -10.465 -10.465 -10.465 -10.465 -10.465 -10.464 -10.464
-10.463 -10.463 -10.463 -10.463 -10.463 -10.462 -10.462 -10.462
-10.461 -10.461 -10.460 -10.460 -10.460 -10.460 -10.454 -10.454
-10.453 -10.453 -10.451 -10.451 -10.451 -10.450 -10.450 -10.450
-10.449 -10.448 -10.448 -10.447 -10.447 -10.447 -10.447 -10.446
-10.445 -10.445 -10.444 -10.444 -10.444 -10.444 -10.440 -10.440
-10.440 -10.440 -10.438 -10.438 -10.436 -10.435 -10.435 -10.434
-10.434 -10.432 -10.432 -10.430 -10.427 -10.427 -10.427 -10.423
-10.422 -10.420 -10.416 -10.413  -6.947  -6.938  -1.084  -1.077
 -1.016  -1.015  -0.963  -0.962  -0.959  -0.958  -0.956  -0.956
 -0.937  -0.936  -0.934  -0.933  -0.908  -0.899  -0.883  -0.880
 -0.862  -0.858  -0.855  -0.853  -0.851  -0.848  -0.848  -0.847
 -0.842  -0.841  -0.835  -0.833  -0.823  -0.815  -0.813  -0.812
 -0.811  -0.804  -0.791  -0.786  -0.765  -0.760  -0.736  -0.731
 -0.727  -0.721  -0.712  -0.712  -0.707  -0.705  -0.698  -0.696
 -0.690  -0.686  -0.682  -0.680  -0.676  -0.675  -0.667  -0.666
 -0.648  -0.645  -0.639  -0.638  -0.634  -0.631  -0.604  -0.604
 -0.597  -0.594  -0.593  -0.590  -0.585  -0.584  -0.583  -0.576
 -0.576  -0.562  -0.560  -0.553  -0.552  -0.545  -0.543  -0.540
 -0.539  -0.536  -0.528  -0.525  -0.524  -0.517  -0.516  -0.514
 -0.508  -0.507  -0.504  -0.503  -0.500  -0.497  -0.495  -0.494
 -0.494  -0.492  -0.490  -0.489  -0.488  -0.486  -0.484  -0.484
 -0.483  -0.482  -0.481  -0.479  -0.478  -0.476  -0.475  -0.471
 -0.468  -0.467  -0.466  -0.460  -0.456  -0.454  -0.447  -0.444
 -0.442  -0.441  -0.440  -0.436  -0.431  -0.429  -0.428  -0.427
 -0.425  -0.423  -0.422  -0.422  -0.419  -0.418  -0.416  -0.414
 -0.411  -0.409  -0.405  -0.402  -0.400  -0.399  -0.399  -0.397
 -0.395  -0.395  -0.395  -0.394  -0.392  -0.391  -0.388  -0.385
 -0.379  -0.377  -0.371  -0.364  -0.358  -0.355  -0.352  -0.349
 -0.344  -0.334  -0.319  -0.313  -0.307  -0.300  -0.298  -0.296
 -0.296  -0.296  -0.295  -0.291  -0.283  -0.281  -0.280  -0.274
 -0.273  -0.261  -0.255  -0.255  -0.219  -0.211

          Ground-State Mulliken Net Atomic Charges

     Atom                 Charge (a.u.)
  ----------------------------------------
      1 N                    -0.661663
      2 C                     0.329454
      3 C                    -0.390126
      4 H                     0.239617
      5 C                     0.101178
      6 C                    -0.388450
      7 H                     0.241231
      8 C                     0.074165
      9 C                     0.272643
     10 C                    -0.267254
     11 H                     0.242690
     12 C                    -0.216884
     13 H                     0.221708
     14 C                    -0.233274
     15 H                     0.218757
     16 C                    -0.218706
     17 H                     0.221712
     18 C                    -0.262866
     19 H                     0.247895
     20 C                     0.255258
     21 C                    -0.260269
     22 H                     0.242845
     23 C                    -0.218144
     24 H                     0.222526
     25 C                    -0.232010
     26 H                     0.219526
     27 C                    -0.218705
     28 H                     0.222628
     29 C                    -0.252800
     30 H                     0.241784
     31 C                    -0.248179
     32 C                    -0.758025
     33 H                     0.236329
     34 H                     0.244459
     35 H                     0.244475
     36 C                    -0.542545
     37 H                     0.248992
     38 H                     0.228782
     39 C                    -0.646301
     40 H                     0.242631
     41 H                     0.217381
     42 H                     0.215970
     43 B                     0.640421
     44 C                    -0.134899
     45 C                    -0.405168
     46 H                     0.235616
     47 C                     0.098689
     48 C                     0.116834
     49 C                    -0.389669
     50 H                     0.228343
     51 C                    -0.154411
     52 C                     0.195773
     53 C                    -0.378666
     54 H                     0.219686
     55 C                    -0.064111
     56 C                     0.253893
     57 C                     0.195623
     58 C                    -0.380400
     59 H                     0.217205
     60 C                    -0.204613
     61 H                     0.227051
     62 C                    -0.333633
     63 H                     0.220869
     64 C                    -0.202628
     65 H                     0.225586
     66 C                    -0.335584
     67 H                     0.221270
     68 C                    -0.144638
     69 C                    -0.376455
     70 H                     0.236268
     71 C                     0.099941
     72 C                     0.111522
     73 C                    -0.410082
     74 H                     0.234221
     75 C                    -0.145057
     76 C                     0.199991
     77 C                    -0.379288
     78 H                     0.218482
     79 C                    -0.065779
     80 C                     0.250340
     81 C                     0.198586
     82 C                    -0.385379
     83 H                     0.218044
     84 C                    -0.204468
     85 H                     0.226633
     86 C                    -0.331982
     87 H                     0.220791
     88 C                    -0.201983
     89 H                     0.226243
     90 C                    -0.334397
     91 H                     0.221286
     92 B                     0.673405
     93 C                    -0.211599
     94 C                     0.070491
     95 C                    -0.329759
     96 H                     0.227008
     97 C                     0.258500
     98 C                    -0.333471
     99 H                     0.229174
    100 C                     0.046729
    101 N                    -0.675153
    102 C                     0.315825
    103 C                    -0.290965
    104 H                     0.248301
    105 C                    -0.213209
    106 H                     0.218904
    107 C                    -0.240682
    108 H                     0.215710
    109 C                    -0.210652
    110 H                     0.215877
    111 C                    -0.284587
    112 H                     0.240595
    113 C                     0.318340
    114 C                    -0.289819
    115 H                     0.248493
    116 C                    -0.212851
    117 H                     0.218772
    118 C                    -0.241483
    119 H                     0.215094
    120 C                    -0.208954
    121 H                     0.211189
    122 C                    -0.286998
    123 H                     0.241807
    124 C                    -0.761684
    125 H                     0.239804
    126 H                     0.247114
    127 H                     0.246685
    128 C                    -0.546531
    129 H                     0.251325
    130 H                     0.232337
    131 C                    -0.644738
    132 H                     0.241203
    133 H                     0.215856
    134 H                     0.220245
  ----------------------------------------
  Sum of atomic charges =    -0.000000

                    Cartesian Multipole Moments
 -----------------------------------------------------------------
    Charge (ESU x 10^10)
                -0.0000
    Dipole Moment (Debye)
         X      -0.4290      Y       0.1278      Z      -2.0248
       Tot       2.0737
    Quadrupole Moments (Debye-Ang)
        XX    -448.3895     XY      -6.7965     YY    -389.5679
        XZ      -6.2087     YZ      12.9282     ZZ    -439.4218

 Total job time:  24894.84s(wall), 69584.13s(cpu)
        *  Thank you very much for using Q-Chem.  Have a nice day.  *
