 Q-Chem 5.0, Q-Chem, Inc., Pleasanton, CA (2017)
 Q-Chem 5.0.1 for Intel X86 EM64T Linux

User input:
--------------------------------------------------------------
$solvent
dielectric      2.03
dielectric_infi 2.02
$end

$rem
threads 8
jobtype	sp
method PBEh-3c
basis def2-mSVP
mem_static	1024
mem_total	14000
sym_ignore	true
cis_n_roots             2
cis_singlets            false
cis_triplets		true
rpa                     false
calc_soc 		true
cis_moments             true
cis_relaxed_density	true
solvent_method		pcm
$end

$pcm
StateSpecific   1
ChargeSeparation Excited
$end

$molecule
read ut1opt_chx.mol
$end

--------------------------------------------------------------

   14   -3006.3362759098      8.72E-09 Convergence criterion met
 Total energy in the final basis set = -3006.33627591
 Total job time:  17881.81s(wall), 38428.13s(cpu)
        *  Thank you very much for using Q-Chem.  Have a nice day.  *
 Q-Chem 5.0, Q-Chem, Inc., Pleasanton, CA (2017)
 Q-Chem 5.0.1 for Intel X86 EM64T Linux

User input:
--------------------------------------------------------------
$rem
threads 8
jobtype sp
method PBEh-3c
basis def2-mSVP
mem_static      1024
mem_total       14000
sym_ignore      true
cis_n_roots             6
cis_singlets            true
cis_triplets            true
rpa                     false
calc_soc                true
cis_moments             true
cis_relaxed_density     true
solvent_method          pcm
$end

$molecule
read
$end

$pcm
statespecific           Marcus
$end

$solvent
dielectric      2.03
dielectric_infi 2.02
$end

--------------------------------------------------------------

             Standard Nuclear Orientation (Angstroms)
    I     Atom           X                Y                Z
 ----------------------------------------------------------------
    1      N       0.0000000000     0.0000000000     0.0000000000
    2      C       0.0000000000     0.0000000000     1.3646040000
    3      C       1.2143301074     0.0000000000     2.0845752301
    4      H       2.1552490079    -0.0038606097     1.5488433831
    5      C       1.2072944158    -0.0981288715     3.4539838526
    6      C      -1.2263776717    -0.0342936168     2.0647981267
    7      H      -2.1565343623     0.0269637217     1.5145435941
    8      C      -1.2427507064    -0.1223881700     3.4323999396
    9      C       1.0777562680     0.5298949274    -0.7441285328
   10      C       1.5781428378    -0.1910366125    -1.8255838323
   11      H       1.1640749158    -1.1598787315    -2.0727666113
   12      C       2.6199222260     0.3340623292    -2.5679653406
   13      H       3.0173536007    -0.2290097415    -3.4014357004
   14      C       3.1582451980     1.5720448464    -2.2407025948
   15      H       3.9719761825     1.9789529779    -2.8256200083
   16      C       2.6489168909     2.2896363363    -1.1671780919
   17      H       3.0560468498     3.2603820630    -0.9196725211
   18      C       1.6051326346     1.7765439043    -0.4162270516
   19      H       1.1883646322     2.3462794148     0.4043663766
   20      C      -1.0756350883    -0.5738791024    -0.7200841631
   21      C      -1.6420217492     0.1218626545    -1.7847194819
   22      H      -1.2755171311     1.1046898173    -2.0517882315
   23      C      -2.6907863619    -0.4469230073    -2.4857369668
   24      H      -3.1416903183     0.0969761072    -3.3046684132
   25      C      -3.1692107566    -1.7031477320    -2.1362492844
   26      H      -3.9895783674    -2.1423454450    -2.6877915550
   27      C      -2.5915359140    -2.3972059365    -1.0823518359
   28      H      -2.9518342164    -3.3812920282    -0.8149300229
   29      C      -1.5420824798    -1.8397930348    -0.3724978941
   30      H      -1.0795389806    -2.3901732779     0.4370554116
   31      C      -0.0221576216    -0.2022125915     4.1587626614
   32      C      -2.5482492895    -0.1734665197     4.1643455764
   33      H      -3.3945729375    -0.1065508413     3.4816503861
   34      H      -2.6262844550     0.6363194125     4.8902291660
   35      H      -2.6358035242    -1.1040090435     4.7282238123
   36      C       2.5121415810    -0.1166716441     4.1962012684
   37      H       2.4527657288    -0.8176731839     5.0306168245
   38      H       3.3033676971    -0.4790009708     3.5358031350
   39      C       2.8755994417     1.2724928059     4.7170809711
   40      H       2.1276963270     1.6373736634     5.4201640061
   41      H       3.8325908122     1.2468363905     5.2375309502
   42      H       2.9544312709     1.9907683872     3.8997359351
   43      B      -0.0593371462    -0.5805469327     5.6908890959
   44      C      -0.2665293140     0.4572791013     6.7860041131
   45      C      -0.4441959961     1.8223323810     6.4753071556
   46      H      -0.4108303309     2.1450856475     5.4379929080
   47      C      -0.6728505582     2.7404421876     7.4668170524
   48      C      -0.7192812447     2.3273783891     8.8307208760
   49      C      -0.5304931518     1.0030451557     9.1535828037
   50      H      -0.5639869898     0.6868257331    10.1909528677
   51      C      -0.3121402961     0.0367636429     8.1499927298
   52      C      -0.9281622488     4.1756244546     7.4144787960
   53      C      -1.0248317703     5.1062323837     6.4114116871
   54      H      -0.8859254119     4.8406528267     5.3702316224
   55      C      -1.1273665901     4.5902494995     8.7453262497
   56      C      -1.4273030557     5.8964798303     9.1162026861
   57      C      -1.0095872388     3.5064596209     9.6416613360
   58      C      -1.1989287741     3.7495623699    10.9779995296
   59      H      -1.1284708559     2.9604927563    11.7163267271
   60      C      -1.3214131786     6.4430788798     6.7597947908
   61      H      -1.3994854740     7.1790961645     5.9694331030
   62      C      -1.5191841291     6.8397461282     8.0630484849
   63      H      -1.7494262733     7.8752756937     8.2819102982
   64      C      -1.5008810526     5.0695736095    11.3869278520
   65      H      -1.6508825055     5.2589105664    12.4421922285
   66      C      -1.6152507874     6.1177976490    10.5022105290
   67      H      -1.8530083768     7.1097065074    10.8662619840
   68      C       0.0582469590    -2.0664959347     6.0274831503
   69      C       0.1855283805    -3.0351292948     5.0099950822
   70      H       0.2063022352    -2.7314821929     3.9676023465
   71      C       0.2776350995    -4.3648618464     5.3200802117
   72      C       0.2570830784    -4.7969015183     6.6799288807
   73      C       0.1356136295    -3.8666812848     7.6852362919
   74      H       0.1141339152    -4.1847061097     8.7228372420
   75      C       0.0247325935    -2.4916460858     7.3894400304
   76      C       0.3959214262    -5.5434589509     4.4665651207
   77      C       0.4574885817    -5.7651797406     3.1124699975
   78      H       0.4261768907    -4.9502511823     2.3989849074
   79      C       0.4434873208    -6.6532414863     5.3317613400
   80      C       0.5490750545    -7.9740326495     4.8974076874
   81      C       0.3646266328    -6.2571402254     6.6838147718
   82      C       0.3955208677    -7.2410978782     7.6418254497
   83      H       0.3384169600    -7.0109978507     8.6982252045
   84      C       0.5650638804    -7.0950335005     2.6446693385
   85      H       0.6132720555    -7.2675206476     1.5765534091
   86      C       0.6106160986    -8.1745294309     3.4968923182
   87      H       0.6930016662    -9.1778639278     3.0961753349
   88      C       0.5040599231    -8.5909823671     7.2307494029
   89      H       0.5276711338    -9.3595247173     7.9930501391
   90      C       0.5795137489    -8.9642082441     5.9087204651
   91      H       0.6607054100   -10.0113580628     5.6428760867
   92      B      -0.1511930178    -1.4549929129     8.5099159035
   93      C      -0.1545550989    -1.8959491227    10.0269169714
   94      C      -1.3479351682    -2.0683769608    10.7390155399
   95      C      -1.3147723871    -2.3751594442    12.0950578319
   96      H      -2.2421215073    -2.4990894004    12.6445207563
   97      C      -0.1066386399    -2.4992156824    12.7627320260
   98      C       1.0821391133    -2.3526637702    12.0591017992
   99      H       2.0271771975    -2.4535909546    12.5809209909
  100      C       1.0648866985    -2.0629287441    10.7010867862
  101      N      -0.0880750934    -2.7540509644    14.1549688891
  102      C       0.6203557842    -3.8630664686    14.6282478492
  103      C       1.3216717606    -3.8140037347    15.8344586434
  104      H       1.3205343981    -2.9050936532    16.4221435216
  105      C       2.0274548289    -4.9193846110    16.2797555323
  106      H       2.5655448226    -4.8587578867    17.2172542016
  107      C       2.0692612488    -6.0853714422    15.5283056574
  108      H       2.6297536628    -6.9430483141    15.8755763728
  109      C       1.3847792035    -6.1319913499    14.3219832663
  110      H       1.4040048459    -7.0327883125    13.7216717919
  111      C       0.6602896195    -5.0394193308    13.8762241864
  112      H       0.1244144361    -5.0958167946    12.9374098088
  113      C      -0.7770985419    -1.8827927742    15.0057425089
  114      C      -1.4217619649    -2.3488256228    16.1534066901
  115      H      -1.3886975542    -3.4020255874    16.4011762126
  116      C      -2.1150420915    -1.4732195802    16.9726481519
  117      H      -2.6090712264    -1.8577583063    17.8559304077
  118      C      -2.2010954271    -0.1240381689    16.6595470735
  119      H      -2.7525631571     0.5544093832    17.2966114721
  120      C      -1.5721936282     0.3394713071    15.5126345697
  121      H      -1.6260051146     1.3885659711    15.2504066372
  122      C      -0.8605346451    -0.5231088819    14.6964873625
  123      H      -0.3711242162    -0.1425222281    13.8093814498
  124      C       2.3610802334    -1.8981226286     9.9568576158
  125      H       3.2208964948    -1.9759407839    10.6223369870
  126      H       2.4709137658    -2.6579575390     9.1805862229
  127      H       2.4123748010    -0.9296919875     9.4549213479
  128      C      -2.6844894360    -1.9746028146    10.0470054108
  129      H      -2.6439891024    -1.2269693541     9.2510687071
  130      H      -3.4402403388    -1.6252379317    10.7555589349
  131      C      -3.1294435674    -3.3105412745     9.4550311052
  132      H      -2.4225601659    -3.6615273638     8.7034546761
  133      H      -3.2067861236    -4.0782423039    10.2264117417
  134      H      -4.1051047886    -3.2187409563     8.9752341669
 ----------------------------------------------------------------

   14   -3006.3362253612      8.73E-09 Convergence criterion met
 Total energy in the final basis set = -3006.33622536

         TDDFT/TDA Excitation Energies
 ---------------------------------------------------

 Excited state   1: excitation energy (eV) =    2.0724
 Total energy for state  1:                 -3006.26006602 au
    Multiplicity: Triplet
    Trans. Mom.:  0.0000 X   0.0000 Y   0.0000 Z
    Strength   :     0.0000000000
    D(262) --> V(  1) amplitude =  0.9668

 Excited state   2: excitation energy (eV) =    2.0989
 Total energy for state  2:                 -3006.25909331 au
    Multiplicity: Singlet
    Trans. Mom.: -0.0220 X  -0.0475 Y   0.3109 Z
    Strength   :     0.0051107644
    D(262) --> V(  1) amplitude =  0.9727

 Excited state   3: excitation energy (eV) =    2.2191
 Total energy for state  3:                 -3006.25467405 au
    Multiplicity: Triplet
    Trans. Mom.:  0.0000 X   0.0000 Y   0.0000 Z
    Strength   :     0.0000000000
    D(259) --> V(  1) amplitude =  0.9122

 Excited state   4: excitation energy (eV) =    2.4307
 Total energy for state  4:                 -3006.24689972 au
    Multiplicity: Triplet
    Trans. Mom.:  0.0000 X   0.0000 Y   0.0000 Z
    Strength   :     0.0000000000
    D(258) --> V(  2) amplitude = -0.4759
    D(260) --> V(  1) amplitude =  0.7990

 Excited state   5: excitation energy (eV) =    2.4802
 Total energy for state  5:                 -3006.24508093 au
    Multiplicity: Triplet
    Trans. Mom.:  0.0000 X   0.0000 Y   0.0000 Z
    Strength   :     0.0000000000
    D(258) --> V(  1) amplitude =  0.6081
    D(260) --> V(  2) amplitude = -0.4407
    D(261) --> V(  1) amplitude =  0.5630

 Excited state   6: excitation energy (eV) =    2.5171
 Total energy for state  6:                 -3006.24372323 au
    Multiplicity: Triplet
    Trans. Mom.:  0.0000 X   0.0000 Y   0.0000 Z
    Strength   :     0.0000000000
    D(258) --> V(  1) amplitude = -0.4228
    D(260) --> V(  2) amplitude =  0.3255
    D(261) --> V(  1) amplitude =  0.7807

 Excited state   7: excitation energy (eV) =    2.5251
 Total energy for state  7:                 -3006.24343108 au
    Multiplicity: Singlet
    Trans. Mom.:  0.0163 X  -0.1110 Y   0.4257 Z
    Strength   :     0.0119885769
    D(261) --> V(  1) amplitude =  0.9744

 Excited state   8: excitation energy (eV) =    2.7291
 Total energy for state  8:                 -3006.23593367 au
    Multiplicity: Triplet
    Trans. Mom.:  0.0000 X   0.0000 Y   0.0000 Z
    Strength   :     0.0000000000
    D(253) --> V(  1) amplitude =  0.3536
    D(254) --> V(  1) amplitude = -0.4996
    D(255) --> V(  1) amplitude = -0.3365
    D(259) --> V(  2) amplitude =  0.5537

 Excited state   9: excitation energy (eV) =    2.8855
 Total energy for state  9:                 -3006.23018375 au
    Multiplicity: Singlet
    Trans. Mom.: -0.0134 X   0.0595 Y   0.0162 Z
    Strength   :     0.0002817666
    D(259) --> V(  1) amplitude =  0.9608

 Excited state  10: excitation energy (eV) =    3.1309
 Total energy for state 10:                 -3006.22116814 au
    Multiplicity: Singlet
    Trans. Mom.:  0.5405 X  -3.8263 Y  -1.1620 Z
    Strength   :     1.2489889834
    D(260) --> V(  1) amplitude =  0.9490

 Excited state  11: excitation energy (eV) =    3.3648
 Total energy for state 11:                 -3006.21257302 au
    Multiplicity: Singlet
    Trans. Mom.: -0.0201 X  -0.0244 Y  -0.0140 Z
    Strength   :     0.0000984812
    D(262) --> V(  2) amplitude =  0.9913

 Excited state  12: excitation energy (eV) =    3.4315
 Total energy for state 12:                 -3006.21012071 au
    Multiplicity: Singlet
    Trans. Mom.:  0.1579 X  -0.0537 Y  -0.1013 Z
    Strength   :     0.0032027695
    D(258) --> V(  1) amplitude =  0.9339

 ---------------------------------------------------

                    Orbital Energies (a.u.)
 --------------------------------------------------------------

 Alpha MOs
 -- Occupied --
-14.670 -14.670 -10.492 -10.492 -10.491 -10.491 -10.486 -10.483
-10.467 -10.466 -10.466 -10.466 -10.466 -10.466 -10.466 -10.465
-10.465 -10.464 -10.464 -10.463 -10.463 -10.463 -10.463 -10.463
-10.462 -10.462 -10.460 -10.460 -10.460 -10.459 -10.456 -10.456
-10.456 -10.455 -10.453 -10.452 -10.450 -10.450 -10.450 -10.450
-10.450 -10.450 -10.449 -10.449 -10.448 -10.448 -10.447 -10.447
-10.447 -10.447 -10.447 -10.447 -10.446 -10.445 -10.443 -10.443
-10.443 -10.443 -10.440 -10.440 -10.438 -10.438 -10.438 -10.437
-10.435 -10.435 -10.435 -10.432 -10.430 -10.430 -10.427 -10.426
-10.424 -10.420 -10.418 -10.416  -6.949  -6.942  -1.086  -1.080
 -1.017  -1.017  -0.964  -0.964  -0.961  -0.960  -0.959  -0.958
 -0.939  -0.939  -0.935  -0.934  -0.909  -0.900  -0.884  -0.883
 -0.865  -0.860  -0.857  -0.855  -0.852  -0.851  -0.848  -0.847
 -0.842  -0.841  -0.838  -0.835  -0.825  -0.816  -0.815  -0.814
 -0.813  -0.805  -0.793  -0.789  -0.767  -0.762  -0.737  -0.732
 -0.728  -0.722  -0.713  -0.713  -0.709  -0.707  -0.701  -0.697
 -0.690  -0.686  -0.683  -0.681  -0.678  -0.677  -0.669  -0.668
 -0.649  -0.647  -0.640  -0.639  -0.636  -0.633  -0.606  -0.604
 -0.597  -0.595  -0.592  -0.590  -0.586  -0.586  -0.584  -0.577
 -0.577  -0.563  -0.561  -0.554  -0.553  -0.545  -0.544  -0.542
 -0.540  -0.537  -0.528  -0.525  -0.525  -0.520  -0.518  -0.514
 -0.509  -0.509  -0.505  -0.502  -0.501  -0.498  -0.496  -0.496
 -0.495  -0.493  -0.491  -0.489  -0.488  -0.487  -0.486  -0.486
 -0.484  -0.483  -0.482  -0.480  -0.479  -0.477  -0.476  -0.472
 -0.469  -0.467  -0.466  -0.462  -0.457  -0.455  -0.448  -0.444
 -0.443  -0.441  -0.441  -0.438  -0.433  -0.430  -0.430  -0.428
 -0.427  -0.425  -0.425  -0.422  -0.420  -0.420  -0.418  -0.414
 -0.412  -0.410  -0.406  -0.402  -0.401  -0.400  -0.399  -0.398
 -0.397  -0.396  -0.395  -0.394  -0.393  -0.392  -0.389  -0.386
 -0.381  -0.378  -0.373  -0.367  -0.361  -0.357  -0.355  -0.351
 -0.347  -0.337  -0.322  -0.316  -0.309  -0.302  -0.301  -0.299
 -0.298  -0.297  -0.296  -0.294  -0.286  -0.283  -0.282  -0.276
 -0.276  -0.263  -0.258  -0.257  -0.222  -0.214

          Ground-State Mulliken Net Atomic Charges

     Atom                 Charge (a.u.)
  ----------------------------------------
      1 N                    -0.659109
      2 C                     0.328547
      3 C                    -0.394780
      4 H                     0.247430
      5 C                     0.088637
      6 C                    -0.397647
      7 H                     0.250039
      8 C                     0.066703
      9 C                     0.272944
     10 C                    -0.280286
     11 H                     0.254779
     12 C                    -0.232690
     13 H                     0.238503
     14 C                    -0.250467
     15 H                     0.234728
     16 C                    -0.234292
     17 H                     0.238481
     18 C                    -0.273815
     19 H                     0.258360
     20 C                     0.254366
     21 C                    -0.272797
     22 H                     0.254489
     23 C                    -0.234069
     24 H                     0.239113
     25 C                    -0.248573
     26 H                     0.235501
     27 C                    -0.234284
     28 H                     0.239009
     29 C                    -0.264295
     30 H                     0.255547
     31 C                    -0.246066
     32 C                    -0.766569
     33 H                     0.245377
     34 H                     0.246513
     35 H                     0.246814
     36 C                    -0.544798
     37 H                     0.250586
     38 H                     0.236401
     39 C                    -0.653322
     40 H                     0.239309
     41 H                     0.222878
     42 H                     0.219747
     43 B                     0.641175
     44 C                    -0.136756
     45 C                    -0.404367
     46 H                     0.244509
     47 C                     0.088699
     48 C                     0.105945
     49 C                    -0.394598
     50 H                     0.238666
     51 C                    -0.155585
     52 C                     0.185025
     53 C                    -0.385211
     54 H                     0.239248
     55 C                    -0.065863
     56 C                     0.235893
     57 C                     0.184718
     58 C                    -0.387669
     59 H                     0.237597
     60 C                    -0.221553
     61 H                     0.245155
     62 C                    -0.341754
     63 H                     0.240955
     64 C                    -0.219983
     65 H                     0.244058
     66 C                    -0.343847
     67 H                     0.241320
     68 C                    -0.145871
     69 C                    -0.382481
     70 H                     0.244206
     71 C                     0.090238
     72 C                     0.100676
     73 C                    -0.408509
     74 H                     0.244336
     75 C                    -0.146920
     76 C                     0.188178
     77 C                    -0.385969
     78 H                     0.238478
     79 C                    -0.067490
     80 C                     0.232128
     81 C                     0.188431
     82 C                    -0.392127
     83 H                     0.237830
     84 C                    -0.221322
     85 H                     0.244840
     86 C                    -0.340168
     87 H                     0.241027
     88 C                    -0.219235
     89 H                     0.244326
     90 C                    -0.342474
     91 H                     0.241445
     92 B                     0.671338
     93 C                    -0.211712
     94 C                     0.064050
     95 C                    -0.339515
     96 H                     0.237456
     97 C                     0.264130
     98 C                    -0.345721
     99 H                     0.239966
    100 C                     0.040787
    101 N                    -0.674201
    102 C                     0.314540
    103 C                    -0.298525
    104 H                     0.256870
    105 C                    -0.229565
    106 H                     0.235991
    107 C                    -0.258072
    108 H                     0.232583
    109 C                    -0.227716
    110 H                     0.234032
    111 C                    -0.298183
    112 H                     0.251637
    113 C                     0.315091
    114 C                    -0.299177
    115 H                     0.257007
    116 C                    -0.229389
    117 H                     0.235907
    118 C                    -0.258883
    119 H                     0.232174
    120 C                    -0.226982
    121 H                     0.231892
    122 C                    -0.298589
    123 H                     0.252662
    124 C                    -0.768879
    125 H                     0.248413
    126 H                     0.248790
    127 H                     0.249066
    128 C                    -0.548538
    129 H                     0.252026
    130 H                     0.239115
    131 C                    -0.652965
    132 H                     0.239787
    133 H                     0.219841
    134 H                     0.225168
  ----------------------------------------
  Sum of atomic charges =    -0.000000

                    Cartesian Multipole Moments
 -----------------------------------------------------------------
    Charge (ESU x 10^10)
                -0.0000
    Dipole Moment (Debye)
         X      -0.4939      Y       0.0905      Z      -2.0566
       Tot       2.1170
    Quadrupole Moments (Debye-Ang)
        XX    -446.2326     XY      -7.8049     YY    -377.4557
        XZ      -7.1839     YZ      13.1783     ZZ    -432.6921

 Total job time:  27099.79s(wall), 79824.16s(cpu)
        *  Thank you very much for using Q-Chem.  Have a nice day.  *
