 Q-Chem 5.0, Q-Chem, Inc., Pleasanton, CA (2017)
 Q-Chem 5.0.1 for Intel X86 EM64T Linux

User input:
--------------------------------------------------------------
$solvent
dielectric      8.93
dielectric_infi 2.03
$end

$rem
threads 8
jobtype	sp
method PBEh-3c
basis def2-mSVP
mem_static	1024
mem_total	14000
sym_ignore	true
cis_n_roots             2
cis_singlets            false
cis_triplets		true
rpa                     false
calc_soc 		true
cis_moments             true
cis_relaxed_density	true
solvent_method		pcm
$end

$pcm
StateSpecific   1
ChargeSeparation Excited
$end

$molecule
read ut1opt_dcm.mol
$end

--------------------------------------------------------------

   14   -3006.3558947947      7.64E-09 Convergence criterion met
 Total energy in the final basis set = -3006.35589479
 Q-Chem 5.0, Q-Chem, Inc., Pleasanton, CA (2017)
 Q-Chem 5.0.1 for Intel X86 EM64T Linux

User input:
--------------------------------------------------------------
$rem
threads 8
jobtype sp
method PBEh-3c
basis def2-mSVP
mem_static      1024
mem_total       14000
sym_ignore      true
cis_n_roots             6
cis_singlets            true
cis_triplets            true
rpa                     false
calc_soc                true
cis_moments             true
cis_relaxed_density     true
solvent_method          pcm
$end

$molecule
read
$end

$pcm
statespecific           Marcus
$end

$solvent
dielectric      8.93
dielectric_infi 2.03
$end

--------------------------------------------------------------

             Standard Nuclear Orientation (Angstroms)
    I     Atom           X                Y                Z
 ----------------------------------------------------------------
    1      N       0.0000000000     0.0000000000     0.0000000000
    2      C       0.0000000000     0.0000000000     1.3729200000
    3      C       1.2142798795     0.0000000000     2.0818961692
    4      H       2.1520132611    -0.0317231558     1.5407213658
    5      C       1.2119255769    -0.0479091117     3.4584196849
    6      C       1.0318135863     0.6289929695    -0.7217517370
    7      C       1.4775096415     1.8913466373    -0.3291783257
    8      H       1.0195615514     2.3938741382     0.5128864950
    9      C       2.4849123878     2.5076858533    -1.0491821884
   10      H       2.8250214013     3.4911671136    -0.7552072438
   11      C       3.0433708467     1.8752963646    -2.1530974610
   12      H       3.8305120793     2.3615468908    -2.7135072570
   13      C       2.5889589522     0.6204820168    -2.5429107347
   14      H       3.0279836059     0.1246783318    -3.3980241241
   15      C       1.5810703382    -0.0073809197    -1.8352491605
   16      H       1.2393649936    -0.9920350227    -2.1269822108
   17      C      -1.2218703001    -0.0179925652     2.0730616955
   18      H      -2.1551159295     0.0297172898     1.5259256857
   19      C      -1.2295368011    -0.0482532946     3.4469360920
   20      C      -1.0348217917    -0.6361275172    -0.7140860006
   21      C      -1.6122389780     0.0011437341    -1.8122436186
   22      H      -1.2856628793     0.9898262258    -2.1073459960
   23      C      -2.6322297099    -0.6297390149    -2.5010447488
   24      H      -3.0933748808    -0.1320692678    -3.3433413824
   25      C      -3.0719687587    -1.8887168414    -2.1083838378
   26      H      -3.8698971139    -2.3761519362    -2.6524585227
   27      C      -2.4850031151    -2.5229313262    -1.0207753888
   28      H      -2.8137066010    -3.5091873234    -0.7224843033
   29      C      -1.4652287782    -1.9037832281    -0.3204437108
   30      H      -0.9896513979    -2.4085570162     0.5106148340
   31      C      -0.0098778518    -0.0831365541     4.1685880545
   32      C      -2.5352691745    -0.0568069313     4.1839891037
   33      H      -3.3823012783    -0.0048647880     3.5010239209
   34      H      -2.6037124798     0.7827984172     4.8768774798
   35      H      -2.6368284960    -0.9651360299     4.7807951012
   36      C       2.5285276006    -0.0525137492     4.1841264060
   37      H       2.4352793680    -0.5994282041     5.1242313850
   38      H       3.2722164744    -0.5836336300     3.5855495325
   39      C       3.0188667912     1.3670756344     4.4611967719
   40      H       2.3153875840     1.9086804104     5.0934619020
   41      H       3.9816799417     1.3496806689     4.9718881587
   42      H       3.1391410095     1.9274976213     3.5329054098
   43      B      -0.0415655894    -0.2639552743     5.7384562646
   44      C      -0.1213747736     0.9350282730     6.6796068514
   45      C      -0.2115616264     2.2480145609     6.1710042981
   46      H      -0.2119209148     2.4078153144     5.0964991792
   47      C      -0.3090184318     3.3215262210     7.0190768376
   48      C      -0.3099671257     3.1235620886     8.4324317588
   49      C      -0.2146974735     1.8504576313     8.9469023805
   50      H      -0.2191081344     1.6993802459    10.0215499040
   51      C      -0.1292117117     0.7285013695     8.0943102533
   52      C      -0.4419548005     4.7496162949     6.7568694313
   53      C      -0.5135780035     5.5240192932     5.6256855452
   54      H      -0.4609104817     5.0927325163     4.6331301254
   55      C      -0.5229233588     5.3766786841     8.0158123955
   56      C      -0.6791200803     6.7479506060     8.1926014940
   57      C      -0.4467557641     4.4338600466     9.0639673836
   58      C      -0.5275518694     4.8930697655    10.3547623127
   59      H      -0.4789985513     4.2224597860    11.2039101813
   60      C      -0.6662530747     6.9212994816     5.7763570186
   61      H      -0.7241231593     7.5341496294     4.8855575152
   62      C      -0.7481706800     7.5275444976     7.0105567438
   63      H      -0.8688576656     8.6019529469     7.0766202030
   64      C      -0.6836682611     6.2835389359    10.5665940405
   65      H      -0.7482226199     6.6435578375    11.5855239047
   66      C      -0.7589178249     7.1932901474     9.5350257578
   67      H      -0.8822624386     8.2474925263     9.7506625788
   68      C      -0.0309942105    -1.6875174352     6.2982059357
   69      C      -0.0329098753    -2.8012936881     5.4333706779
   70      H      -0.0335300106    -2.6533223649     4.3578693466
   71      C      -0.0428253704    -4.0754725503     5.9374977172
   72      C      -0.0370593461    -4.2988197187     7.3481098573
   73      C      -0.0302863899    -3.2243994326     8.2062895796
   74      H      -0.0296762876    -3.3873234937     9.2795314570
   75      C      -0.0366070479    -1.9021417317     7.7105910264
   76      C      -0.0660807894    -5.3733145578     5.2687503317
   77      C      -0.0870511252    -5.7972403460     3.9616371337
   78      H      -0.0846692151    -5.0985404657     3.1336884474
   79      C      -0.0728717405    -6.3428544735     6.2906287113
   80      C      -0.0997089869    -7.7181143309     6.0583788953
   81      C      -0.0545406008    -5.7466520642     7.5696709088
   82      C      -0.0624348070    -6.5762759427     8.6653479006
   83      H      -0.0505210502    -6.1884098342     9.6762909700
   84      C      -0.1139727702    -7.1870377042     3.6982835223
   85      H      -0.1309823531    -7.5180600809     2.6673486250
   86      C      -0.1202298873    -8.1292088044     4.7024421836
   87      H      -0.1418975835    -9.1842161546     4.4563928692
   88      C      -0.0879217376    -7.9769639932     8.4600479460
   89      H      -0.0940902798    -8.6233421530     9.3286665560
   90      C      -0.1061914654    -8.5467677112     7.2068566890
   91      H      -0.1266982483    -9.6246970751     7.0993322735
   92      B      -0.0706566145    -0.7016960532     8.6689486854
   93      C      -0.0393866999    -0.9117342864    10.2354944317
   94      C      -1.2100947296    -0.8686486366    11.0034197604
   95      C      -1.1438010754    -0.9713934623    12.3893442184
   96      H      -2.0544627732    -0.9299785730    12.9781435882
   97      C       0.0779509061    -1.1019409742    13.0311055501
   98      C       1.2427464550    -1.1698596758    12.2762571717
   99      H       2.1993107321    -1.2747175280    12.7761658004
  100      C       1.1900358066    -1.0867878716    10.8904180123
  101      N       0.1369180875    -1.1468134888    14.4444194020
  102      C      -0.4264933467    -0.0959119502    15.1765634421
  103      C      -1.0308183590    -0.3197764700    16.4161469046
  104      H      -1.0656144340    -1.3197921618    16.8293689537
  105      C      -1.5975459810     0.7305030622    17.1202954266
  106      H      -2.0615211721     0.5323587265    18.0782974786
  107      C      -1.5959378075     2.0182101440    16.6008260437
  108      H      -2.0486322271     2.8333375425    17.1495670858
  109      C      -1.0074170767     2.2413639353    15.3633048750
  110      H      -0.9932580840     3.2379006389    14.9400457280
  111      C      -0.4210685670     1.2022849713    14.6593420556
  112      H       0.0397906282     1.4002904331    13.7001334454
  113      C       0.7842762234    -2.2271046682    15.0560519851
  114      C       1.5729102081    -2.0496679775    16.1942904909
  115      H       1.6896537569    -1.0626541606    16.6231169777
  116      C       2.2172233886    -3.1304350919    16.7752018687
  117      H       2.8251952138    -2.9708703452    17.6567265965
  118      C       2.1086837100    -4.4009107146    16.2255163570
  119      H       2.6212072219    -5.2400680093    16.6769348079
  120      C       1.3359236849    -4.5776576454    15.0855328106
  121      H       1.2370608617    -5.5611323979    14.6435988327
  122      C       0.6721766481    -3.5072368838    14.5081615392
  123      H       0.0655660272    -3.6649428114    13.6252808549
  124      C       2.4625059262    -1.1610663794    10.0921277379
  125      H       3.3408700886    -1.2030374134    10.7361923236
  126      H       2.4756537495    -2.0466957396     9.4535107524
  127      H       2.5724705317    -0.2986200917     9.4314253763
  128      C      -2.5652655260    -0.7669283273    10.3492731851
  129      H      -2.4952557458    -0.1868213780     9.4261508513
  130      H      -3.2495480799    -0.2210949266    11.0041933765
  131      C      -3.1599066638    -2.1384431822    10.0344569335
  132      H      -2.5240424878    -2.6914466130     9.3427118951
  133      H      -3.2687784694    -2.7371990141    10.9399316553
  134      H      -4.1452147928    -2.0412685593     9.5761785511
 ----------------------------------------------------------------

   14   -3006.3465216632      8.75E-09 Convergence criterion met
 Total energy in the final basis set = -3006.34652166

         TDDFT/TDA Excitation Energies
 ---------------------------------------------------

 Excited state   1: excitation energy (eV) =    1.6159
 Total energy for state  1:                 -3006.28713711 au
    Multiplicity: Triplet
    Trans. Mom.:  0.0000 X   0.0000 Y   0.0000 Z
    Strength   :     0.0000000000
    D(262) --> V(  1) amplitude =  0.9744

 Excited state   2: excitation energy (eV) =    1.6308
 Total energy for state  2:                 -3006.28659258 au
    Multiplicity: Singlet
    Trans. Mom.: -0.0021 X   0.0291 Y   0.0538 Z
    Strength   :     0.0001495172
    D(262) --> V(  1) amplitude =  0.9776

 Excited state   3: excitation energy (eV) =    2.2473
 Total energy for state  3:                 -3006.26393395 au
    Multiplicity: Triplet
    Trans. Mom.:  0.0000 X   0.0000 Y   0.0000 Z
    Strength   :     0.0000000000
    D(251) --> V(  2) amplitude =  0.2258
    D(258) --> V(  1) amplitude = -0.8862
    D(259) --> V(  1) amplitude =  0.2316

 Excited state   4: excitation energy (eV) =    2.4285
 Total energy for state  4:                 -3006.25727444 au
    Multiplicity: Triplet
    Trans. Mom.:  0.0000 X   0.0000 Y   0.0000 Z
    Strength   :     0.0000000000
    D(256) --> V(  2) amplitude = -0.3070
    D(257) --> V(  2) amplitude =  0.3630
    D(260) --> V(  1) amplitude =  0.7857

 Excited state   5: excitation energy (eV) =    2.4826
 Total energy for state  5:                 -3006.25528676 au
    Multiplicity: Triplet
    Trans. Mom.:  0.0000 X   0.0000 Y   0.0000 Z
    Strength   :     0.0000000000
    D(256) --> V(  1) amplitude =  0.4354
    D(257) --> V(  1) amplitude = -0.5337
    D(260) --> V(  2) amplitude = -0.4910
    D(261) --> V(  1) amplitude =  0.3763

 Excited state   6: excitation energy (eV) =    2.5338
 Total energy for state  6:                 -3006.25340651 au
    Multiplicity: Triplet
    Trans. Mom.:  0.0000 X   0.0000 Y   0.0000 Z
    Strength   :     0.0000000000
    D(261) --> V(  1) amplitude =  0.8865

 Excited state   7: excitation energy (eV) =    2.5469
 Total energy for state  7:                 -3006.25292604 au
    Multiplicity: Singlet
    Trans. Mom.:  0.0272 X  -0.0425 Y   0.4285 Z
    Strength   :     0.0116134665
    D(261) --> V(  1) amplitude =  0.9748

 Excited state   8: excitation energy (eV) =    2.7490
 Total energy for state  8:                 -3006.24549937 au
    Multiplicity: Triplet
    Trans. Mom.:  0.0000 X   0.0000 Y   0.0000 Z
    Strength   :     0.0000000000
    D(250) --> V(  1) amplitude = -0.2606
    D(251) --> V(  1) amplitude = -0.6425
    D(258) --> V(  2) amplitude =  0.5340

 Excited state   9: excitation energy (eV) =    2.8565
 Total energy for state  9:                 -3006.24154668 au
    Multiplicity: Singlet
    Trans. Mom.:  0.0206 X   0.0172 Y   0.0326 Z
    Strength   :     0.0001245290
    D(262) --> V(  2) amplitude =  0.9945

 Excited state  10: excitation energy (eV) =    2.9160
 Total energy for state 10:                 -3006.23936155 au
    Multiplicity: Singlet
    Trans. Mom.: -0.0064 X   0.1779 Y   0.0284 Z
    Strength   :     0.0023205919
    D(258) --> V(  1) amplitude = -0.9300
    D(259) --> V(  1) amplitude =  0.2530

 Excited state  11: excitation energy (eV) =    3.1240
 Total energy for state 11:                 -3006.23171859 au
    Multiplicity: Singlet
    Trans. Mom.: -0.1555 X   3.9796 Y   0.5976 Z
    Strength   :     1.2412923359
    D(260) --> V(  1) amplitude =  0.9483

 Excited state  12: excitation energy (eV) =    3.2309
 Total energy for state 12:                 -3006.22778741 au
    Multiplicity: Singlet
    Trans. Mom.:  0.0026 X  -0.4022 Y  -0.0416 Z
    Strength   :     0.0129410604
    D(258) --> V(  1) amplitude =  0.2437
    D(259) --> V(  1) amplitude =  0.8731
    D(262) --> V(  3) amplitude =  0.2526

 ---------------------------------------------------

                    Orbital Energies (a.u.)
 --------------------------------------------------------------

 Alpha MOs
 -- Occupied --
-14.680 -14.657 -10.502 -10.501 -10.495 -10.477 -10.477 -10.477
-10.476 -10.476 -10.475 -10.475 -10.475 -10.475 -10.475 -10.475
-10.474 -10.474 -10.473 -10.472 -10.471 -10.471 -10.471 -10.470
-10.470 -10.469 -10.468 -10.468 -10.468 -10.467 -10.467 -10.466
-10.465 -10.464 -10.464 -10.462 -10.459 -10.459 -10.455 -10.455
-10.455 -10.455 -10.453 -10.452 -10.452 -10.452 -10.450 -10.449
-10.449 -10.449 -10.448 -10.448 -10.446 -10.445 -10.445 -10.445
-10.442 -10.438 -10.438 -10.434 -10.434 -10.433 -10.433 -10.432
-10.431 -10.431 -10.431 -10.431 -10.430 -10.429 -10.428 -10.423
-10.422 -10.422 -10.417 -10.413  -6.961  -6.949  -1.090  -1.073
 -1.027  -1.026  -0.974  -0.971  -0.969  -0.969  -0.949  -0.949
 -0.947  -0.943  -0.942  -0.928  -0.918  -0.910  -0.895  -0.878
 -0.874  -0.866  -0.866  -0.860  -0.856  -0.855  -0.850  -0.847
 -0.844  -0.837  -0.834  -0.827  -0.825  -0.825  -0.822  -0.821
 -0.814  -0.806  -0.803  -0.780  -0.778  -0.758  -0.745  -0.739
 -0.736  -0.730  -0.724  -0.716  -0.710  -0.707  -0.699  -0.698
 -0.689  -0.688  -0.687  -0.686  -0.678  -0.676  -0.668  -0.663
 -0.656  -0.655  -0.650  -0.646  -0.628  -0.625  -0.615  -0.605
 -0.601  -0.599  -0.596  -0.596  -0.591  -0.591  -0.584  -0.584
 -0.576  -0.570  -0.564  -0.554  -0.553  -0.551  -0.549  -0.542
 -0.539  -0.536  -0.531  -0.528  -0.527  -0.522  -0.518  -0.517
 -0.513  -0.511  -0.510  -0.505  -0.504  -0.503  -0.502  -0.499
 -0.498  -0.497  -0.496  -0.494  -0.491  -0.490  -0.489  -0.488
 -0.487  -0.486  -0.483  -0.482  -0.480  -0.475  -0.474  -0.473
 -0.471  -0.469  -0.468  -0.467  -0.463  -0.457  -0.453  -0.452
 -0.451  -0.449  -0.445  -0.441  -0.440  -0.437  -0.436  -0.434
 -0.430  -0.429  -0.427  -0.421  -0.418  -0.418  -0.416  -0.412
 -0.412  -0.409  -0.406  -0.406  -0.405  -0.404  -0.403  -0.403
 -0.402  -0.400  -0.400  -0.398  -0.396  -0.390  -0.389  -0.387
 -0.385  -0.384  -0.380  -0.368  -0.367  -0.364  -0.362  -0.361
 -0.342  -0.340  -0.332  -0.326  -0.311  -0.309  -0.306  -0.305
 -0.305  -0.296  -0.294  -0.292  -0.288  -0.287  -0.284  -0.273
 -0.272  -0.269  -0.268  -0.266  -0.233  -0.204

          Ground-State Mulliken Net Atomic Charges

     Atom                 Charge (a.u.)
  ----------------------------------------
      1 N                    -0.657302
      2 C                     0.325566
      3 C                    -0.381643
      4 H                     0.260759
      5 C                     0.076059
      6 C                     0.271748
      7 C                    -0.279634
      8 H                     0.266626
      9 C                    -0.244076
     10 H                     0.246964
     11 C                    -0.262564
     12 H                     0.243780
     13 C                    -0.243284
     14 H                     0.248836
     15 C                    -0.287050
     16 H                     0.266374
     17 C                    -0.389934
     18 H                     0.263887
     19 C                     0.064199
     20 C                     0.265699
     21 C                    -0.283351
     22 H                     0.266843
     23 C                    -0.243870
     24 H                     0.249258
     25 C                    -0.261679
     26 H                     0.244053
     27 C                    -0.243556
     28 H                     0.245939
     29 C                    -0.276643
     30 H                     0.264289
     31 C                    -0.250714
     32 C                    -0.773086
     33 H                     0.260994
     34 H                     0.238485
     35 H                     0.238358
     36 C                    -0.546040
     37 H                     0.237110
     38 H                     0.249373
     39 C                    -0.658036
     40 H                     0.226423
     41 H                     0.223649
     42 H                     0.233512
     43 B                     0.646134
     44 C                    -0.144171
     45 C                    -0.403467
     46 H                     0.266372
     47 C                     0.077695
     48 C                     0.093548
     49 C                    -0.403730
     50 H                     0.243821
     51 C                    -0.156950
     52 C                     0.172956
     53 C                    -0.389897
     54 H                     0.263144
     55 C                    -0.068170
     56 C                     0.217522
     57 C                     0.172812
     58 C                    -0.396316
     59 H                     0.252942
     60 C                    -0.236487
     61 H                     0.265172
     62 C                    -0.348100
     63 H                     0.259783
     64 C                    -0.235336
     65 H                     0.260870
     66 C                    -0.350722
     67 H                     0.259933
     68 C                    -0.152448
     69 C                    -0.391705
     70 H                     0.265786
     71 C                     0.078124
     72 C                     0.087313
     73 C                    -0.411108
     74 H                     0.247740
     75 C                    -0.150220
     76 C                     0.175947
     77 C                    -0.390981
     78 H                     0.264689
     79 C                    -0.069319
     80 C                     0.213399
     81 C                     0.176211
     82 C                    -0.399710
     83 H                     0.252500
     84 C                    -0.236210
     85 H                     0.265799
     86 C                    -0.346733
     87 H                     0.260094
     88 C                    -0.234794
     89 H                     0.260947
     90 C                    -0.348987
     91 H                     0.260110
     92 B                     0.652023
     93 C                    -0.208746
     94 C                     0.053805
     95 C                    -0.345248
     96 H                     0.246609
     97 C                     0.267416
     98 C                    -0.354952
     99 H                     0.249485
    100 C                     0.031853
    101 N                    -0.673194
    102 C                     0.314923
    103 C                    -0.307799
    104 H                     0.264717
    105 C                    -0.241994
    106 H                     0.252000
    107 C                    -0.273292
    108 H                     0.248060
    109 C                    -0.240688
    110 H                     0.248520
    111 C                    -0.310876
    112 H                     0.258495
    113 C                     0.309168
    114 C                    -0.304526
    115 H                     0.264287
    116 C                    -0.242841
    117 H                     0.252458
    118 C                    -0.270748
    119 H                     0.249017
    120 C                    -0.241420
    121 H                     0.250381
    122 C                    -0.307219
    123 H                     0.257582
    124 C                    -0.772068
    125 H                     0.257969
    126 H                     0.247838
    127 H                     0.248184
    128 C                    -0.548205
    129 H                     0.248927
    130 H                     0.246066
    131 C                    -0.658394
    132 H                     0.232478
    133 H                     0.224961
    134 H                     0.232865
  ----------------------------------------
  Sum of atomic charges =    -0.000000

                    Cartesian Multipole Moments
 -----------------------------------------------------------------
    Charge (ESU x 10^10)
                -0.0000
    Dipole Moment (Debye)
         X      -0.4707      Y       0.0797      Z      -3.6595
       Tot       3.6905
    Quadrupole Moments (Debye-Ang)
        XX    -447.3666     XY      -2.1835     YY    -360.1663
        XZ      -3.0279     YZ       6.8627     ZZ    -440.8374

 Total job time:  25634.03s(wall), 74231.20s(cpu)
        *  Thank you very much for using Q-Chem.  Have a nice day.  *
