 Q-Chem 5.0, Q-Chem, Inc., Pleasanton, CA (2017)
 Q-Chem 5.0.1 for Intel X86 EM64T Linux

User input:
--------------------------------------------------------------
$solvent
dielectric      2.38
dielectric_infi 2.25
$end

$rem
threads 8
jobtype	sp
method PBEh-3c
basis def2-mSVP
mem_static	1024
mem_total	14000
sym_ignore	true
cis_n_roots             2
cis_singlets            false
cis_triplets		true
rpa                     false
calc_soc 		true
cis_moments             true
cis_relaxed_density	true
solvent_method		pcm
$end

$pcm
StateSpecific   1
ChargeSeparation Excited
$end

$molecule
read ut1opt_tol.mol
$end

--------------------------------------------------------------

   14   -3006.3395722223      8.43E-09 Convergence criterion met
 Total energy in the final basis set = -3006.33957222
 Q-Chem 5.0, Q-Chem, Inc., Pleasanton, CA (2017)
 Q-Chem 5.0.1 for Intel X86 EM64T Linux

User input:
--------------------------------------------------------------
$rem
threads 8
jobtype sp
method PBEh-3c
basis def2-mSVP
mem_static      1024
mem_total       14000
sym_ignore      true
cis_n_roots             6
cis_singlets            true
cis_triplets            true
rpa                     false
calc_soc                true
cis_moments             true
cis_relaxed_density     true
solvent_method          pcm
$end

$molecule
read
$end

$pcm
statespecific           Marcus
$end

$solvent
dielectric      2.38
dielectric_infi 2.25
$end

--------------------------------------------------------------

             Standard Nuclear Orientation (Angstroms)
    I     Atom           X                Y                Z
 ----------------------------------------------------------------
    1      N       0.0000000000     0.0000000000     0.0000000000
    2      C       0.0000000000     0.0000000000     1.3650020000
    3      C       1.2140367974     0.0000000000     2.0846875320
    4      H       2.1551821177    -0.0045516763     1.5493003241
    5      C       1.2066171093    -0.0965886534     3.4546707901
    6      C      -1.2261094775    -0.0342453833     2.0650347471
    7      H      -2.1564230313     0.0272134710     1.5150600732
    8      C      -1.2422360308    -0.1219333131     3.4330714801
    9      C       1.0763787004     0.5320483534    -0.7438568555
   10      C       1.5755429594    -0.1867227297    -1.8275960252
   11      H       1.1618744571    -1.1553987893    -2.0760992404
   12      C       2.6164632301     0.3400550364    -2.5699075871
   13      H       3.0131834401    -0.2212836193    -3.4048911192
   14      C       3.1547948795     1.5776491200    -2.2405767706
   15      H       3.9676704196     1.9860922753    -2.8256525744
   16      C       2.6465858336     2.2930275319    -1.1648621067
   17      H       3.0536093982     3.2635024554    -0.9160835258
   18      C       1.6040055110     1.7781636251    -0.4135009740
   19      H       1.1877664949     2.3465517009     0.4082878958
   20      C      -1.0745345261    -0.5757938963    -0.7195910388
   21      C      -1.6410132381     0.1183045561    -1.7855094961
   22      H      -1.2757120466     1.1012982943    -2.0536281141
   23      C      -2.6892662592    -0.4522515488    -2.4857918659
   24      H      -3.1405400221     0.0902196463    -3.3054756306
   25      C      -3.1666573701    -1.7085655231    -2.1346594885
   26      H      -3.9864775481    -2.1491985487    -2.6859120339
   27      C      -2.5886953718    -2.4009076425    -1.0796240888
   28      H      -2.9480682201    -3.3850967609    -0.8113133687
   29      C      -1.5401082641    -1.8416413105    -0.3700023539
   30      H      -1.0768188014    -2.3909001091     0.4398739409
   31      C      -0.0221422808    -0.1996098704     4.1591668708
   32      C      -2.5484494911    -0.1729191306     4.1643125717
   33      H      -3.3942076101    -0.1084757475     3.4807080191
   34      H      -2.6283391998     0.6388185513     4.8878421786
   35      H      -2.6362126257    -1.1022507681     4.7301518927
   36      C       2.5121528894    -0.1115463587     4.1962251658
   37      H       2.4522265106    -0.8038598507     5.0378163564
   38      H       3.3020043844    -0.4822492995     3.5388971593
   39      C       2.8792182998     1.2821007213     4.7023025347
   40      H       2.1320540891     1.6560737098     5.4015164477
   41      H       3.8364795176     1.2603247680     5.2225042094
   42      H       2.9587356573     1.9912934324     3.8771285857
   43      B      -0.0587792180    -0.5721276667     5.6931818188
   44      C      -0.2639079239     0.4702901104     6.7848025581
   45      C      -0.4416832543     1.8338184413     6.4678123904
   46      H      -0.4098695502     2.1513807842     5.4289228381
   47      C      -0.6686384435     2.7569167994     7.4552730901
   48      C      -0.7132280858     2.3505037066     8.8214445798
   49      C      -0.5246346652     1.0276230023     9.1504571498
   50      H      -0.5572097859     0.7166745078    10.1894840443
   51      C      -0.3078855327     0.0563121997     8.1510909612
   52      C      -0.9235600117     4.1918351828     7.3962581699
   53      C      -1.0213246596     5.1175580109     6.3885741676
   54      H      -0.8841144542     4.8467903994     5.3485029367
   55      C      -1.1205910821     4.6131211384     8.7254431043
   56      C      -1.4192600160     5.9214556588     9.0903079999
   57      C      -1.0018323749     3.5337448387     9.6270787107
   58      C      -1.1886424457     3.7836455009    10.9626760529
   59      H      -1.1170640461     2.9983975075    11.7049913462
   60      C      -1.3167794287     6.4563205856     6.7309016030
   61      H      -1.3957350158     7.1884077675     5.9369800955
   62      C      -1.5123337001     6.8596596749     8.0325836850
   63      H      -1.7417213757     7.8963786518     8.2467050837
   64      C      -1.4893264754     5.1059288444    11.3654494386
   65      H      -1.6373491595     5.3006385984    12.4200276489
   66      C      -1.6047680046     6.1498619276    10.4755762757
   67      H      -1.8414529014     7.1437245693    10.8350134978
   68      C       0.0591254995    -2.0566197550     6.0377372189
   69      C       0.1854997592    -3.0298580459     5.0246047998
   70      H       0.2046649862    -2.7307755762     3.9809290321
   71      C       0.2788348082    -4.3582880018     5.3408076361
   72      C       0.2602444660    -4.7839775132     6.7028491726
   73      C       0.1394204761    -3.8491923202     7.7039858801
   74      H       0.1192098202    -4.1628612731     8.7429394681
   75      C       0.0276303036    -2.4754049205     7.4018806068
   76      C       0.3968454987    -5.5408583848     4.4927488608
   77      C       0.4567380144    -5.7689342776     3.1395025311
   78      H       0.4235621600    -4.9575762408     2.4220706941
   79      C       0.4462779250    -6.6465330779     5.3632430725
   80      C       0.5522266795    -7.9693969498     4.9350298506
   81      C       0.3687037958    -6.2442059661     6.7135774853
   82      C       0.4012474816    -7.2236033535     7.6763609196
   83      H       0.3451572866    -6.9886112101     8.7317673340
   84      C       0.5647030997    -7.1010820173     2.6779859985
   85      H       0.6114907595    -7.2784790150     1.6106194380
   86      C       0.6121833392    -8.1766189636     3.5352975955
   87      H       0.6947467156    -9.1818231472     3.1393119863
   88      C       0.5101763857    -8.5754327769     7.2715097178
   89      H       0.5350977267    -9.3403567057     8.0374138962
   90      C       0.5844352024    -8.9548348164     5.9510221899
   91      H       0.6659822645   -10.0031707934     5.6899471929
   92      B      -0.1471967473    -1.4337086083     8.5178145818
   93      C      -0.1508743731    -1.8687477286    10.0367564237
   94      C      -1.3447985594    -2.0392308817    10.7485802216
   95      C      -1.3128010926    -2.3430706384    12.1054112904
   96      H      -2.2408270424    -2.4661012192    12.6539941139
   97      C      -0.1052304219    -2.4662387866    12.7743524391
   98      C       1.0841575406    -2.3210593350    12.0712716833
   99      H       2.0289342659    -2.4210154677    12.5938170396
  100      C       1.0679817969    -2.0342686260    10.7125214853
  101      N      -0.0876732002    -2.7198946282    14.1667628302
  102      C       0.6191049129    -3.8293279131    14.6417816795
  103      C       1.3172087291    -3.7800921546    15.8499143657
  104      H       1.3149357546    -2.8710693683    16.4374768694
  105      C       2.0212899152    -4.8857004871    16.2976327733
  106      H       2.5568277715    -4.8249577578    17.2366014633
  107      C       2.0645304341    -6.0521125312    15.5466858723
  108      H       2.6236797869    -6.9099366138    15.8958216027
  109      C       1.3831694174    -6.0989594844    14.3384849191
  110      H       1.4034019534    -7.0000596429    13.7386310872
  111      C       0.6603338521    -5.0060885773    13.8903540511
  112      H       0.1267120735    -5.0631260562    12.9502587775
  113      C      -0.7820115911    -1.8511528837    15.0160538489
  114      C      -1.4317810975    -2.3203724980    16.1595409320
  115      H      -1.3986315811    -3.3739777098    16.4056492271
  116      C      -2.1305728606    -1.4472474996    16.9769586444
  117      H      -2.6285875270    -1.8341090926    17.8569971918
  118      C      -2.2169377658    -0.0975138333    16.6658155312
  119      H      -2.7727087487     0.5789511650    17.3012941599
  120      C      -1.5827226800     0.3692126120    15.5229919040
  121      H      -1.6366610653     1.4187370802    15.2624908243
  122      C      -0.8655664783    -0.4909705548    14.7089037467
  123      H      -0.3721507703    -0.1079074485    13.8250371402
  124      C       2.3649993609    -1.8719484740     9.9691113280
  125      H       3.2241347876    -1.9476477259    10.6357150965
  126      H       2.4755655690    -2.6344306654     9.1955161724
  127      H       2.4169747525    -0.9052990516     9.4638292710
  128      C      -2.6810735785    -1.9477444137    10.0556511023
  129      H      -2.6394098724    -1.2052371381     9.2550335591
  130      H      -3.4366429460    -1.5932702421    10.7618458572
  131      C      -3.1274354893    -3.2868339307     9.4718009502
  132      H      -2.4199223035    -3.6437287645     8.7235534473
  133      H      -3.2070296093    -4.0494082494    10.2480492819
  134      H      -4.1022704144    -3.1965829165     8.9900481622
 ----------------------------------------------------------------

   14   -3006.3390463554      8.54E-09 Convergence criterion met
 Total energy in the final basis set = -3006.33904636

         TDDFT/TDA Excitation Energies
 ---------------------------------------------------

 Excited state   1: excitation energy (eV) =    2.0519
 Total energy for state  1:                 -3006.26364025 au
    Multiplicity: Triplet
    Trans. Mom.:  0.0000 X   0.0000 Y   0.0000 Z
    Strength   :     0.0000000000
    D(262) --> V(  1) amplitude =  0.9672

 Excited state   2: excitation energy (eV) =    2.0776
 Total energy for state  2:                 -3006.26269574 au
    Multiplicity: Singlet
    Trans. Mom.: -0.0216 X  -0.0448 Y   0.3103 Z
    Strength   :     0.0050274901
    D(262) --> V(  1) amplitude =  0.9730

 Excited state   3: excitation energy (eV) =    2.2219
 Total energy for state  3:                 -3006.25739350 au
    Multiplicity: Triplet
    Trans. Mom.:  0.0000 X   0.0000 Y   0.0000 Z
    Strength   :     0.0000000000
    D(259) --> V(  1) amplitude =  0.9159

 Excited state   4: excitation energy (eV) =    2.4299
 Total energy for state  4:                 -3006.24974750 au
    Multiplicity: Triplet
    Trans. Mom.:  0.0000 X   0.0000 Y   0.0000 Z
    Strength   :     0.0000000000
    D(258) --> V(  2) amplitude = -0.4754
    D(260) --> V(  1) amplitude =  0.8029

 Excited state   5: excitation energy (eV) =    2.4806
 Total energy for state  5:                 -3006.24788755 au
    Multiplicity: Triplet
    Trans. Mom.:  0.0000 X   0.0000 Y   0.0000 Z
    Strength   :     0.0000000000
    D(258) --> V(  1) amplitude =  0.6248
    D(260) --> V(  2) amplitude = -0.4549
    D(261) --> V(  1) amplitude =  0.5314

 Excited state   6: excitation energy (eV) =    2.5190
 Total energy for state  6:                 -3006.24647570 au
    Multiplicity: Triplet
    Trans. Mom.:  0.0000 X   0.0000 Y   0.0000 Z
    Strength   :     0.0000000000
    D(258) --> V(  1) amplitude = -0.3987
    D(260) --> V(  2) amplitude =  0.3069
    D(261) --> V(  1) amplitude =  0.8025

 Excited state   7: excitation energy (eV) =    2.5278
 Total energy for state  7:                 -3006.24615052 au
    Multiplicity: Singlet
    Trans. Mom.:  0.0163 X  -0.1088 Y   0.4292 Z
    Strength   :     0.0121574383
    D(261) --> V(  1) amplitude =  0.9743

 Excited state   8: excitation energy (eV) =    2.7315
 Total energy for state  8:                 -3006.23866670 au
    Multiplicity: Triplet
    Trans. Mom.:  0.0000 X   0.0000 Y   0.0000 Z
    Strength   :     0.0000000000
    D(253) --> V(  1) amplitude =  0.3454
    D(254) --> V(  1) amplitude =  0.5615
    D(255) --> V(  1) amplitude = -0.2319
    D(259) --> V(  2) amplitude =  0.5542

 Excited state   9: excitation energy (eV) =    2.8869
 Total energy for state  9:                 -3006.23295463 au
    Multiplicity: Singlet
    Trans. Mom.: -0.0115 X   0.0446 Y   0.0116 Z
    Strength   :     0.0001595305
    D(259) --> V(  1) amplitude =  0.9645

 Excited state  10: excitation energy (eV) =    3.1209
 Total energy for state 10:                 -3006.22435635 au
    Multiplicity: Singlet
    Trans. Mom.:  0.5484 X  -3.8975 Y  -1.1638 Z
    Strength   :     1.2880008450
    D(260) --> V(  1) amplitude =  0.9529

 Excited state  11: excitation energy (eV) =    3.3428
 Total energy for state 11:                 -3006.21620197 au
    Multiplicity: Singlet
    Trans. Mom.: -0.0219 X  -0.0182 Y  -0.0135 Z
    Strength   :     0.0000814041
    D(262) --> V(  2) amplitude =  0.9915

 Excited state  12: excitation energy (eV) =    3.4227
 Total energy for state 12:                 -3006.21326626 au
    Multiplicity: Singlet
    Trans. Mom.:  0.1594 X  -0.0577 Y  -0.1009 Z
    Strength   :     0.0032645660
    D(258) --> V(  1) amplitude =  0.9341

 ---------------------------------------------------

                    Orbital Energies (a.u.)
 --------------------------------------------------------------

 Alpha MOs
 -- Occupied --
-14.671 -14.670 -10.492 -10.492 -10.491 -10.491 -10.486 -10.484
-10.468 -10.467 -10.467 -10.467 -10.466 -10.466 -10.466 -10.466
-10.466 -10.465 -10.465 -10.464 -10.463 -10.463 -10.463 -10.463
-10.463 -10.463 -10.460 -10.460 -10.460 -10.460 -10.457 -10.457
-10.456 -10.456 -10.454 -10.453 -10.450 -10.450 -10.450 -10.450
-10.450 -10.449 -10.449 -10.448 -10.448 -10.447 -10.447 -10.447
-10.447 -10.447 -10.447 -10.446 -10.445 -10.444 -10.444 -10.444
-10.444 -10.443 -10.441 -10.441 -10.439 -10.439 -10.438 -10.438
-10.436 -10.436 -10.436 -10.432 -10.430 -10.430 -10.428 -10.426
-10.424 -10.421 -10.419 -10.416  -6.950  -6.943  -1.086  -1.081
 -1.018  -1.017  -0.965  -0.963  -0.961  -0.961  -0.960  -0.958
 -0.940  -0.939  -0.935  -0.934  -0.910  -0.901  -0.885  -0.883
 -0.865  -0.860  -0.857  -0.855  -0.851  -0.851  -0.848  -0.847
 -0.841  -0.841  -0.838  -0.836  -0.825  -0.817  -0.815  -0.814
 -0.813  -0.806  -0.794  -0.788  -0.767  -0.762  -0.737  -0.732
 -0.728  -0.722  -0.714  -0.713  -0.708  -0.707  -0.701  -0.697
 -0.690  -0.685  -0.683  -0.681  -0.679  -0.676  -0.669  -0.668
 -0.649  -0.647  -0.641  -0.639  -0.636  -0.633  -0.607  -0.604
 -0.598  -0.595  -0.592  -0.590  -0.587  -0.586  -0.584  -0.577
 -0.577  -0.562  -0.562  -0.555  -0.552  -0.545  -0.545  -0.543
 -0.540  -0.538  -0.528  -0.525  -0.524  -0.520  -0.518  -0.514
 -0.510  -0.509  -0.505  -0.502  -0.501  -0.498  -0.497  -0.495
 -0.495  -0.493  -0.491  -0.489  -0.488  -0.487  -0.487  -0.485
 -0.484  -0.483  -0.482  -0.481  -0.479  -0.478  -0.476  -0.473
 -0.469  -0.467  -0.467  -0.462  -0.458  -0.455  -0.449  -0.445
 -0.444  -0.442  -0.441  -0.438  -0.434  -0.431  -0.430  -0.429
 -0.428  -0.426  -0.425  -0.422  -0.420  -0.420  -0.418  -0.413
 -0.412  -0.411  -0.406  -0.402  -0.401  -0.400  -0.400  -0.399
 -0.398  -0.397  -0.396  -0.395  -0.393  -0.393  -0.390  -0.387
 -0.381  -0.379  -0.373  -0.367  -0.361  -0.358  -0.355  -0.352
 -0.347  -0.337  -0.322  -0.317  -0.308  -0.302  -0.301  -0.300
 -0.298  -0.297  -0.297  -0.295  -0.286  -0.284  -0.282  -0.277
 -0.276  -0.264  -0.259  -0.257  -0.223  -0.214

          Ground-State Mulliken Net Atomic Charges

     Atom                 Charge (a.u.)
  ----------------------------------------
      1 N                    -0.658789
      2 C                     0.328865
      3 C                    -0.394891
      4 H                     0.248979
      5 C                     0.086648
      6 C                    -0.398438
      7 H                     0.251700
      8 C                     0.065754
      9 C                     0.272989
     10 C                    -0.282035
     11 H                     0.256603
     12 C                    -0.234942
     13 H                     0.240879
     14 C                    -0.252921
     15 H                     0.236975
     16 C                    -0.236503
     17 H                     0.240815
     18 C                    -0.275311
     19 H                     0.259947
     20 C                     0.254220
     21 C                    -0.274403
     22 H                     0.256312
     23 C                    -0.236345
     24 H                     0.241483
     25 C                    -0.250914
     26 H                     0.237744
     27 C                    -0.236501
     28 H                     0.241212
     29 C                    -0.265814
     30 H                     0.257430
     31 C                    -0.245961
     32 C                    -0.767677
     33 H                     0.247146
     34 H                     0.246318
     35 H                     0.246572
     36 C                    -0.544963
     37 H                     0.250055
     38 H                     0.237893
     39 C                    -0.654250
     40 H                     0.238180
     41 H                     0.223560
     42 H                     0.220826
     43 B                     0.640949
     44 C                    -0.137225
     45 C                    -0.404316
     46 H                     0.246509
     47 C                     0.086976
     48 C                     0.104021
     49 C                    -0.395536
     50 H                     0.240082
     51 C                    -0.155881
     52 C                     0.183106
     53 C                    -0.386136
     54 H                     0.242589
     55 C                    -0.066218
     56 C                     0.232884
     57 C                     0.182841
     58 C                    -0.388859
     59 H                     0.240684
     60 C                    -0.224175
     61 H                     0.248172
     62 C                    -0.342924
     63 H                     0.244162
     64 C                    -0.222652
     65 H                     0.246978
     66 C                    -0.345047
     67 H                     0.244507
     68 C                    -0.146272
     69 C                    -0.383511
     70 H                     0.246300
     71 C                     0.088492
     72 C                     0.098747
     73 C                    -0.408502
     74 H                     0.245630
     75 C                    -0.147248
     76 C                     0.186119
     77 C                    -0.386966
     78 H                     0.242095
     79 C                    -0.067833
     80 C                     0.229068
     81 C                     0.186637
     82 C                    -0.393218
     83 H                     0.240786
     84 C                    -0.223958
     85 H                     0.247948
     86 C                    -0.341334
     87 H                     0.244255
     88 C                    -0.221908
     89 H                     0.247189
     90 C                    -0.343648
     91 H                     0.244642
     92 B                     0.669899
     93 C                    -0.211591
     94 C                     0.062776
     95 C                    -0.340876
     96 H                     0.239013
     97 C                     0.265088
     98 C                    -0.347590
     99 H                     0.241616
    100 C                     0.039755
    101 N                    -0.674017
    102 C                     0.314154
    103 C                    -0.299684
    104 H                     0.258146
    105 C                    -0.231998
    106 H                     0.238703
    107 C                    -0.260642
    108 H                     0.235270
    109 C                    -0.230280
    110 H                     0.236897
    111 C                    -0.300198
    112 H                     0.253142
    113 C                     0.314421
    114 C                    -0.300501
    115 H                     0.258259
    116 C                    -0.231866
    117 H                     0.238629
    118 C                    -0.261430
    119 H                     0.234885
    120 C                    -0.229639
    121 H                     0.235017
    122 C                    -0.300295
    123 H                     0.254120
    124 C                    -0.769788
    125 H                     0.249847
    126 H                     0.248904
    127 H                     0.249220
    128 C                    -0.548703
    129 H                     0.251917
    130 H                     0.240236
    131 C                    -0.654068
    132 H                     0.239137
    133 H                     0.220560
    134 H                     0.226109
  ----------------------------------------
  Sum of atomic charges =    -0.000000

                    Cartesian Multipole Moments
 -----------------------------------------------------------------
    Charge (ESU x 10^10)
                -0.0000
    Dipole Moment (Debye)
         X      -0.5087      Y       0.0998      Z      -2.1507
       Tot       2.2123
    Quadrupole Moments (Debye-Ang)
        XX    -445.8753     XY      -8.0174     YY    -375.4451
        XZ      -7.3676     YZ      13.3153     ZZ    -432.1281

 Total job time:  26874.39s(wall), 78322.89s(cpu)
        *  Thank you very much for using Q-Chem.  Have a nice day.  *
