 Q-Chem 5.1, Q-Chem, Inc., Pleasanton, CA (2018)
 Q-Chem 5.1.1 for Intel X86 EM64T Linux

User input:
--------------------------------------------------------------
$rem
threads 8
jobtype	opt
method PBEh-3c
basis def2-mSVP
mem_static	512
mem_total	6096
sym_ignore	true
scf_convergence 9
$end

$molecule
read gsopt.mol
$end

--------------------------------------------------------------

   17   -2123.7984737999      5.94e-10  Convergence criterion met
 Total energy in the final basis set =    -2123.7984737999
   14   -2123.8004058703      8.67e-10  Convergence criterion met
 Total energy in the final basis set =    -2123.8004058703
   14   -2123.8010264844      5.71e-10  Convergence criterion met
 Total energy in the final basis set =    -2123.8010264844
   14   -2123.8010265376      4.57e-10  Convergence criterion met
 Total energy in the final basis set =    -2123.8010265376
   13   -2123.8010212494      4.44e-10  Convergence criterion met
 Total energy in the final basis set =    -2123.8010212494
   12   -2123.8010944814      6.25e-10  Convergence criterion met
 Total energy in the final basis set =    -2123.8010944814
   12   -2123.8011393890      3.51e-10  Convergence criterion met
 Total energy in the final basis set =    -2123.8011393890
   11   -2123.8011527764      6.10e-10  Convergence criterion met
 Total energy in the final basis set =    -2123.8011527764
   11   -2123.8011383276      5.76e-10  Convergence criterion met
 Total energy in the final basis set =    -2123.8011383276
   10   -2123.8011233985      9.96e-10  Convergence criterion met
 Total energy in the final basis set =    -2123.8011233985
    9   -2123.8011204906      6.39e-10  Convergence criterion met
 Total energy in the final basis set =    -2123.8011204906

             Standard Nuclear Orientation (Angstroms)
    I     Atom           X                Y                Z
 ----------------------------------------------------------------
    1      C       0.0187710418     0.4692526485     0.0847392506
    2      C       0.0136982181     0.3407728501     1.4788427141
    3      H       0.9542945977     0.2328500943     2.0082209828
    4      C      -1.1867063165     0.3455858180     2.1709081755
    5      C      -2.4005331165     0.4813724429     1.4630946647
    6      C      -2.4081306665     0.6010103238     0.0869853317
    7      H      -3.3453027760     0.6918945220    -0.4520550140
    8      C      -1.2045962321     0.5968324008    -0.6169015391
    9      C      -3.5033892662     0.4482787455     2.4167318594
   10      C      -4.8671500606     0.5309448106     2.3187786045
   11      H      -5.3661696593     0.6565144087     1.3656597912
   12      C      -2.9198084141     0.2860349588     3.6842394899
   13      C      -3.6471479386     0.1966756074     4.8647245579
   14      C      -1.5158780433     0.2172028541     3.5945903022
   15      C      -0.8057894761     0.0492120294     4.7524757050
   16      H       0.2749094495    -0.0155280599     4.7561148673
   17      C      -5.6332537187     0.4473840526     3.5041201204
   18      H      -6.7110644020     0.5125866933     3.4302597470
   19      C      -5.0554613135     0.2845775050     4.7413850504
   20      H      -5.6815382767     0.2229902111     5.6230238548
   21      C      -1.5154232435    -0.0446830732     5.9743332765
   22      H      -0.9508139011    -0.1781781969     6.8876071476
   23      C      -2.8868996245     0.0249964075     6.0449339838
   24      H      -3.3831488589    -0.0535552116     7.0043145437
   25      B       1.3605539121     0.4544094291    -0.7047703744
   26      B      -1.2203185499     0.7145336864    -2.1665687552
   27      C       0.1256308170     0.7381882866    -2.9413575054
   28      C       0.1194208767     0.8584153949    -4.3306056980
   29      H      -0.8232275691     0.9498601854    -4.8592202827
   30      C       1.3111650835     0.8466111150    -5.0272727039
   31      C       2.5423363348     0.7179575113    -4.3488486653
   32      C       2.5568762406     0.6037402452    -2.9693206097
   33      H       3.4955602715     0.4980271312    -2.4364977529
   34      C       1.3543265803     0.6111542663    -2.2531514835
   35      C       3.6093212354     0.7087377337    -5.3567479222
   36      C       4.9740526630     0.5956198974    -5.3402693763
   37      H       5.5285558406     0.4931220374    -4.4159953106
   38      C       2.9698625918     0.8306430554    -6.6059149280
   39      C       3.6235546622     0.8412679105    -7.8335468029
   40      C       1.5741392658     0.9205267830    -6.4622692536
   41      C       0.7982606081     1.0299190168    -7.5868414373
   42      H      -0.2813490063     1.0996069613    -7.5336434270
   43      C       5.6705486214     0.6079716256    -6.5732750262
   44      H       6.7486822309     0.5175146381    -6.5557894459
   45      C       5.0324844904     0.7250625651    -7.7854373164
   46      H       5.6093374092     0.7249728833    -8.7022000550
   47      C       1.4371382772     1.0474325663    -8.8487783988
   48      H       0.8258583847     1.1329869237    -9.7378491949
   49      C       2.8025111047     0.9559646818    -8.9819536339
   50      H       3.2494033804     0.9691143001    -9.9685898648
   51      C      -2.5768527538     0.7778860647    -2.9585851106
   52      C      -3.1751867976    -0.3963327729    -3.4180135235
   53      C      -4.3616089622    -0.3514481794    -4.1470664343
   54      H      -4.7947542805    -1.2832090752    -4.4881995887
   55      C      -4.9650504973     0.8670753912    -4.4256328061
   56      O      -6.1132084839     1.0090594457    -5.1213290697
   57      C      -4.3733176263     2.0423320935    -3.9715965248
   58      H      -4.8507596864     2.9890953573    -4.1945343752
   59      C      -3.1939003747     2.0039926305    -3.2475155555
   60      C      -6.7503400750    -0.1432815342    -5.6038793114
   61      H      -7.6470048659     0.1904865106    -6.1221572868
   62      H      -6.1269883228    -0.6985481572    -6.3127002460
   63      H      -7.0477974923    -0.8230582226    -4.7986408156
   64      C      -2.5323590748    -1.7261910828    -3.1360172961
   65      H      -3.1298053672    -2.5555187219    -3.5142666043
   66      H      -1.5454050929    -1.7964636933    -3.5990598363
   67      H      -2.3947121359    -1.8843526447    -2.0642217785
   68      C      -2.5623800294     3.2817077022    -2.7721778497
   69      H      -3.1498759946     4.1550433150    -3.0530735948
   70      H      -1.5622589167     3.4092661824    -3.1927189587
   71      H      -2.4559253211     3.2916250529    -1.6853303977
   72      C       2.7193937446     0.2663277219     0.0486535137
   73      C       3.4280839120     1.3685801827     0.5220826408
   74      C       4.6445436536     1.1974242153     1.1799051914
   75      H       5.1692072547     2.0745903050     1.5364856496
   76      C       5.1612460836    -0.0781018109     1.3674529774
   77      O       6.3281757103    -0.3428220008     1.9927231255
   78      C       4.4566796169    -1.1819368420     0.8936687836
   79      H       4.8694758018    -2.1721383766     1.0460945203
   80      C       3.2474987794    -1.0181684675     0.2401629566
   81      C       7.0682105107     0.7304179408     2.5071319701
   82      H       7.9558626074     0.3037211305     2.9697344264
   83      H       6.5151831561     1.2901165374     3.2688906910
   84      H       7.3860834813     1.4297846499     1.7267708040
   85      C       2.4946436893    -2.2139416645    -0.2742650583
   86      H       2.9995460469    -3.1483447640    -0.0315589396
   87      H       2.3806094412    -2.1740581069    -1.3601495921
   88      H       1.4888471111    -2.2642690747     0.1493799011
   89      C       2.8750563510     2.7509035773     0.3106919267
   90      H       3.5144955336     3.5184686651     0.7457640569
   91      H       2.7687745929     2.9767438178    -0.7529413053
   92      H       1.8841855643     2.8573496879     0.7582621810
 ----------------------------------------------------------------

    9   -2123.8011212896      3.49e-10  Convergence criterion met
 Total energy in the final basis set =    -2123.8011212896
 Final energy is   -2123.80112128955
 **  OPTIMIZATION CONVERGED  **

                    Orbital Energies (a.u.)
 --------------------------------------------------------------

 Alpha MOs
 -- Occupied --
-19.522 -19.522 -10.498 -10.498 -10.488 -10.488 -10.462 -10.462
-10.462 -10.462 -10.462 -10.462 -10.461 -10.460 -10.460 -10.460
-10.460 -10.460 -10.459 -10.459 -10.458 -10.458 -10.458 -10.457
-10.457 -10.457 -10.457 -10.457 -10.451 -10.450 -10.450 -10.449
-10.449 -10.449 -10.448 -10.448 -10.444 -10.444 -10.431 -10.431
-10.430 -10.430 -10.429 -10.428 -10.426 -10.426 -10.425 -10.425
-10.424 -10.423 -10.412 -10.410  -6.944  -6.944  -1.180  -1.179
 -1.014  -1.013  -0.960  -0.956  -0.951  -0.950  -0.931  -0.931
 -0.906  -0.898  -0.869  -0.869  -0.858  -0.851  -0.851  -0.846
 -0.845  -0.844  -0.819  -0.811  -0.810  -0.802  -0.788  -0.788
 -0.764  -0.763  -0.754  -0.753  -0.732  -0.726  -0.724  -0.718
 -0.687  -0.680  -0.677  -0.662  -0.659  -0.648  -0.645  -0.644
 -0.641  -0.641  -0.593  -0.590  -0.590  -0.586  -0.582  -0.582
 -0.581  -0.573  -0.572  -0.557  -0.556  -0.541  -0.541  -0.534
 -0.533  -0.533  -0.526  -0.521  -0.510  -0.505  -0.500  -0.494
 -0.493  -0.489  -0.488  -0.487  -0.483  -0.481  -0.481  -0.479
 -0.477  -0.474  -0.471  -0.470  -0.468  -0.466  -0.463  -0.462
 -0.462  -0.455  -0.455  -0.452  -0.442  -0.440  -0.439  -0.439
 -0.431  -0.424  -0.423  -0.420  -0.419  -0.417  -0.416  -0.409
 -0.399  -0.398  -0.396  -0.392  -0.392  -0.392  -0.390  -0.388
 -0.376  -0.373  -0.371  -0.364  -0.360  -0.355  -0.352  -0.349
 -0.337  -0.335  -0.316  -0.310  -0.293  -0.292  -0.277  -0.273
 -0.273  -0.259  -0.254  -0.253  -0.247  -0.244

          Ground-State Mulliken Net Atomic Charges

     Atom                 Charge (a.u.)
  ----------------------------------------
      1 C                    -0.154533
      2 C                    -0.395312
      3 H                     0.234235
      4 C                     0.113897
      5 C                     0.086308
      6 C                    -0.385299
      7 H                     0.233844
      8 C                    -0.153630
      9 C                     0.194493
     10 C                    -0.377437
     11 H                     0.220808
     12 C                    -0.061993
     13 C                     0.254252
     14 C                     0.196258
     15 C                    -0.387733
     16 H                     0.220573
     17 C                    -0.205847
     18 H                     0.226222
     19 C                    -0.333267
     20 H                     0.219482
     21 C                    -0.202541
     22 H                     0.225689
     23 C                    -0.338233
     24 H                     0.219813
     25 B                     0.701614
     26 B                     0.699950
     27 C                    -0.152472
     28 C                    -0.384832
     29 H                     0.235860
     30 C                     0.086998
     31 C                     0.110598
     32 C                    -0.394350
     33 H                     0.235461
     34 C                    -0.154555
     35 C                     0.197866
     36 C                    -0.386535
     37 H                     0.220911
     38 C                    -0.063846
     39 C                     0.251186
     40 C                     0.195866
     41 C                    -0.378227
     42 H                     0.220992
     43 C                    -0.202957
     44 H                     0.225687
     45 C                    -0.336850
     46 H                     0.219766
     47 C                    -0.205702
     48 H                     0.226112
     49 C                    -0.332192
     50 H                     0.219383
     51 C                    -0.223369
     52 C                     0.062285
     53 C                    -0.436054
     54 H                     0.220926
     55 C                     0.403298
     56 O                    -0.454673
     57 C                    -0.380324
     58 H                     0.220343
     59 C                     0.065972
     60 C                    -0.405717
     61 H                     0.238967
     62 H                     0.203298
     63 H                     0.203572
     64 C                    -0.761563
     65 H                     0.232439
     66 H                     0.246355
     67 H                     0.246420
     68 C                    -0.758742
     69 H                     0.236780
     70 H                     0.243521
     71 H                     0.243459
     72 C                    -0.218783
     73 C                     0.067079
     74 C                    -0.435436
     75 H                     0.220685
     76 C                     0.403219
     77 O                    -0.454235
     78 C                    -0.384846
     79 H                     0.220238
     80 C                     0.062521
     81 C                    -0.405686
     82 H                     0.238800
     83 H                     0.203251
     84 H                     0.202822
     85 C                    -0.762638
     86 H                     0.237521
     87 H                     0.245017
     88 H                     0.244858
     89 C                    -0.760927
     90 H                     0.231935
     91 H                     0.245549
     92 H                     0.246083
  ----------------------------------------
  Sum of atomic charges =    -0.000000

                    Cartesian Multipole Moments
 -----------------------------------------------------------------
    Charge (ESU x 10^10)
                -0.0000
    Dipole Moment (Debye)
         X      -0.0145      Y      -0.2140      Z      -0.0409
       Tot       0.2183
    Quadrupole Moments (Debye-Ang)
        XX    -266.0845     XY      14.5288     YY    -313.5166
        XZ       0.4171     YZ       7.0997     ZZ    -262.7939

 Total job time:  8236.76s(wall), 64723.75s(cpu)
        *  Thank you very much for using Q-Chem.  Have a nice day.  *
