 Q-Chem 5.0, Q-Chem, Inc., Pleasanton, CA (2017)
 Q-Chem 5.0.1 for Intel X86 EM64T Linux

User input:
--------------------------------------------------------------
$rem
threads 8
jobtype	opt
method PBEh-3c
basis def2-mSVP
mem_static	512
mem_total	6096
sym_ignore	true
$end

$molecule
read incoords.mol
$end

--------------------------------------------------------------

   15   -2123.7560392833      6.33E-09 Convergence criterion met
 Total energy in the final basis set = -2123.75603928
   12   -2123.7870373333      8.98E-09 Convergence criterion met
 Total energy in the final basis set = -2123.78703733
   13   -2123.7960720261      5.42E-09 Convergence criterion met
 Total energy in the final basis set = -2123.79607203
   13   -2123.7971304104      5.71E-09 Convergence criterion met
 Total energy in the final basis set = -2123.79713041
   13   -2123.7966321153      5.91E-09 Convergence criterion met
 Total energy in the final basis set = -2123.79663212
   12   -2123.7955825116      5.89E-09 Convergence criterion met
 Total energy in the final basis set = -2123.79558251
   12   -2123.7958966361      6.71E-09 Convergence criterion met
 Total energy in the final basis set = -2123.79589664
   11   -2123.7960438318      8.86E-09 Convergence criterion met
   11   -2123.7985020172      8.24E-09 Convergence criterion met
 Total energy in the final basis set = -2123.79850202
   11   -2123.7986309952      6.82E-09 Convergence criterion met
 Total energy in the final basis set = -2123.79863100
   11   -2123.7987293661      8.88E-09 Convergence criterion met
 Total energy in the final basis set = -2123.79872937
   10   -2123.7988162592      9.23E-09 Convergence criterion met
 Total energy in the final basis set = -2123.79881626
   10   -2123.7988193859      5.96E-09 Convergence criterion met
 Total energy in the final basis set = -2123.79881939
   10   -2123.7988063776      5.24E-09 Convergence criterion met
 Total energy in the final basis set = -2123.79880638

             Standard Nuclear Orientation (Angstroms)
    I     Atom           X                Y                Z
 ----------------------------------------------------------------
    1      C       2.4821756750    -1.5733799184     0.4018220808
    2      C       3.4510735910    -1.2677669608    -0.5838865336
    3      B       4.4739966039    -2.3559060912    -1.0194029072
    4      C       4.5136547660    -3.7220379440    -0.2778697200
    5      C       3.5295564017    -4.0327913370     0.6887493264
    6      B       2.4509752679    -2.9803315851     1.0659562818
    7      C       5.4574384897    -4.6856388657    -0.6425159974
    8      C       5.4113408317    -5.9448799606    -0.0744196223
    9      C       4.4059506723    -6.2655080774     0.8643142620
   10      C       3.4832390061    -5.3114625656     1.2497486965
   11      C       1.4859890346    -0.6439391736     0.7061814937
   12      C       1.4479248590     0.5686159230     0.0432257956
   13      C       2.4277078847     0.8865267393    -0.9226018911
   14      C       3.4164198109    -0.0307843566    -1.2334414946
   15      C       7.2494807005    -7.4778267699    -1.1440682848
   16      C       7.7130395519    -8.8148197716    -1.1526169208
   17      C       7.1392799750    -9.7998077053    -0.3841445795
   18      C       6.0448146993    -9.4934100380     0.4591422541
   19      C       5.6264963259    -8.1668322978     0.4625855441
   20      C       6.1991166771    -7.1531617580    -0.3269869326
   21      C       5.3022011628   -10.3853908322     1.2695186745
   22      C       4.2283931011    -9.9255286483     1.9943769615
   23      C       3.8217760224    -8.5702112250     1.9716291104
   24      C       4.5304711851    -7.6852498202     1.2018679939
   25      C       1.9029547530     4.1539177335    -2.8557317610
   26      C       2.5967485090     2.9718328848    -2.5025517916
   27      C       2.0802420194     2.1826578150    -1.5096662962
   28      C       0.8828680905     2.5863434044    -0.8892211040
   29      C       0.1626607285     3.7241099377    -1.2338397806
   30      C       0.7234485423     4.5274298610    -2.2556078137
   31      C       0.4570295405     1.6421248890     0.0623661950
   32      C      -0.7356200541     1.8454069244     0.7039705529
   33      C      -1.4848597137     3.0016823161     0.3835363880
   34      C      -1.0624870535     3.9173775427    -0.5512499021
   35      C       7.4409216461    -1.3556472603    -3.2951459593
   36      C       6.6372949068    -1.5299432574    -2.1692383244
   37      C       5.3885566405    -2.1390790438    -2.2751606732
   38      C       4.9541179850    -2.5823784728    -3.5346000628
   39      C       5.7547281738    -2.4023226557    -4.6487488224
   40      C       6.9992679344    -1.7884768114    -4.5382568650
   41      C       7.1213495912    -1.0628009316    -0.8247746432
   42      C       3.6207395493    -3.2641068244    -3.6740143196
   43      O       7.6979038863    -1.6591195743    -5.6862364154
   44      C       8.9566920540    -1.0448771680    -5.6395485220
   45      C       0.4456766500    -3.4803583918     4.3261692387
   46      C       1.4596265901    -3.1434990358     3.4456527560
   47      C       1.3046830670    -3.3590386274     2.0693544004
   48      C       0.1147153584    -3.9218057541     1.6058928143
   49      C      -0.9030685053    -4.2570558299     2.4967062194
   50      C      -0.7416890008    -4.0359486613     3.8580130902
   51      C       2.7394568770    -2.5460848623     3.9588684149
   52      C      -0.0750449523    -4.1762422226     0.1354934959
   53      O      -1.6731231465    -4.3248999442     4.7916515630
   54      C      -2.9008167558    -4.8551585978     4.3712355162
   55      H       6.1982187360    -4.4525321779    -1.3995290573
   56      H       2.7027316907    -5.5555820821     1.9624155947
   57      H       0.7217944344    -0.8989973321     1.4325050931
   58      H       4.1425699348     0.1833797233    -2.0101022819
   59      H       7.7206436360    -6.7460521247    -1.7880577290
   60      H       8.5420534079    -9.0701418423    -1.7996351361
   61      H       7.5170713372   -10.8137601416    -0.4351902820
   62      H       5.5706766980   -11.4340936229     1.3092279085
   63      H       3.6653117601   -10.6237682272     2.5999696698
   64      H       2.9580945444    -8.2638302609     2.5485613085
   65      H       2.3110874116     4.7754920688    -3.6419052463
   66      H       3.5044402838     2.7067027624    -3.0300296384
   67      H       0.2179238285     5.4303920593    -2.5751918156
   68      H      -1.1214344159     1.1415205195     1.4310662054
   69      H      -2.4295699573     3.1618479841     0.8865553648
   70      H      -1.6766607222     4.7811829641    -0.7743003672
   71      H       8.4051555600    -0.8779767026    -3.1776039825
   72      H       5.4213463795    -2.7368992104    -5.6241350727
   73      H       8.1132905449    -0.6151666842    -0.8798562294
   74      H       7.1751399193    -1.8897358477    -0.1129808933
   75      H       6.4485977956    -0.3169779937    -0.3955359350
   76      H       3.3825468336    -3.4744689951    -4.7161806812
   77      H       2.8109148943    -2.6526596332    -3.2697676147
   78      H       3.6034849119    -4.2140759448    -3.1351092758
   79      H       9.3387673052    -1.0402073310    -6.6583996509
   80      H       9.6640282310    -1.5913406870    -5.0068869929
   81      H       8.9021286338    -0.0103426393    -5.2850234501
   82      H       0.5621809522    -3.3118160509     5.3900419242
   83      H      -1.8145001564    -4.6887838210     2.1027647863
   84      H       3.5926691453    -3.1928344991     3.7418402558
   85      H       2.7120564726    -2.3883823084     5.0363530488
   86      H       2.9429550103    -1.5809850444     3.4895219756
   87      H       0.6617582541    -4.8877037403    -0.2443562632
   88      H       0.0355943116    -3.2596107981    -0.4479306105
   89      H      -1.0624814710    -4.5828614989    -0.0822590405
   90      H      -3.5019424186    -4.9971520900     5.2670400083
   91      H      -3.4375939164    -4.1794575177     3.6969858438
   92      H      -2.7887760078    -5.8237975740     3.8727770789
 ----------------------------------------------------------------

    9   -2123.7988060484      6.19E-09 Convergence criterion met
 Total energy in the final basis set = -2123.79880605
 Final energy is   -2123.79880604835
 **  OPTIMIZATION CONVERGED  **

                    Orbital Energies (a.u.)
 --------------------------------------------------------------

 Alpha MOs
 -- Occupied --
-19.522 -19.522 -10.498 -10.498 -10.488 -10.488 -10.462 -10.462
-10.462 -10.462 -10.462 -10.462 -10.460 -10.460 -10.460 -10.460
-10.460 -10.460 -10.459 -10.459 -10.459 -10.458 -10.458 -10.458
-10.458 -10.458 -10.457 -10.457 -10.450 -10.450 -10.450 -10.449
-10.449 -10.449 -10.448 -10.448 -10.444 -10.444 -10.431 -10.431
-10.430 -10.429 -10.429 -10.429 -10.427 -10.426 -10.426 -10.425
-10.424 -10.423 -10.411 -10.411  -6.944  -6.944  -1.180  -1.180
 -1.013  -1.013  -0.960  -0.956  -0.951  -0.950  -0.931  -0.931
 -0.906  -0.898  -0.869  -0.869  -0.858  -0.851  -0.851  -0.847
 -0.845  -0.844  -0.819  -0.811  -0.810  -0.802  -0.789  -0.788
 -0.764  -0.763  -0.754  -0.753  -0.732  -0.726  -0.724  -0.718
 -0.687  -0.680  -0.677  -0.662  -0.659  -0.648  -0.645  -0.644
 -0.641  -0.641  -0.593  -0.590  -0.590  -0.586  -0.582  -0.582
 -0.581  -0.573  -0.572  -0.557  -0.557  -0.541  -0.541  -0.534
 -0.533  -0.533  -0.526  -0.521  -0.510  -0.505  -0.500  -0.494
 -0.493  -0.489  -0.488  -0.487  -0.484  -0.481  -0.481  -0.479
 -0.477  -0.474  -0.471  -0.470  -0.468  -0.466  -0.463  -0.462
 -0.462  -0.455  -0.455  -0.452  -0.442  -0.440  -0.440  -0.439
 -0.431  -0.424  -0.424  -0.420  -0.418  -0.417  -0.417  -0.409
 -0.399  -0.398  -0.396  -0.392  -0.392  -0.392  -0.390  -0.388
 -0.376  -0.373  -0.371  -0.364  -0.360  -0.355  -0.352  -0.348
 -0.337  -0.335  -0.316  -0.310  -0.293  -0.292  -0.277  -0.273
 -0.273  -0.259  -0.253  -0.253  -0.247  -0.244

          Ground-State Mulliken Net Atomic Charges

     Atom                 Charge (a.u.)
  ----------------------------------------
      1 C                    -0.156098
      2 C                    -0.151933
      3 B                     0.694397
      4 C                    -0.154202
      5 C                    -0.154195
      6 B                     0.697721
      7 C                    -0.387029
      8 C                     0.098503
      9 C                     0.094262
     10 C                    -0.388228
     11 C                    -0.384971
     12 C                     0.093946
     13 C                     0.100027
     14 C                    -0.388892
     15 C                    -0.381041
     16 C                    -0.204165
     17 C                    -0.334163
     18 C                     0.249081
     19 C                    -0.060836
     20 C                     0.193966
     21 C                    -0.333378
     22 C                    -0.204298
     23 C                    -0.381035
     24 C                     0.194794
     25 C                    -0.203661
     26 C                    -0.381050
     27 C                     0.191549
     28 C                    -0.059376
     29 C                     0.249338
     30 C                    -0.334563
     31 C                     0.191404
     32 C                    -0.377613
     33 C                    -0.205036
     34 C                    -0.333181
     35 C                    -0.430103
     36 C                     0.075029
     37 C                    -0.219198
     38 C                     0.056473
     39 C                    -0.385766
     40 C                     0.403715
     41 C                    -0.757095
     42 C                    -0.761595
     43 O                    -0.454306
     44 C                    -0.405087
     45 C                    -0.381108
     46 C                     0.072574
     47 C                    -0.223693
     48 C                     0.058856
     49 C                    -0.436973
     50 C                     0.403777
     51 C                    -0.760659
     52 C                    -0.759645
     53 O                    -0.454493
     54 C                    -0.405605
     55 H                     0.234941
     56 H                     0.235546
     57 H                     0.235656
     58 H                     0.232339
     59 H                     0.220585
     60 H                     0.225915
     61 H                     0.219636
     62 H                     0.219592
     63 H                     0.225938
     64 H                     0.220848
     65 H                     0.225860
     66 H                     0.220363
     67 H                     0.219726
     68 H                     0.221178
     69 H                     0.225992
     70 H                     0.219554
     71 H                     0.220398
     72 H                     0.220846
     73 H                     0.231971
     74 H                     0.243145
     75 H                     0.244361
     76 H                     0.237726
     77 H                     0.245429
     78 H                     0.246881
     79 H                     0.238849
     80 H                     0.202670
     81 H                     0.202880
     82 H                     0.220556
     83 H                     0.220713
     84 H                     0.244136
     85 H                     0.237029
     86 H                     0.244464
     87 H                     0.245336
     88 H                     0.246398
     89 H                     0.232290
     90 H                     0.239012
     91 H                     0.203294
     92 H                     0.202808
  ----------------------------------------
  Sum of atomic charges =    -0.000000

                    Cartesian Multipole Moments
 -----------------------------------------------------------------
    Charge (ESU x 10^10)
                -0.0000
    Dipole Moment (Debye)
         X      -0.4655      Y      -0.2539      Z      -1.0208
       Tot       1.1503
    Quadrupole Moments (Debye-Ang)
        XX    -267.4364     XY      -1.8259     YY    -267.8097
        XZ     -21.4533     YZ     -10.9874     ZZ    -309.1568

 Total job time:  22062.47s(wall), 105449.18s(cpu)
        *  Thank you very much for using Q-Chem.  Have a nice day.  *
