 Q-Chem 5.1, Q-Chem, Inc., Pleasanton, CA (2018)
 Q-Chem 5.1.1 for Intel X86 EM64T Linux

User input:
--------------------------------------------------------------
$rem
threads 4
jobtype	opt
method PBEh-3c
basis def2-mSVP
mem_static	512
mem_total	6096
sym_ignore	true
scf_convergence 9
$end

$molecule
read gsopt.mol
$end

--------------------------------------------------------------

   17   -2123.7984737999      5.94e-10  Convergence criterion met
 Total energy in the final basis set =    -2123.7984737999
   14   -2123.8004058703      8.67e-10  Convergence criterion met
 Total energy in the final basis set =    -2123.8004058703
   14   -2123.8010264844      5.71e-10  Convergence criterion met
 Total energy in the final basis set =    -2123.8010264844
   14   -2123.8010265376      4.57e-10  Convergence criterion met
 Total energy in the final basis set =    -2123.8010265376
   13   -2123.8010212494      4.44e-10  Convergence criterion met
 Total energy in the final basis set =    -2123.8010212494
   12   -2123.8010944814      6.25e-10  Convergence criterion met
 Total energy in the final basis set =    -2123.8010944814
   12   -2123.8011393890      3.51e-10  Convergence criterion met
 Total energy in the final basis set =    -2123.8011393890
   11   -2123.8011527764      6.10e-10  Convergence criterion met
 Total energy in the final basis set =    -2123.8011527764
   11   -2123.8011383275      5.76e-10  Convergence criterion met
 Total energy in the final basis set =    -2123.8011383275
   10   -2123.8011233985      9.96e-10  Convergence criterion met
 Total energy in the final basis set =    -2123.8011233985
    9   -2123.8011204906      6.39e-10  Convergence criterion met
 Total energy in the final basis set =    -2123.8011204906

             Standard Nuclear Orientation (Angstroms)
    I     Atom           X                Y                Z
 ----------------------------------------------------------------
    1      C       0.0187710420     0.4692526486     0.0847392504
    2      C       0.0136982182     0.3407728498     1.4788427139
    3      H       0.9542945978     0.2328500939     2.0082209826
    4      C      -1.1867063165     0.3455858174     2.1709081752
    5      C      -2.4005331164     0.4813724424     1.4630946644
    6      C      -2.4081306663     0.6010103237     0.0869853314
    7      H      -3.3453027758     0.6918945221    -0.4520550143
    8      C      -1.2045962319     0.5968324010    -0.6169015393
    9      C      -3.5033892661     0.4482787446     2.4167318589
   10      C      -4.8671500606     0.5309448096     2.3187786039
   11      H      -5.3661696591     0.6565144081     1.3656597906
   12      C      -2.9198084142     0.2860349575     3.6842394894
   13      C      -3.6471479388     0.1966756056     4.8647245573
   14      C      -1.5158780434     0.2172028529     3.5945903019
   15      C      -0.8057894763     0.0492120279     4.7524757046
   16      H       0.2749094494    -0.0155280614     4.7561148670
   17      C      -5.6332537188     0.4473840511     3.5041201198
   18      H      -6.7110644021     0.5125866918     3.4302597462
   19      C      -5.0554613137     0.2845775031     4.7413850497
   20      H      -5.6815382770     0.2229902089     5.6230238540
   21      C      -1.5154232438    -0.0446830753     5.9743332760
   22      H      -0.9508139015    -0.1781781993     6.8876071471
   23      C      -2.8868996248     0.0249964053     6.0449339832
   24      H      -3.3831488592    -0.0535552142     7.0043145431
   25      B       1.3605539124     0.4544094294    -0.7047703746
   26      B      -1.2203185496     0.7145336869    -2.1665687553
   27      C       0.1256308173     0.7381882868    -2.9413575056
   28      C       0.1194208769     0.8584153948    -4.3306056982
   29      H      -0.8232275688     0.9498601853    -4.8592202829
   30      C       1.3111650838     0.8466111144    -5.0272727041
   31      C       2.5423363350     0.7179575107    -4.3488486655
   32      C       2.5568762408     0.6037402450    -2.9693206099
   33      H       3.4955602718     0.4980271311    -2.4364977530
   34      C       1.3543265805     0.6111542664    -2.2531514836
   35      C       3.6093212356     0.7087377326    -5.3567479225
   36      C       4.9740526631     0.5956198959    -5.3402693766
   37      H       5.5285558407     0.4931220360    -4.4159953109
   38      C       2.9698625920     0.8306430539    -6.6059149282
   39      C       3.6235546623     0.8412679083    -7.8335468032
   40      C       1.5741392660     0.9205267819    -6.4622692539
   41      C       0.7982606083     1.0299190154    -7.5868414375
   42      H      -0.2813490061     1.0996069602    -7.5336434272
   43      C       5.6705486215     0.6079716235    -6.5732750265
   44      H       6.7486822310     0.5175146357    -6.5557894462
   45      C       5.0324844905     0.7250625627    -7.7854373167
   46      H       5.6093374093     0.7249728803    -8.7022000554
   47      C       1.4371382773     1.0474325643    -8.8487783991
   48      H       0.8258583848     1.1329869214    -9.7378491952
   49      C       2.8025111048     0.9559646794    -8.9819536342
   50      H       3.2494033805     0.9691142972    -9.9685898652
   51      C      -2.5768527536     0.7778860656    -2.9585851106
   52      C      -3.1751867979    -0.3963327718    -3.4180135235
   53      C      -4.3616089627    -0.3514481778    -4.1470664339
   54      H      -4.7947542814    -1.2832090735    -4.4881995882
   55      C      -4.9650504977     0.8670753929    -4.4256328052
   56      O      -6.1132084845     1.0090594478    -5.1213290684
   57      C      -4.3733176262     2.0423320950    -3.9715965239
   58      H      -4.8507596861     2.9890953590    -4.1945343740
   59      C      -3.1939003743     2.0039926316    -3.2475155551
   60      C      -6.7503400760    -0.1432815319    -5.6038793100
   61      H      -7.6470048671     0.1904865131    -6.1221572849
   62      H      -6.1269883242    -0.6985481549    -6.3127002448
   63      H      -7.0477974931    -0.8230582203    -4.7986408141
   64      C      -2.5323590753    -1.7261910818    -3.1360172965
   65      H      -3.1298053680    -2.5555187208    -3.5142666046
   66      H      -1.5454050935    -1.7964636925    -3.5990598368
   67      H      -2.3947121363    -1.8843526440    -2.0642217788
   68      C      -2.5623800286     3.2817077031    -2.7721778493
   69      H      -3.1498759936     4.1550433161    -3.0530735941
   70      H      -1.5622589159     3.4092661830    -3.1927189585
   71      H      -2.4559253200     3.2916250536    -1.6853303973
   72      C       2.7193937449     0.2663277227     0.0486535136
   73      C       3.4280839116     1.3685801838     0.5220826411
   74      C       4.6445436532     1.1974242168     1.1799051919
   75      H       5.1692072538     2.0745903068     1.5364856502
   76      C       5.1612460838    -0.0781018092     1.3674529777
   77      O       6.3281757105    -0.3428219986     1.9927231259
   78      C       4.4566796177    -1.1819368405     0.8936687836
   79      H       4.8694758030    -2.1721383750     1.0460945202
   80      C       3.2474987802    -1.0181684665     0.2401629565
   81      C       7.0682105103     0.7304179433     2.5071319710
   82      H       7.9558626071     0.3037211335     2.9697344272
   83      H       6.5151831553     1.2901165395     3.2688906918
   84      H       7.3860834806     1.4297846528     1.7267708050
   85      C       2.4946436907    -2.2139416638    -0.2742650588
   86      H       2.9995460487    -3.1483447631    -0.0315589401
   87      H       2.3806094428    -2.1740581061    -1.3601495925
   88      H       1.4888471126    -2.2642690745     0.1493799005
   89      C       2.8750563500     2.7509035782     0.3106919271
   90      H       3.5144955322     3.5184686662     0.7457640574
   91      H       2.7687745919     2.9767438188    -0.7529413049
   92      H       1.8841855632     2.8573496883     0.7582621814
 ----------------------------------------------------------------

    9   -2123.8011212895      3.49e-10  Convergence criterion met
 Total energy in the final basis set =    -2123.8011212895
 Final energy is   -2123.80112128954
 **  OPTIMIZATION CONVERGED  **

                    Orbital Energies (a.u.)
 --------------------------------------------------------------

 Alpha MOs
 -- Occupied --
-19.522 -19.522 -10.498 -10.498 -10.488 -10.488 -10.462 -10.462
-10.462 -10.462 -10.462 -10.462 -10.461 -10.460 -10.460 -10.460
-10.460 -10.460 -10.459 -10.459 -10.458 -10.458 -10.458 -10.457
-10.457 -10.457 -10.457 -10.457 -10.451 -10.450 -10.450 -10.449
-10.449 -10.449 -10.448 -10.448 -10.444 -10.444 -10.431 -10.431
-10.430 -10.430 -10.429 -10.428 -10.426 -10.426 -10.425 -10.425
-10.424 -10.423 -10.412 -10.410  -6.944  -6.944  -1.180  -1.179
 -1.014  -1.013  -0.960  -0.956  -0.951  -0.950  -0.931  -0.931
 -0.906  -0.898  -0.869  -0.869  -0.858  -0.851  -0.851  -0.846
 -0.845  -0.844  -0.819  -0.811  -0.810  -0.802  -0.788  -0.788
 -0.764  -0.763  -0.754  -0.753  -0.732  -0.726  -0.724  -0.718
 -0.687  -0.680  -0.677  -0.662  -0.659  -0.648  -0.645  -0.644
 -0.641  -0.641  -0.593  -0.590  -0.590  -0.586  -0.582  -0.582
 -0.581  -0.573  -0.572  -0.557  -0.556  -0.541  -0.541  -0.534
 -0.533  -0.533  -0.526  -0.521  -0.510  -0.505  -0.500  -0.494
 -0.493  -0.489  -0.488  -0.487  -0.483  -0.481  -0.481  -0.479
 -0.477  -0.474  -0.471  -0.470  -0.468  -0.466  -0.463  -0.462
 -0.462  -0.455  -0.455  -0.452  -0.442  -0.440  -0.439  -0.439
 -0.431  -0.424  -0.423  -0.420  -0.419  -0.417  -0.416  -0.409
 -0.399  -0.398  -0.396  -0.392  -0.392  -0.392  -0.390  -0.388
 -0.376  -0.373  -0.371  -0.364  -0.360  -0.355  -0.352  -0.349
 -0.337  -0.335  -0.316  -0.310  -0.293  -0.292  -0.277  -0.273
 -0.273  -0.259  -0.254  -0.253  -0.247  -0.244

          Ground-State Mulliken Net Atomic Charges

     Atom                 Charge (a.u.)
  ----------------------------------------
      1 C                    -0.154533
      2 C                    -0.395312
      3 H                     0.234235
      4 C                     0.113897
      5 C                     0.086308
      6 C                    -0.385299
      7 H                     0.233844
      8 C                    -0.153630
      9 C                     0.194493
     10 C                    -0.377437
     11 H                     0.220808
     12 C                    -0.061993
     13 C                     0.254252
     14 C                     0.196258
     15 C                    -0.387733
     16 H                     0.220573
     17 C                    -0.205847
     18 H                     0.226222
     19 C                    -0.333267
     20 H                     0.219482
     21 C                    -0.202541
     22 H                     0.225689
     23 C                    -0.338233
     24 H                     0.219813
     25 B                     0.701614
     26 B                     0.699950
     27 C                    -0.152472
     28 C                    -0.384832
     29 H                     0.235860
     30 C                     0.086998
     31 C                     0.110598
     32 C                    -0.394350
     33 H                     0.235461
     34 C                    -0.154555
     35 C                     0.197866
     36 C                    -0.386535
     37 H                     0.220911
     38 C                    -0.063846
     39 C                     0.251186
     40 C                     0.195866
     41 C                    -0.378227
     42 H                     0.220992
     43 C                    -0.202957
     44 H                     0.225687
     45 C                    -0.336850
     46 H                     0.219766
     47 C                    -0.205702
     48 H                     0.226112
     49 C                    -0.332192
     50 H                     0.219383
     51 C                    -0.223369
     52 C                     0.062285
     53 C                    -0.436054
     54 H                     0.220926
     55 C                     0.403298
     56 O                    -0.454673
     57 C                    -0.380324
     58 H                     0.220343
     59 C                     0.065972
     60 C                    -0.405717
     61 H                     0.238967
     62 H                     0.203298
     63 H                     0.203572
     64 C                    -0.761563
     65 H                     0.232439
     66 H                     0.246355
     67 H                     0.246420
     68 C                    -0.758742
     69 H                     0.236780
     70 H                     0.243521
     71 H                     0.243459
     72 C                    -0.218783
     73 C                     0.067079
     74 C                    -0.435436
     75 H                     0.220685
     76 C                     0.403219
     77 O                    -0.454235
     78 C                    -0.384846
     79 H                     0.220238
     80 C                     0.062521
     81 C                    -0.405686
     82 H                     0.238800
     83 H                     0.203251
     84 H                     0.202822
     85 C                    -0.762638
     86 H                     0.237521
     87 H                     0.245017
     88 H                     0.244858
     89 C                    -0.760927
     90 H                     0.231935
     91 H                     0.245549
     92 H                     0.246083
  ----------------------------------------
  Sum of atomic charges =    -0.000000

                    Cartesian Multipole Moments
 -----------------------------------------------------------------
    Charge (ESU x 10^10)
                -0.0000
    Dipole Moment (Debye)
         X      -0.0145      Y      -0.2140      Z      -0.0409
       Tot       0.2183
    Quadrupole Moments (Debye-Ang)
        XX    -266.0845     XY      14.5288     YY    -313.5166
        XZ       0.4171     YZ       7.0997     ZZ    -262.7939

 Total job time:  16695.08s(wall), 66296.09s(cpu)
        *  Thank you very much for using Q-Chem.  Have a nice day.  *
