 Q-Chem 5.0, Q-Chem, Inc., Pleasanton, CA (2017)
 Q-Chem 5.0.1 for Intel X86 EM64T Linux

User input:
--------------------------------------------------------------
$rem
threads 8
jobtype	sp
method PBEh-3c
basis def2-mSVP
mem_static	1024
mem_total	14000
sym_ignore	true
cis_n_roots             6
cis_singlets            true
cis_triplets		true
rpa                     false
calc_soc 		true
cis_moments             true
cis_relaxed_density	true
$end

$molecule
read gsopt.mol
$end

--------------------------------------------------------------

             Standard Nuclear Orientation (Angstroms)
    I     Atom           X                Y                Z
 ----------------------------------------------------------------
    1      C       0.0000000000     0.0000000000     0.0000000000
    2      C       0.0000000000     0.0000000000     1.3970920000
    3      H       0.9433709246     0.0000000000     1.9325653342
    4      C      -1.1981251426     0.0395229771     2.0849095805
    5      C      -2.4226306496     0.0531470899     1.3811803287
    6      C      -2.4312628164     0.0645579141    -0.0009706144
    7      H      -3.3687772008     0.1244804561    -0.5428543733
    8      C      -1.2245748378     0.0500427236    -0.7051824898
    9      C      -3.5078517806     0.1505703623     2.3595108367
   10      C      -4.8727938557     0.2449176319     2.2937367298
   11      H      -5.4026711956     0.2254453929     1.3497759379
   12      C      -2.8926425366     0.2072508379     3.6232956289
   13      C      -3.5785667507     0.3715626871     4.8221788756
   14      C      -1.4909094157     0.1497721242     3.5157267572
   15      C      -0.7425703494     0.2616920842     4.6582682961
   16      H       0.3399797589     0.2430727580     4.6381562063
   17      C      -5.6007056390     0.3896720080     3.4986024678
   18      H      -6.6788844983     0.4654444494     3.4449899672
   19      C      -4.9882276473     0.4540077496     4.7277008903
   20      H      -5.5849839563     0.5817348218     5.6226859546
   21      C      -1.4127103466     0.4220986359     5.8943598038
   22      H      -0.8200248533     0.5140177426     6.7952569150
   23      C      -2.7832081789     0.4751592698     5.9885780081
   24      H      -3.2527634138     0.6098405387     6.9554345466
   25      B       1.3454717354     0.0279796007    -0.7760263189
   26      B      -1.2274918054     0.2088446059    -2.2519643460
   27      C       0.1130404394     0.1495114022    -3.0390770850
   28      C       0.1209245427     0.2761855340    -4.4308891871
   29      H      -0.8200643762     0.3652314160    -4.9628404855
   30      C       1.3234859187     0.3425676327    -5.1128515835
   31      C       2.5422877475     0.2927807108    -4.4015789225
   32      C       2.5450843655     0.1465669057    -3.0268564460
   33      H       3.4796176518     0.1301191490    -2.4764287734
   34      C       1.3367354031     0.0746679798    -2.3314383427
   35      C       3.6334620489     0.5308459523    -5.3435581384
   36      C       4.9892317088     0.6887496463    -5.2324349855
   37      H       5.5012129659     0.5872948823    -4.2834566239
   38      C       3.0333575005     0.7030273219    -6.6039681965
   39      C       3.7305320891     1.0346526280    -7.7597987945
   40      C       1.6326785015     0.5880670822    -6.5233346126
   41      C       0.8970546273     0.7855249084    -7.6614324568
   42      H      -0.1842363320     0.7285924319    -7.6606754855
   43      C       5.7274640999     1.0136403459    -6.3945322638
   44      H       6.7984158162     1.1428754208    -6.3078159382
   45      C       5.1315879678     1.1840415872    -7.6219752578
   46      H       5.7357299226     1.4465147923    -8.4817665630
   47      C       1.5799119187     1.0944280227    -8.8621388035
   48      H       0.9972591873     1.2522840615    -9.7602445576
   49      C       2.9475566640     1.2233730876    -8.9239087837
   50      H       3.4231371428     1.4822564617    -9.8619026009
   51      C      -2.5728581492     0.5450579313    -2.9849797973
   52      C      -3.3678187502    -0.4549937685    -3.5413501445
   53      C      -4.5660813284    -0.1377545762    -4.1796208074
   54      H      -5.1591556223    -0.9389744822    -4.6015712612
   55      C      -4.9776058773     1.1853326017    -4.2680054546
   56      O      -6.1143395627     1.5945828437    -4.8705287923
   57      C      -4.1896785383     2.1877855871    -3.7092983760
   58      H      -4.5218974524     3.2166491458    -3.7836931418
   59      C      -3.0015595573     1.8793467096    -3.0705777302
   60      C      -6.9473416306     0.6314045534    -5.4556913298
   61      H      -7.7925144335     1.1682646293    -5.8817499050
   62      H      -6.4464701498     0.0802570427    -6.2583684961
   63      H      -7.3279896530    -0.0899388910    -4.7249536922
   64      C      -2.9281650631    -1.8894095258    -3.4450775772
   65      H      -3.6425355219    -2.5684456258    -3.9097727018
   66      H      -1.9633250159    -2.0446173339    -3.9330194738
   67      H      -2.8117774438    -2.1998800591    -2.4041990383
   68      C      -2.1747587157     2.9764975062    -2.4584105223
   69      H      -2.5867834533     3.9612759903    -2.6764622218
   70      H      -1.1473091241     2.9618083507    -2.8288578115
   71      H      -2.1242096564     2.8749933654    -1.3719942508
   72      C       2.7028708746     0.0665656048     0.0114957983
   73      C       3.2737928651     1.2855181387     0.3799101172
   74      C       4.4792274769     1.3195426873     1.0781903294
   75      H       4.8957808312     2.2825555105     1.3453542018
   76      C       5.1245138321     0.1376668551     1.4171044808
   77      O       6.2947935590     0.0746774829     2.0873437723
   78      C       4.5563007496    -1.0810674214     1.0572299022
   79      H       5.0672624832    -1.9977576420     1.3263071087
   80      C       3.3598172690    -1.1210426816     0.3617385108
   81      C       6.9274019868     1.2735821132     2.4445407072
   82      H       7.8489713262     0.9997174145     2.9541357416
   83      H       6.3213107822     1.8784756432     3.1272060294
   84      H       7.1819035408     1.8861575496     1.5731657068
   85      C       2.7515173206    -2.4406815578    -0.0213867654
   86      H       3.3831862916    -3.2796878929     0.2678480499
   87      H       2.5910213313    -2.5053192365    -1.0998940341
   88      H       1.7785447372    -2.5808001158     0.4551093677
   89      C       2.5852146944     2.5759785994     0.0286351277
   90      H       3.1627111445     3.4440272994     0.3460865496
   91      H       2.4269833359     2.6661888068    -1.0482411182
   92      H       1.6035994476     2.6460256826     0.5028366071
 ----------------------------------------------------------------

   15   -2123.7985757450      6.20E-09 Convergence criterion met
 Total energy in the final basis set = -2123.79857575

         TDDFT/TDA Excitation Energies
 ---------------------------------------------------

 Excited state   1: excitation energy (eV) =    2.3546
 Total energy for state  1:                 -2123.71204601 au
    Multiplicity: Triplet
    Trans. Mom.:  0.0000 X   0.0000 Y   0.0000 Z
    Strength   :     0.0000000000
    D(175) --> V(  2) amplitude =  0.2817
    D(179) --> V(  1) amplitude =  0.8588
    D(180) --> V(  1) amplitude = -0.2758

 Excited state   2: excitation energy (eV) =    2.5100
 Total energy for state  2:                 -2123.70633444 au
    Multiplicity: Triplet
    Trans. Mom.:  0.0000 X   0.0000 Y   0.0000 Z
    Strength   :     0.0000000000
    D(178) --> V(  2) amplitude = -0.5109
    D(179) --> V(  1) amplitude =  0.2500
    D(180) --> V(  1) amplitude =  0.7078
    D(180) --> V(  4) amplitude = -0.2137

 Excited state   3: excitation energy (eV) =    2.5580
 Total energy for state  3:                 -2123.70456986 au
    Multiplicity: Triplet
    Trans. Mom.:  0.0000 X   0.0000 Y   0.0000 Z
    Strength   :     0.0000000000
    D(178) --> V(  1) amplitude =  0.7104
    D(178) --> V(  4) amplitude = -0.2507
    D(180) --> V(  2) amplitude = -0.5438

 Excited state   4: excitation energy (eV) =    2.7707
 Total energy for state  4:                 -2123.69675389 au
    Multiplicity: Triplet
    Trans. Mom.:  0.0000 X   0.0000 Y   0.0000 Z
    Strength   :     0.0000000000
    D(175) --> V(  1) amplitude =  0.6995
    D(179) --> V(  2) amplitude =  0.5536

 Excited state   5: excitation energy (eV) =    2.8615
 Total energy for state  5:                 -2123.69341724 au
    Multiplicity: Triplet
    Trans. Mom.:  0.0000 X   0.0000 Y   0.0000 Z
    Strength   :     0.0000000000
    D(182) --> V(  1) amplitude =  0.9263

 Excited state   6: excitation energy (eV) =    2.9237
 Total energy for state  6:                 -2123.69113093 au
    Multiplicity: Singlet
    Trans. Mom.: -0.2021 X  -0.0017 Y   0.1822 Z
    Strength   :     0.0053040180
    D(182) --> V(  1) amplitude =  0.9592

 Excited state   7: excitation energy (eV) =    3.0056
 Total energy for state  7:                 -2123.68812225 au
    Multiplicity: Triplet
    Trans. Mom.:  0.0000 X   0.0000 Y   0.0000 Z
    Strength   :     0.0000000000
    D(181) --> V(  1) amplitude =  0.9495

 Excited state   8: excitation energy (eV) =    3.0243
 Total energy for state  8:                 -2123.68743590 au
    Multiplicity: Singlet
    Trans. Mom.: -0.1584 X  -0.0016 Y   0.1374 Z
    Strength   :     0.0032592173
    D(179) --> V(  1) amplitude = -0.5201
    D(181) --> V(  1) amplitude =  0.8038

 Excited state   9: excitation energy (eV) =    3.0488
 Total energy for state  9:                 -2123.68653311 au
    Multiplicity: Singlet
    Trans. Mom.: -0.0908 X  -0.0074 Y   0.0617 Z
    Strength   :     0.0009042785
    D(179) --> V(  1) amplitude =  0.7570
    D(180) --> V(  1) amplitude = -0.2662
    D(181) --> V(  1) amplitude =  0.5349

 Excited state  10: excitation energy (eV) =    3.3404
 Total energy for state 10:                 -2123.67581993 au
    Multiplicity: Singlet
    Trans. Mom.: -1.7136 X  -0.1579 Y   2.9599 Z
    Strength   :     0.9593565396
    D(179) --> V(  1) amplitude =  0.2820
    D(180) --> V(  1) amplitude =  0.8947

 Excited state  11: excitation energy (eV) =    3.6273
 Total energy for state 11:                 -2123.66527665 au
    Multiplicity: Singlet
    Trans. Mom.: -0.0394 X  -0.1900 Y  -0.0110 Z
    Strength   :     0.0033581315
    D(178) --> V(  1) amplitude =  0.9231

 Excited state  12: excitation energy (eV) =    3.8521
 Total energy for state 12:                 -2123.65701389 au
    Multiplicity: Singlet
    Trans. Mom.:  0.0084 X  -0.0101 Y  -0.0418 Z
    Strength   :     0.0001812504
    D(177) --> V(  1) amplitude =  0.9838

 ---------------------------------------------------

                    Orbital Energies (a.u.)
 --------------------------------------------------------------

 Alpha MOs
 -- Occupied --
-19.522 -19.522 -10.498 -10.498 -10.488 -10.488 -10.462 -10.462
-10.462 -10.462 -10.462 -10.462 -10.460 -10.460 -10.460 -10.460
-10.460 -10.460 -10.459 -10.459 -10.459 -10.458 -10.458 -10.458
-10.458 -10.457 -10.457 -10.457 -10.450 -10.450 -10.450 -10.449
-10.449 -10.449 -10.448 -10.448 -10.444 -10.444 -10.431 -10.431
-10.430 -10.429 -10.429 -10.429 -10.427 -10.426 -10.426 -10.425
-10.424 -10.423 -10.411 -10.411  -6.944  -6.944  -1.180  -1.180
 -1.013  -1.013  -0.960  -0.956  -0.951  -0.950  -0.931  -0.931
 -0.906  -0.898  -0.869  -0.869  -0.858  -0.851  -0.851  -0.847
 -0.845  -0.844  -0.819  -0.811  -0.810  -0.802  -0.789  -0.788
 -0.764  -0.763  -0.754  -0.753  -0.732  -0.726  -0.724  -0.718
 -0.687  -0.680  -0.677  -0.662  -0.659  -0.648  -0.645  -0.644
 -0.641  -0.641  -0.593  -0.590  -0.590  -0.586  -0.582  -0.582
 -0.581  -0.573  -0.572  -0.557  -0.557  -0.541  -0.541  -0.534
 -0.533  -0.533  -0.526  -0.521  -0.510  -0.505  -0.500  -0.494
 -0.493  -0.489  -0.488  -0.487  -0.484  -0.481  -0.481  -0.479
 -0.477  -0.474  -0.471  -0.470  -0.468  -0.466  -0.463  -0.462
 -0.462  -0.455  -0.455  -0.452  -0.442  -0.440  -0.440  -0.439
 -0.431  -0.424  -0.424  -0.420  -0.418  -0.417  -0.417  -0.409
 -0.399  -0.398  -0.396  -0.392  -0.392  -0.392  -0.390  -0.388
 -0.376  -0.373  -0.371  -0.364  -0.360  -0.355  -0.352  -0.348
 -0.337  -0.335  -0.315  -0.310  -0.293  -0.292  -0.277  -0.273
 -0.273  -0.259  -0.253  -0.253  -0.247  -0.244

          Ground-State Mulliken Net Atomic Charges

     Atom                 Charge (a.u.)
  ----------------------------------------
      1 C                    -0.153981
      2 C                    -0.388323
      3 H                     0.235556
      4 C                     0.094156
      5 C                     0.098452
      6 C                    -0.387162
      7 H                     0.234951
      8 C                    -0.154038
      9 C                     0.194382
     10 C                    -0.381413
     11 H                     0.220622
     12 C                    -0.061186
     13 C                     0.249170
     14 C                     0.194651
     15 C                    -0.380930
     16 H                     0.220770
     17 C                    -0.204119
     18 H                     0.225863
     19 C                    -0.334104
     20 H                     0.219639
     21 C                    -0.204319
     22 H                     0.225972
     23 C                    -0.333370
     24 H                     0.219594
     25 B                     0.698991
     26 B                     0.693786
     27 C                    -0.151346
     28 C                    -0.388905
     29 H                     0.232441
     30 C                     0.099852
     31 C                     0.094001
     32 C                    -0.385328
     33 H                     0.235649
     34 C                    -0.156023
     35 C                     0.190949
     36 C                    -0.377976
     37 H                     0.221128
     38 C                    -0.059503
     39 C                     0.249532
     40 C                     0.191995
     41 C                    -0.380935
     42 H                     0.220357
     43 C                    -0.204924
     44 H                     0.225968
     45 C                    -0.333123
     46 H                     0.219540
     47 C                    -0.203754
     48 H                     0.225878
     49 C                    -0.334680
     50 H                     0.219764
     51 C                    -0.219411
     52 C                     0.075391
     53 C                    -0.430219
     54 H                     0.220387
     55 C                     0.403769
     56 O                    -0.454263
     57 C                    -0.385549
     58 H                     0.220798
     59 C                     0.056472
     60 C                    -0.405254
     61 H                     0.238865
     62 H                     0.202919
     63 H                     0.202704
     64 C                    -0.757278
     65 H                     0.231970
     66 H                     0.244417
     67 H                     0.243205
     68 C                    -0.761605
     69 H                     0.237719
     70 H                     0.245436
     71 H                     0.246868
     72 C                    -0.224361
     73 C                     0.058900
     74 C                    -0.436961
     75 H                     0.220663
     76 C                     0.403700
     77 O                    -0.454501
     78 C                    -0.380958
     79 H                     0.220513
     80 C                     0.073164
     81 C                    -0.405525
     82 H                     0.238988
     83 H                     0.202768
     84 H                     0.203270
     85 C                    -0.761066
     86 H                     0.237043
     87 H                     0.244494
     88 H                     0.244162
     89 C                    -0.759922
     90 H                     0.232316
     91 H                     0.246419
     92 H                     0.245383
  ----------------------------------------
  Sum of atomic charges =    -0.000000

                    Cartesian Multipole Moments
 -----------------------------------------------------------------
    Charge (ESU x 10^10)
                -0.0000
    Dipole Moment (Debye)
         X      -0.2285      Y       1.1166      Z      -0.1642
       Tot       1.1516
    Quadrupole Moments (Debye-Ang)
        XX    -264.6437     XY      17.5670     YY    -312.4219
        XZ       1.7167     YZ       5.2778     ZZ    -264.6910

 Total job time:  7019.32s(wall), 33008.03s(cpu)
        *  Thank you very much for using Q-Chem.  Have a nice day.  *
