 Q-Chem 5.1, Q-Chem, Inc., Pleasanton, CA (2018)
 Q-Chem 5.1.1 for Intel X86 EM64T Linux

User input:
--------------------------------------------------------------
$rem
threads 8
jobtype	opt
method PBEh-3c
basis def2-mSVP
mem_static	1024
mem_total	14000
sym_ignore	true
cis_n_roots             2
cis_singlets            true
cis_triplets		false
rpa                     false
cis_state_deriv         1
$end

$molecule
read incoords.mol
$end

--------------------------------------------------------------

   15   -2123.7881758101      7.14e-09  Convergence criterion met
 Total energy in the final basis set =    -2123.7881758101
    9   -2123.7881483147      7.66e-09  Convergence criterion met
 Total energy in the final basis set =    -2123.7881483147
    9   -2123.7881209854      8.54e-09  Convergence criterion met
 Total energy in the final basis set =    -2123.7881209854
   10   -2123.7880626032      9.26e-09  Convergence criterion met
 Total energy in the final basis set =    -2123.7880626032
   10   -2123.7880002156      8.79e-09  Convergence criterion met
 Total energy in the final basis set =    -2123.7880002156
   10   -2123.7881119867      8.22e-09  Convergence criterion met
 Total energy in the final basis set =    -2123.7881119867
   12   -2123.7875369691      5.67e-09  Convergence criterion met
 Total energy in the final basis set =    -2123.7875369691
   12   -2123.7885793585      4.62e-09  Convergence criterion met
   10   -2123.7893635446      9.54e-09  Convergence criterion met
 Total energy in the final basis set =    -2123.7893635446
   10   -2123.7893533028      9.77e-09  Convergence criterion met
 Total energy in the final basis set =    -2123.7893533028
   10   -2123.7894128679      6.20e-09  Convergence criterion met
 Total energy in the final basis set =    -2123.7894128679
    9   -2123.7894127877      6.93e-09  Convergence criterion met
 Total energy in the final basis set =    -2123.7894127877
    9   -2123.7894015992      6.15e-09  Convergence criterion met
 Total energy in the final basis set =    -2123.7894015992
    9   -2123.7893930177      3.92e-09  Convergence criterion met
 Total energy in the final basis set =    -2123.7893930177

             Standard Nuclear Orientation (Angstroms)
    I     Atom           X                Y                Z
 ----------------------------------------------------------------
    1      C       2.4818486051    -1.5921491003     0.3720246794
    2      C       3.4535593709    -1.2815065332    -0.6282716187
    3      B       4.4695471232    -2.3510390178    -1.0110801503
    4      C       4.5060157498    -3.7121796096    -0.3251515299
    5      C       3.5211608755    -4.0126880781     0.6636338384
    6      B       2.4607013064    -2.9711583101     1.0553121716
    7      C       5.4366195597    -4.7081664924    -0.6957346191
    8      C       5.3843693821    -5.9577896654    -0.1334348172
    9      C       4.3810304551    -6.2661504370     0.8304695584
   10      C       3.4837639234    -5.3009626402     1.2230486200
   11      C       1.4750178894    -0.6561930238     0.6572737690
   12      C       1.4108581296     0.5399270376    -0.0184055386
   13      C       2.3930747225     0.8634577515    -0.9987457037
   14      C       3.3890857819    -0.0351102565    -1.2910132614
   15      C       7.2015066200    -7.5163710380    -1.2066871658
   16      C       7.6545459376    -8.8550466709    -1.2073722320
   17      C       7.0798806523    -9.8301861176    -0.4259992552
   18      C       5.9947178568    -9.5087585187     0.4233217702
   19      C       5.5832982597    -8.1781819520     0.4184181037
   20      C       6.1566695747    -7.1740814921    -0.3858818885
   21      C       5.2584886818   -10.3898010407     1.2518446483
   22      C       4.1975861456    -9.9144250216     1.9866743267
   23      C       3.7981857398    -8.5586652696     1.9595772491
   24      C       4.4993845748    -7.6808182306     1.1702506032
   25      C       1.8189014608     4.1097966905    -2.9552530323
   26      C       2.5299828757     2.9427697778    -2.5937254064
   27      C       2.0243135895     2.1467198961    -1.5975428284
   28      C       0.8187440958     2.5372202009    -0.9803201878
   29      C       0.0826058296     3.6643290264    -1.3334657860
   30      C       0.6320960873     4.4693113553    -2.3596187019
   31      C       0.4078729515     1.5957374275    -0.0154322979
   32      C      -0.7876822579     1.7957490746     0.6277655813
   33      C      -1.5502903054     2.9378651767     0.2952409845
   34      C      -1.1437189761     3.8504005132    -0.6503732969
   35      C       7.5509592341    -1.3826071505    -3.1623825156
   36      C       6.7312690177    -1.5686883243    -2.0802862188
   37      C       5.4162435600    -2.1234029441    -2.2447744238
   38      C       4.9741422546    -2.4932120010    -3.5579099722
   39      C       5.7995696199    -2.3000026374    -4.6266492647
   40      C       7.0918914790    -1.7430955851    -4.4455062979
   41      C       7.1759061276    -1.2105333868    -0.7043082567
   42      C       3.6149444762    -3.0869183712    -3.7322601359
   43      O       7.7921083950    -1.6023805670    -5.5433032076
   44      C       9.1053391474    -1.0622173258    -5.5132338499
   45      C       0.5054859121    -3.4185262508     4.3708638627
   46      C       1.5037877372    -3.1007500083     3.4645972689
   47      C       1.3288021846    -3.3377455094     2.0929047382
   48      C       0.1262926020    -3.9065098215     1.6678667085
   49      C      -0.8775633311    -4.2235678895     2.5825264122
   50      C      -0.6914268609    -3.9783592428     3.9355820568
   51      C       2.7910738031    -2.4966570488     3.9500352463
   52      C      -0.0978500608    -4.1878380403     0.2071375212
   53      O      -1.6089093795    -4.2476656293     4.8932457145
   54      C      -2.8451183882    -4.7751431695     4.5005604297
   55      H       6.1889729851    -4.5030426348    -1.4518067441
   56      H       2.7142373823    -5.5321438147     1.9525776041
   57      H       0.7192425479    -0.9104995262     1.3933458310
   58      H       4.1114897380     0.2071692762    -2.0651147466
   59      H       7.6768570016    -6.7936519972    -1.8581314888
   60      H       8.4782226739    -9.1228103434    -1.8569766486
   61      H       7.4506631535   -10.8471516832    -0.4699728604
   62      H       5.5221530105   -11.4394442400     1.2979195553
   63      H       3.6391130303   -10.6040517482     2.6069193896
   64      H       2.9460930897    -8.2414487063     2.5475673313
   65      H       2.2189155250     4.7347796831    -3.7435500108
   66      H       3.4451974190     2.6926763907    -3.1159165037
   67      H       0.1134352467     5.3630332326    -2.6844064302
   68      H      -1.1620600453     1.0962870285     1.3648839621
   69      H      -2.4957884657     3.0919931729     0.7995478324
   70      H      -1.7684808314     4.7046680891    -0.8805936123
   71      H       8.5379608116    -0.9637960891    -3.0241037408
   72      H       5.4951006608    -2.5645627020    -5.6311011379
   73      H       8.1797464916    -0.7898061229    -0.6924322461
   74      H       7.1550843727    -2.0916099630    -0.0608706554
   75      H       6.4867821783    -0.4925215448    -0.2573417593
   76      H       3.4104777765    -3.3242438100    -4.7749933731
   77      H       2.8468228755    -2.4012418798    -3.3742518198
   78      H       3.5174624171    -3.9985625723    -3.1421443521
   79      H       9.4500679625    -1.0603083702    -6.5421577737
   80      H       9.7729533018    -1.6798306499    -4.9113197461
   81      H       9.1034568187    -0.0402304395    -5.1325079751
   82      H       0.6420416339    -3.2310209842     5.4293714553
   83      H      -1.7971036119    -4.6600205741     2.2127581353
   84      H       2.9823419386    -1.5366646481     3.4664626274
   85      H       3.6404763231    -3.1421011933     3.7167819044
   86      H       2.7821929344    -2.3327983607     5.0274650757
   87      H       0.6324244091    -4.9045355576    -0.1744671539
   88      H       0.0048627651    -3.2816879846    -0.3930894480
   89      H      -1.0911794603    -4.5970571670     0.0205367238
   90      H      -3.4342018465    -4.8999635131     5.4073157544
   91      H      -3.3885238886    -4.1068602717     3.8237025369
   92      H      -2.7484391240    -5.7519372895     4.0141791057
 ----------------------------------------------------------------

    7   -2123.7893916237      6.42e-09  Convergence criterion met
 Total energy in the final basis set =    -2123.7893916237

         TDDFT/TDA Excitation Energies
 ---------------------------------------------------

 Excited state   1: excitation energy (eV) =    2.4341
 Total energy for state  1:                 -2123.69993832 au
    Multiplicity: Singlet
    Trans. Mom.: -0.0585 X   0.1718 Y  -0.0362 Z
    Strength   :     0.0020422722
    D(182) --> V(  1) amplitude =  0.9725

 Excited state   2: excitation energy (eV) =    2.8838
 Total energy for state  2:                 -2123.68341548 au
    Multiplicity: Singlet
    Trans. Mom.: -0.0392 X   0.0897 Y  -0.0132 Z
    Strength   :     0.0006891066
    D(179) --> V(  1) amplitude = -0.3129
    D(180) --> V(  1) amplitude = -0.5457
    D(181) --> V(  1) amplitude =  0.7363

 ---------------------------------------------------

 Final energy is   -2123.69993831988
 **  OPTIMIZATION CONVERGED  **

                    Orbital Energies (a.u.)
 --------------------------------------------------------------

 Alpha MOs
 -- Occupied --
-19.523 -19.522 -10.499 -10.498 -10.492 -10.487 -10.463 -10.463
-10.463 -10.462 -10.462 -10.462 -10.461 -10.460 -10.460 -10.460
-10.460 -10.460 -10.459 -10.459 -10.459 -10.459 -10.459 -10.458
-10.458 -10.458 -10.457 -10.457 -10.451 -10.450 -10.449 -10.449
-10.449 -10.448 -10.446 -10.445 -10.445 -10.444 -10.430 -10.430
-10.429 -10.429 -10.429 -10.427 -10.426 -10.425 -10.423 -10.423
-10.421 -10.419 -10.412 -10.409  -6.941  -6.934  -1.189  -1.178
 -1.013  -1.012  -0.958  -0.955  -0.949  -0.941  -0.931  -0.931
 -0.904  -0.896  -0.870  -0.868  -0.857  -0.852  -0.849  -0.846
 -0.845  -0.844  -0.819  -0.811  -0.809  -0.800  -0.791  -0.787
 -0.763  -0.758  -0.753  -0.749  -0.732  -0.726  -0.725  -0.718
 -0.687  -0.681  -0.677  -0.663  -0.658  -0.647  -0.642  -0.642
 -0.640  -0.634  -0.594  -0.590  -0.589  -0.587  -0.582  -0.581
 -0.580  -0.573  -0.573  -0.556  -0.554  -0.541  -0.540  -0.538
 -0.533  -0.532  -0.525  -0.521  -0.510  -0.504  -0.501  -0.494
 -0.491  -0.489  -0.488  -0.487  -0.482  -0.481  -0.480  -0.479
 -0.478  -0.473  -0.470  -0.467  -0.466  -0.464  -0.462  -0.461
 -0.461  -0.457  -0.454  -0.453  -0.441  -0.441  -0.440  -0.439
 -0.430  -0.425  -0.423  -0.421  -0.419  -0.419  -0.416  -0.408
 -0.398  -0.396  -0.395  -0.393  -0.392  -0.392  -0.389  -0.389
 -0.375  -0.372  -0.367  -0.360  -0.359  -0.355  -0.350  -0.347
 -0.339  -0.332  -0.316  -0.311  -0.293  -0.292  -0.278  -0.273
 -0.272  -0.259  -0.252  -0.251  -0.246  -0.230

          Ground-State Mulliken Net Atomic Charges

     Atom                 Charge (a.u.)
  ----------------------------------------
      1 C                    -0.149502
      2 C                    -0.148244
      3 B                     0.670397
      4 C                    -0.146217
      5 C                    -0.151020
      6 B                     0.689441
      7 C                    -0.388635
      8 C                     0.103636
      9 C                     0.100338
     10 C                    -0.393812
     11 C                    -0.390930
     12 C                     0.100628
     13 C                     0.102927
     14 C                    -0.390443
     15 C                    -0.380303
     16 C                    -0.203431
     17 C                    -0.333722
     18 C                     0.248626
     19 C                    -0.064480
     20 C                     0.199302
     21 C                    -0.332200
     22 C                    -0.204260
     23 C                    -0.379339
     24 C                     0.194660
     25 C                    -0.202961
     26 C                    -0.380532
     27 C                     0.196745
     28 C                    -0.063036
     29 C                     0.248926
     30 C                    -0.334077
     31 C                     0.191399
     32 C                    -0.375926
     33 C                    -0.205004
     34 C                    -0.331915
     35 C                    -0.443251
     36 C                     0.093189
     37 C                    -0.254822
     38 C                     0.077107
     39 C                    -0.395718
     40 C                     0.399167
     41 C                    -0.756272
     42 C                    -0.758864
     43 O                    -0.444094
     44 C                    -0.402418
     45 C                    -0.378726
     46 C                     0.067452
     47 C                    -0.224195
     48 C                     0.056031
     49 C                    -0.433618
     50 C                     0.402262
     51 C                    -0.759372
     52 C                    -0.757627
     53 O                    -0.455113
     54 C                    -0.405559
     55 H                     0.234160
     56 H                     0.234607
     57 H                     0.235229
     58 H                     0.232491
     59 H                     0.220935
     60 H                     0.225928
     61 H                     0.219882
     62 H                     0.220027
     63 H                     0.225868
     64 H                     0.221463
     65 H                     0.226053
     66 H                     0.221069
     67 H                     0.220020
     68 H                     0.221796
     69 H                     0.225961
     70 H                     0.220050
     71 H                     0.215770
     72 H                     0.216953
     73 H                     0.229407
     74 H                     0.244689
     75 H                     0.244684
     76 H                     0.235165
     77 H                     0.245964
     78 H                     0.246644
     79 H                     0.242299
     80 H                     0.208852
     81 H                     0.209288
     82 H                     0.220598
     83 H                     0.220890
     84 H                     0.244172
     85 H                     0.243632
     86 H                     0.236558
     87 H                     0.245279
     88 H                     0.246187
     89 H                     0.231372
     90 H                     0.238542
     91 H                     0.202732
     92 H                     0.202189
  ----------------------------------------
  Sum of atomic charges =    -0.000000

                    Cartesian Multipole Moments
 -----------------------------------------------------------------
    Charge (ESU x 10^10)
                -0.0000
    Dipole Moment (Debye)
         X      -0.1643      Y      -0.2216      Z      -1.2406
       Tot       1.2709
    Quadrupole Moments (Debye-Ang)
        XX    -262.4439     XY      -3.6472     YY    -267.2784
        XZ     -24.2081     YZ     -11.2356     ZZ    -306.6969

 Total job time:  34163.56s(wall), 244400.02s(cpu)
        *  Thank you very much for using Q-Chem.  Have a nice day.  *
