 Q-Chem 5.1, Q-Chem, Inc., Pleasanton, CA (2018)
 Q-Chem 5.1.1 for Intel X86 EM64T Linux

User input:
--------------------------------------------------------------
$rem
threads 8
jobtype	opt
method PBEh-3c
basis def2-mSVP
mem_static	1024
mem_total	12000
sym_ignore	true
cis_n_roots             2
cis_singlets            true
cis_triplets		false
rpa                     false
cis_state_deriv         1
$end

$molecule
read s1opt.mol
$end

--------------------------------------------------------------

   15   -2123.7892131451      7.17e-09  Convergence criterion met
 Total energy in the final basis set =    -2123.7892131451
   12   -2123.7907189383      6.43e-09  Convergence criterion met
 Total energy in the final basis set =    -2123.7907189383
   12   -2123.7908871413      6.20e-09  Convergence criterion met
 Total energy in the final basis set =    -2123.7908871413
   10   -2123.7909648951      7.20e-09  Convergence criterion met
 Total energy in the final basis set =    -2123.7909648951
   10   -2123.7909938427      5.06e-09  Convergence criterion met
 Total energy in the final basis set =    -2123.7909938427
    9   -2123.7909961855      9.58e-09  Convergence criterion met
 Total energy in the final basis set =    -2123.7909961855
    9   -2123.7909920662      7.26e-09  Convergence criterion met
 Total energy in the final basis set =    -2123.7909920662
    9   -2123.7909795724      4.89e-09  Convergence criterion met
 Total energy in the final basis set =    -2123.7909795724
    8   -2123.7909736329      5.69e-09  Convergence criterion met
 Total energy in the final basis set =    -2123.7909736329

             Standard Nuclear Orientation (Angstroms)
    I     Atom           X                Y                Z
 ----------------------------------------------------------------
    1      C       0.0060715875    -0.4086848689     0.0713921041
    2      C      -0.0004027188    -0.3855997069     1.4865676845
    3      H       0.9346241170    -0.4285779790     2.0379032289
    4      C      -1.1833516322    -0.3152989921     2.1821181064
    5      C      -2.4153519426    -0.2548680336     1.4690029981
    6      C      -2.4298108732    -0.2756691468     0.0950855300
    7      H      -3.3716345478    -0.2322289498    -0.4426814034
    8      C      -1.2356844850    -0.3567846276    -0.6357465446
    9      C      -3.5022845204    -0.1862072338     2.4322308335
   10      C      -4.8699600642    -0.1115894489     2.3448509196
   11      H      -5.3794106298    -0.0866754467     1.3894455883
   12      C      -2.9048663684    -0.2130040481     3.7068173775
   13      C      -3.6206402081    -0.1728552882     4.8991159258
   14      C      -1.5000886178    -0.2908995105     3.6122294395
   15      C      -0.7804617223    -0.3308282074     4.7784548464
   16      H       0.3005762989    -0.3936567923     4.7805709366
   17      C      -1.4778371680    -0.2915665393     6.0081031217
   18      H      -0.9054281484    -0.3247320323     6.9262313266
   19      C      -2.8492646536    -0.2147352539     6.0838157846
   20      H      -3.3368749321    -0.1879214041     7.0505566104
   21      C      -5.6201314602    -0.0676693050     3.5406652302
   22      H      -6.6990934009    -0.0092936789     3.4724662509
   23      C      -5.0306249390    -0.0972517990     4.7833745709
   24      H      -5.6466999846    -0.0628832830     5.6734681576
   25      B       1.2958114859    -0.4912851595    -0.7382503830
   26      C       1.2984122014    -0.5396607638    -2.2626918055
   27      C       2.4946168084    -0.6281383974    -3.0143287869
   28      H       3.4558070880    -0.6670365539    -2.5098565540
   29      C       2.4590729430    -0.6702357610    -4.3869063616
   30      C       1.2030489620    -0.6220538392    -5.0577727308
   31      C       0.0315107969    -0.5389305422    -4.3467479949
   32      H      -0.9207002226    -0.5078057097    -4.8665610512
   33      C       0.0442212265    -0.4947629789    -2.9454613862
   34      C       1.4426266833    -0.6799894336    -6.4913887729
   35      C       0.6463037763    -0.6704795079    -7.6097631232
   36      H      -0.4325431688    -0.6058385278    -7.5405545388
   37      C       2.8380711644    -0.7649481197    -6.6559962315
   38      C       3.4687425440    -0.8435750712    -7.8952243918
   39      C       3.5035762014    -0.7639385407    -5.4129870484
   40      C       4.8726695186    -0.8481869971    -5.4212518585
   41      H       5.4500351925    -0.8560895957    -4.5052450239
   42      C       1.2619103743    -0.7475855125    -8.8790760815
   43      H       0.6327335784    -0.7397035553    -9.7602026371
   44      C       2.6259297582    -0.8325023411    -9.0337321523
   45      H       3.0551727145    -0.8904085207   -10.0265470566
   46      C       5.5434992404    -0.9287771611    -6.6637870694
   47      H       6.6239732785    -0.9952461224    -6.6626408879
   48      C       4.8799089144    -0.9276255867    -7.8685200008
   49      H       5.4378236561    -0.9924393728    -8.7947742875
   50      B      -1.2803316265    -0.3973683559    -2.1721904032
   51      C       2.6740533672    -0.5115482013     0.0126644082
   52      C       3.2740826045    -1.7508817767     0.4036196434
   53      C       4.4595355750    -1.7438609933     1.0776963387
   54      H       4.9371536736    -2.6620340948     1.3943760921
   55      C       5.1019770985    -0.5151409649     1.3846892544
   56      O       6.2324267352    -0.6297216678     2.0356005765
   57      C       4.5349157122     0.7155467222     0.9967909246
   58      H       5.0264143157     1.6505313602     1.2267622450
   59      C       3.3451056378     0.7226085292     0.3179662079
   60      C       6.9830309524     0.5187649529     2.4049068685
   61      H       7.8635624692     0.1467208584     2.9183699885
   62      H       7.2910056929     1.0881578336     1.5272420149
   63      H       6.4159979552     1.1598697346     3.0808648944
   64      C       2.7120451261     1.9985626628    -0.1187835837
   65      H       3.3019489648     2.8684436097     0.1644743136
   66      H       2.5767865528     2.0017645143    -1.2014181165
   67      H       1.7140642320     2.0935900232     0.3118043581
   68      C       2.5744489715    -3.0253074254     0.0631822707
   69      H       3.1271584252    -3.8977615006     0.4073744420
   70      H       2.4314800891    -3.1050144898    -1.0149894565
   71      H       1.5790708430    -3.0443029566     0.5084615246
   72      C      -2.6536401681    -0.3490012438    -2.9541575739
   73      C      -3.3369368949    -1.5238061322    -3.2750709080
   74      C      -4.5330925743    -1.4868282072    -3.9908101172
   75      H      -5.0291756800    -2.4217975064    -4.2191660842
   76      C      -5.0651521613    -0.2723023961    -4.3982220191
   77      O      -6.2172437546    -0.1362719730    -5.0949449511
   78      C      -4.3936244621     0.9051744177    -4.0859215124
   79      H      -4.8148495075     1.8498548856    -4.4092347625
   80      C      -3.2053913013     0.8716704550    -3.3749085518
   81      C      -6.9381023053    -1.2919100695    -5.4211515114
   82      H      -7.8226324137    -0.9653689002    -5.9650994820
   83      H      -6.3692564923    -1.9728473729    -6.0636146494
   84      H      -7.2624000086    -1.8468294848    -4.5340696334
   85      C      -2.4927742966     2.1562396750    -3.0595575697
   86      H      -3.0480688953     3.0252545310    -3.4124250517
   87      H      -1.5044833372     2.1807521375    -3.5235346082
   88      H      -2.3405547357     2.2700402426    -1.9845167936
   89      C      -2.7753905632    -2.8549681917    -2.8578860825
   90      H      -3.4294770868    -3.6793309943    -3.1434952216
   91      H      -1.7997699134    -3.0313694226    -3.3153927629
   92      H      -2.6315587864    -2.9031257450    -1.7769118381
 ----------------------------------------------------------------

    8   -2123.7909775254      5.63e-09  Convergence criterion met
 Total energy in the final basis set =    -2123.7909775254

         TDDFT/TDA Excitation Energies
 ---------------------------------------------------

 Excited state   1: excitation energy (eV) =    2.4170
 Total energy for state  1:                 -2123.70215562 au
    Multiplicity: Singlet
    Trans. Mom.:  0.0016 X  -0.0038 Y  -0.0286 Z
    Strength   :     0.0000494231
    D(182) --> V(  1) amplitude =  0.9727

 Excited state   2: excitation energy (eV) =    2.8894
 Total energy for state  2:                 -2123.68479300 au
    Multiplicity: Singlet
    Trans. Mom.:  0.0335 X  -0.0071 Y  -0.0102 Z
    Strength   :     0.0000903327
    D(181) --> V(  1) amplitude =  0.9701

 ---------------------------------------------------

 Final energy is   -2123.70215562300
 **  OPTIMIZATION CONVERGED  **

                    Orbital Energies (a.u.)
 --------------------------------------------------------------

 Alpha MOs
 -- Occupied --
-19.523 -19.522 -10.499 -10.498 -10.492 -10.488 -10.463 -10.463
-10.463 -10.463 -10.462 -10.462 -10.461 -10.461 -10.461 -10.460
-10.460 -10.460 -10.460 -10.460 -10.459 -10.458 -10.458 -10.458
-10.458 -10.457 -10.457 -10.457 -10.452 -10.451 -10.450 -10.448
-10.448 -10.448 -10.446 -10.445 -10.445 -10.444 -10.430 -10.430
-10.430 -10.429 -10.429 -10.426 -10.426 -10.425 -10.423 -10.421
-10.421 -10.420 -10.413 -10.408  -6.942  -6.934  -1.189  -1.179
 -1.013  -1.012  -0.958  -0.955  -0.950  -0.940  -0.931  -0.931
 -0.904  -0.896  -0.869  -0.868  -0.857  -0.852  -0.849  -0.845
 -0.845  -0.844  -0.819  -0.811  -0.809  -0.800  -0.790  -0.787
 -0.763  -0.759  -0.753  -0.748  -0.732  -0.726  -0.725  -0.718
 -0.687  -0.681  -0.677  -0.663  -0.658  -0.647  -0.642  -0.642
 -0.640  -0.634  -0.594  -0.590  -0.589  -0.587  -0.582  -0.581
 -0.579  -0.573  -0.573  -0.556  -0.554  -0.542  -0.540  -0.537
 -0.533  -0.532  -0.525  -0.521  -0.510  -0.504  -0.501  -0.494
 -0.491  -0.489  -0.488  -0.487  -0.482  -0.481  -0.481  -0.479
 -0.478  -0.473  -0.470  -0.467  -0.466  -0.464  -0.462  -0.461
 -0.461  -0.456  -0.454  -0.453  -0.441  -0.440  -0.440  -0.439
 -0.430  -0.424  -0.424  -0.421  -0.420  -0.419  -0.416  -0.408
 -0.398  -0.396  -0.394  -0.393  -0.392  -0.392  -0.389  -0.389
 -0.375  -0.372  -0.367  -0.360  -0.359  -0.355  -0.350  -0.347
 -0.339  -0.331  -0.316  -0.311  -0.293  -0.292  -0.278  -0.273
 -0.272  -0.259  -0.253  -0.251  -0.246  -0.229

          Ground-State Mulliken Net Atomic Charges

     Atom                 Charge (a.u.)
  ----------------------------------------
      1 C                    -0.148277
      2 C                    -0.394786
      3 H                     0.233635
      4 C                     0.115616
      5 C                     0.093715
      6 C                    -0.391658
      7 H                     0.233298
      8 C                    -0.149974
      9 C                     0.194031
     10 C                    -0.375707
     11 H                     0.221395
     12 C                    -0.065588
     13 C                     0.253327
     14 C                     0.201066
     15 C                    -0.386157
     16 H                     0.221193
     17 C                    -0.201888
     18 H                     0.225869
     19 C                    -0.337334
     20 H                     0.220086
     21 C                    -0.205718
     22 H                     0.226129
     23 C                    -0.331982
     24 H                     0.219956
     25 B                     0.677374
     26 C                    -0.148843
     27 C                    -0.396206
     28 H                     0.234294
     29 C                     0.116606
     30 C                     0.091187
     31 C                    -0.389578
     32 H                     0.235077
     33 C                    -0.149466
     34 C                     0.195216
     35 C                    -0.376245
     36 H                     0.221590
     37 C                    -0.065998
     38 C                     0.251527
     39 C                     0.202180
     40 C                    -0.387119
     41 H                     0.221103
     42 C                    -0.205709
     43 H                     0.226064
     44 C                    -0.331005
     45 H                     0.219831
     46 C                    -0.201716
     47 H                     0.225763
     48 C                    -0.336922
     49 H                     0.220104
     50 B                     0.692644
     51 C                    -0.254127
     52 C                     0.086084
     53 C                    -0.394224
     54 H                     0.216155
     55 C                     0.398840
     56 O                    -0.444023
     57 C                    -0.449344
     58 H                     0.216131
     59 C                     0.083724
     60 C                    -0.402882
     61 H                     0.242204
     62 H                     0.209351
     63 H                     0.209480
     64 C                    -0.760088
     65 H                     0.229666
     66 H                     0.247093
     67 H                     0.247210
     68 C                    -0.758910
     69 H                     0.234690
     70 H                     0.244801
     71 H                     0.244289
     72 C                    -0.224021
     73 C                     0.060101
     74 C                    -0.431166
     75 H                     0.220981
     76 C                     0.401718
     77 O                    -0.455219
     78 C                    -0.379160
     79 H                     0.220572
     80 C                     0.060025
     81 C                    -0.405531
     82 H                     0.238478
     83 H                     0.202468
     84 H                     0.202962
     85 C                    -0.758621
     86 H                     0.236496
     87 H                     0.244032
     88 H                     0.243581
     89 C                    -0.757919
     90 H                     0.231243
     91 H                     0.245043
     92 H                     0.245816
  ----------------------------------------
  Sum of atomic charges =    -0.000000

                    Cartesian Multipole Moments
 -----------------------------------------------------------------
    Charge (ESU x 10^10)
                -0.0000
    Dipole Moment (Debye)
         X       0.2274      Y      -0.0185      Z       0.1676
       Tot       0.2831
    Quadrupole Moments (Debye-Ang)
        XX    -261.8777     XY      15.4282     YY    -311.6555
        XZ      -0.8063     YZ      11.1488     ZZ    -263.1594

 Total job time:  17300.10s(wall), 123259.36s(cpu)
        *  Thank you very much for using Q-Chem.  Have a nice day.  *
