 Q-Chem 5.0, Q-Chem, Inc., Pleasanton, CA (2017)
 Q-Chem 5.0.1 for Intel X86 EM64T Linux

User input:
--------------------------------------------------------------
$rem
threads 8
jobtype	sp
method PBEh-3c
basis def2-mSVP
mem_static	1024
mem_total	14000
sym_ignore	true
cis_n_roots             6
cis_singlets            true
cis_triplets		true
rpa                     false
calc_soc 		true
cis_moments             true
cis_relaxed_density	true
$end

$molecule
read s1opt.mol
$end

--------------------------------------------------------------

             Standard Nuclear Orientation (Angstroms)
    I     Atom           X                Y                Z
 ----------------------------------------------------------------
    1      C       0.0000000000     0.0000000000     0.0000000000
    2      C       0.0000000000     0.0000000000     1.4125670000
    3      H       0.9369861087     0.0000000000     1.9619426563
    4      C      -1.1791817123    -0.0343494972     2.1117234751
    5      C      -2.4217631302    -0.0770572543     1.4152648072
    6      C      -2.4417128774    -0.0504348322     0.0406063013
    7      H      -3.3849961230    -0.0884104878    -0.4947467647
    8      C      -1.2461642185    -0.0109345704    -0.6963450021
    9      C      -3.4888933347    -0.2155861863     2.4015646539
   10      C      -4.8516651727    -0.3758305637     2.3514960362
   11      H      -5.3901456153    -0.3900623853     1.4122104252
   12      C      -2.8607249375    -0.2303534455     3.6635778549
   13      C      -3.5338592319    -0.3962111104     4.8715125237
   14      C      -1.4616031371    -0.1202938795     3.5443414099
   15      C      -0.7066131342    -0.1587638258     4.6893645587
   16      H       0.3739098995    -0.0918269841     4.6638495863
   17      C      -1.3638765983    -0.3051210906     5.9318952281
   18      H      -0.7657258478    -0.3365860576     6.8337557093
   19      C      -2.7302506907    -0.4229829663     6.0358739046
   20      H      -3.1900905143    -0.5483630763     7.0087352618
   21      C      -5.5602258804    -0.5415336220     3.5634459889
   22      H      -6.6340823632    -0.6720793973     3.5190513978
   23      C      -4.9388465543    -0.5515793330     4.7903359235
   24      H      -5.5227937403    -0.6905759251     5.6920438569
   25      B       1.2934723817    -0.0732541387    -0.8038011303
   26      C       1.2964151924    -0.0944481487    -2.3276829141
   27      C       2.4905189420    -0.2055997598    -3.0751117770
   28      H       3.4502952933    -0.2252421782    -2.5669350779
   29      C       2.4528121382    -0.3334697956    -4.4415338637
   30      C       1.1987054895    -0.3561400438    -5.1176927030
   31      C       0.0278129288    -0.2198583254    -4.4093142898
   32      H      -0.9286364407    -0.2519944451    -4.9210190537
   33      C       0.0418027636    -0.0922248891    -3.0112428923
   34      C       1.4464593957    -0.6434196606    -6.5236837189
   35      C       0.6546973558    -0.8711891734    -7.6210865645
   36      H      -0.4250000241    -0.8065531984    -7.5679251248
   37      C       2.8431552067    -0.7693226009    -6.6636948930
   38      C       3.4797636684    -1.1195491322    -7.8507314580
   39      C       3.5016742288    -0.5779652475    -5.4321974317
   40      C       4.8663479039    -0.7133958226    -5.3990018763
   41      H       5.4306004317    -0.5913402686    -4.4827216937
   42      C       1.2762983720    -1.2185306778    -8.8415528205
   43      H       0.6504260663    -1.4030598747    -9.7054274698
   44      C       2.6403102736    -1.3427260631    -8.9690425027
   45      H       3.0705192977    -1.6234331814    -9.9225754004
   46      C       5.5441127774    -1.0410699274    -6.5954778945
   47      H       6.6208212621    -1.1499078246    -6.5658090306
   48      C       4.8879186075    -1.2459543848    -7.7871021236
   49      H       5.4490480075    -1.5147173994    -8.6737451318
   50      B      -1.2852517010    -0.0626715376    -2.2321077331
   51      C       2.6376074320    -0.2835873920    -0.0169616792
   52      C       3.0771597895    -1.6120232061     0.2970266980
   53      C       4.2412632430    -1.7921863702     0.9849719590
   54      H       4.6031152663    -2.7813508233     1.2344407958
   55      C       5.0135910515    -0.6752788637     1.3961658405
   56      O       6.1113053180    -0.9713615855     2.0462582287
   57      C       4.5948151641     0.6394735617     1.1078003408
   58      H       5.1805947673     1.4903619374     1.4264636058
   59      C       3.4288862717     0.8350066654     0.4151045897
   60      C       6.9804239711     0.0459499351     2.5226666330
   61      H       7.7972621475    -0.4684287970     3.0183646891
   62      H       7.3772194437     0.6432355843     1.7009513973
   63      H       6.4749606480     0.6934959907     3.2400558451
   64      C       2.9419789089     2.2059324747     0.0945174110
   65      H       3.6185401834     2.9781899333     0.4560844843
   66      H       2.8169411214     2.3222365527    -0.9830029323
   67      H       1.9559442961     2.3671923836     0.5332342110
   68      C       2.2492604233    -2.7778060860    -0.1340605469
   69      H       2.6950039041    -3.7227835010     0.1721301207
   70      H       2.1289578231    -2.7845566251    -1.2174879722
   71      H       1.2467786027    -2.7122541658     0.2896940030
   72      C      -2.6663453821    -0.1522485981    -2.9915392435
   73      C      -3.2494603597    -1.3899621907    -3.2712189169
   74      C      -4.4655954296    -1.4707674631    -3.9489667795
   75      H      -4.8832352698    -2.4495064593    -4.1500168878
   76      C      -5.1166633343    -0.3142956837    -4.3542040871
   77      O      -6.2946994329    -0.2951231658    -5.0200000431
   78      C      -4.5482178504     0.9243232513    -4.0746015004
   79      H      -5.0640632354     1.8219781470    -4.3945426947
   80      C      -3.3394251579     1.0078422380    -3.4032213652
   81      C      -6.8868791095    -1.5177121039    -5.3594796045
   82      H      -7.8034665501    -1.2826273198    -5.8974448051
   83      H      -6.2486752323    -2.1244316460    -6.0111048328
   84      H      -7.1465946019    -2.1161694326    -4.4794579775
   85      C      -2.7380933099     2.3529040195    -3.1084462629
   86      H      -3.3418499372     3.1653128500    -3.5124929780
   87      H      -1.7355439191     2.4373012688    -3.5324554352
   88      H      -2.6399599228     2.5121031671    -2.0325672372
   89      C      -2.5667469579    -2.6583214137    -2.8373049327
   90      H      -3.1175390340    -3.5444218862    -3.1542230698
   91      H      -1.5589558058    -2.7295429822    -3.2510870557
   92      H      -2.4664192265    -2.7019961789    -1.7507487069
 ----------------------------------------------------------------

   15   -2123.7892131804      7.12E-09 Convergence criterion met
 Total energy in the final basis set = -2123.78921318

         TDDFT/TDA Excitation Energies
 ---------------------------------------------------

 Excited state   1: excitation energy (eV) =    2.2027
 Total energy for state  1:                 -2123.70826535 au
    Multiplicity: Triplet
    Trans. Mom.:  0.0000 X   0.0000 Y   0.0000 Z
    Strength   :     0.0000000000
    D(175) --> V(  2) amplitude = -0.2484
    D(179) --> V(  1) amplitude =  0.4426
    D(180) --> V(  1) amplitude =  0.7961

 Excited state   2: excitation energy (eV) =    2.3888
 Total energy for state  2:                 -2123.70142560 au
    Multiplicity: Triplet
    Trans. Mom.:  0.0000 X   0.0000 Y   0.0000 Z
    Strength   :     0.0000000000
    D(179) --> V(  1) amplitude =  0.3048
    D(182) --> V(  1) amplitude =  0.8926

 Excited state   3: excitation energy (eV) =    2.4347
 Total energy for state  3:                 -2123.69973886 au
    Multiplicity: Singlet
    Trans. Mom.:  0.1086 X  -0.0076 Y  -0.1514 Z
    Strength   :     0.0020739916
    D(182) --> V(  1) amplitude =  0.9725

 Excited state   4: excitation energy (eV) =    2.4509
 Total energy for state  4:                 -2123.69914266 au
    Multiplicity: Triplet
    Trans. Mom.:  0.0000 X   0.0000 Y   0.0000 Z
    Strength   :     0.0000000000
    D(178) --> V(  2) amplitude =  0.4494
    D(179) --> V(  1) amplitude =  0.6386
    D(180) --> V(  1) amplitude = -0.3877
    D(182) --> V(  1) amplitude = -0.3441

 Excited state   5: excitation energy (eV) =    2.4971
 Total energy for state  5:                 -2123.69744788 au
    Multiplicity: Triplet
    Trans. Mom.:  0.0000 X   0.0000 Y   0.0000 Z
    Strength   :     0.0000000000
    D(178) --> V(  1) amplitude =  0.7321
    D(178) --> V(  4) amplitude = -0.2352
    D(179) --> V(  2) amplitude =  0.4324
    D(180) --> V(  2) amplitude = -0.3483

 Excited state   6: excitation energy (eV) =    2.7047
 Total energy for state  6:                 -2123.68981607 au
    Multiplicity: Triplet
    Trans. Mom.:  0.0000 X   0.0000 Y   0.0000 Z
    Strength   :     0.0000000000
    D(175) --> V(  1) amplitude =  0.7102
    D(179) --> V(  2) amplitude = -0.3590
    D(180) --> V(  2) amplitude = -0.4394

 Excited state   7: excitation energy (eV) =    2.8485
 Total energy for state  7:                 -2123.68453151 au
    Multiplicity: Triplet
    Trans. Mom.:  0.0000 X   0.0000 Y   0.0000 Z
    Strength   :     0.0000000000
    D(181) --> V(  1) amplitude =  0.9594

 Excited state   8: excitation energy (eV) =    2.8841
 Total energy for state  8:                 -2123.68322508 au
    Multiplicity: Singlet
    Trans. Mom.:  0.0476 X  -0.0046 Y  -0.0857 Z
    Strength   :     0.0006806580
    D(179) --> V(  1) amplitude = -0.3182
    D(180) --> V(  1) amplitude = -0.5488
    D(181) --> V(  1) amplitude =  0.7318

 Excited state   9: excitation energy (eV) =    2.8934
 Total energy for state  9:                 -2123.68288435 au
    Multiplicity: Singlet
    Trans. Mom.: -0.0820 X   0.0052 Y   0.1574 Z
    Strength   :     0.0022350488
    D(179) --> V(  1) amplitude =  0.3940
    D(180) --> V(  1) amplitude =  0.6142
    D(181) --> V(  1) amplitude =  0.6364

 Excited state  10: excitation energy (eV) =    3.2330
 Total energy for state 10:                 -2123.67040268 au
    Multiplicity: Singlet
    Trans. Mom.:  1.6954 X  -0.1725 Y  -3.0809 Z
    Strength   :     0.9818455261
    D(179) --> V(  1) amplitude =  0.8072
    D(180) --> V(  1) amplitude = -0.4963

 Excited state  11: excitation energy (eV) =    3.5358
 Total energy for state 11:                 -2123.65927531 au
    Multiplicity: Singlet
    Trans. Mom.:  0.0880 X   0.2328 Y   0.0585 Z
    Strength   :     0.0056609358
    D(178) --> V(  1) amplitude =  0.9315

 Excited state  12: excitation energy (eV) =    3.6541
 Total energy for state 12:                 -2123.65492582 au
    Multiplicity: Singlet
    Trans. Mom.:  0.7130 X  -0.0083 Y   0.3849 Z
    Strength   :     0.0587864763
    D(175) --> V(  1) amplitude =  0.7287
    D(179) --> V(  2) amplitude = -0.3317
    D(180) --> V(  2) amplitude = -0.4833

 ---------------------------------------------------

                    Orbital Energies (a.u.)
 --------------------------------------------------------------

 Alpha MOs
 -- Occupied --
-19.523 -19.522 -10.499 -10.498 -10.492 -10.487 -10.463 -10.463
-10.463 -10.462 -10.462 -10.462 -10.461 -10.460 -10.460 -10.460
-10.460 -10.460 -10.459 -10.459 -10.459 -10.459 -10.459 -10.458
-10.458 -10.458 -10.458 -10.457 -10.451 -10.450 -10.449 -10.449
-10.449 -10.448 -10.446 -10.445 -10.445 -10.444 -10.430 -10.430
-10.429 -10.429 -10.429 -10.427 -10.426 -10.425 -10.423 -10.423
-10.421 -10.419 -10.412 -10.409  -6.941  -6.934  -1.189  -1.178
 -1.013  -1.012  -0.958  -0.955  -0.949  -0.941  -0.931  -0.931
 -0.904  -0.896  -0.870  -0.868  -0.857  -0.852  -0.849  -0.846
 -0.845  -0.844  -0.819  -0.811  -0.809  -0.800  -0.791  -0.787
 -0.763  -0.758  -0.753  -0.749  -0.732  -0.726  -0.725  -0.718
 -0.687  -0.681  -0.677  -0.663  -0.658  -0.647  -0.642  -0.642
 -0.640  -0.634  -0.594  -0.590  -0.589  -0.587  -0.582  -0.581
 -0.580  -0.573  -0.573  -0.556  -0.554  -0.541  -0.540  -0.538
 -0.533  -0.532  -0.525  -0.521  -0.510  -0.504  -0.501  -0.494
 -0.491  -0.489  -0.488  -0.487  -0.482  -0.481  -0.480  -0.479
 -0.478  -0.473  -0.470  -0.467  -0.466  -0.464  -0.462  -0.461
 -0.461  -0.457  -0.454  -0.453  -0.441  -0.441  -0.440  -0.439
 -0.430  -0.425  -0.423  -0.421  -0.419  -0.419  -0.416  -0.408
 -0.398  -0.396  -0.395  -0.393  -0.392  -0.392  -0.389  -0.389
 -0.375  -0.372  -0.367  -0.360  -0.359  -0.355  -0.350  -0.347
 -0.339  -0.332  -0.316  -0.311  -0.293  -0.292  -0.278  -0.273
 -0.272  -0.259  -0.252  -0.251  -0.246  -0.230

          Ground-State Mulliken Net Atomic Charges

     Atom                 Charge (a.u.)
  ----------------------------------------
      1 C                    -0.146580
      2 C                    -0.388409
      3 H                     0.234165
      4 C                     0.103165
      5 C                     0.100535
      6 C                    -0.393981
      7 H                     0.234621
      8 C                    -0.151225
      9 C                     0.194591
     10 C                    -0.379243
     11 H                     0.221427
     12 C                    -0.064901
     13 C                     0.248719
     14 C                     0.199465
     15 C                    -0.380312
     16 H                     0.220949
     17 C                    -0.203471
     18 H                     0.225931
     19 C                    -0.333526
     20 H                     0.219854
     21 C                    -0.204266
     22 H                     0.225868
     23 C                    -0.332233
     24 H                     0.220045
     25 B                     0.671409
     26 C                    -0.148472
     27 C                    -0.390298
     28 H                     0.232518
     29 C                     0.102725
     30 C                     0.100635
     31 C                    -0.391374
     32 H                     0.235282
     33 C                    -0.149458
     34 C                     0.191105
     35 C                    -0.376173
     36 H                     0.221687
     37 C                    -0.063236
     38 C                     0.249170
     39 C                     0.197125
     40 C                    -0.380499
     41 H                     0.221103
     42 C                    -0.205003
     43 H                     0.225932
     44 C                    -0.331887
     45 H                     0.220031
     46 C                    -0.202955
     47 H                     0.226053
     48 C                    -0.334197
     49 H                     0.220066
     50 B                     0.690622
     51 C                    -0.254915
     52 C                     0.077115
     53 C                    -0.395704
     54 H                     0.216867
     55 C                     0.399196
     56 O                    -0.444113
     57 C                    -0.443340
     58 H                     0.215822
     59 C                     0.093217
     60 C                    -0.402342
     61 H                     0.242283
     62 H                     0.209264
     63 H                     0.208821
     64 C                    -0.756326
     65 H                     0.229422
     66 H                     0.244694
     67 H                     0.244698
     68 C                    -0.758767
     69 H                     0.235163
     70 H                     0.245930
     71 H                     0.246605
     72 C                    -0.224647
     73 C                     0.055985
     74 C                    -0.433559
     75 H                     0.220854
     76 C                     0.402207
     77 O                    -0.455111
     78 C                    -0.378669
     79 H                     0.220592
     80 C                     0.067963
     81 C                    -0.405504
     82 H                     0.238533
     83 H                     0.202695
     84 H                     0.202181
     85 C                    -0.759803
     86 H                     0.236596
     87 H                     0.244235
     88 H                     0.243650
     89 C                    -0.757731
     90 H                     0.231378
     91 H                     0.246194
     92 H                     0.245274
  ----------------------------------------
  Sum of atomic charges =    -0.000000

                    Cartesian Multipole Moments
 -----------------------------------------------------------------
    Charge (ESU x 10^10)
                -0.0000
    Dipole Moment (Debye)
         X       0.6019      Y      -1.0562      Z       0.3746
       Tot       1.2721
    Quadrupole Moments (Debye-Ang)
        XX    -262.4121     XY      16.5521     YY    -310.4479
        XZ       0.5688     YZ      14.8651     ZZ    -264.5529

 Total job time:  6666.49s(wall), 27565.73s(cpu)
        *  Thank you very much for using Q-Chem.  Have a nice day.  *
