 Q-Chem 5.0, Q-Chem, Inc., Pleasanton, CA (2017)
 Q-Chem 5.0.1 for Intel X86 EM64T Linux

User input:
--------------------------------------------------------------
$rem
threads 8
jobtype	opt
method PBEh-3c
basis def2-mSVP
mem_static	1024
mem_total	14000
sym_ignore	true
cis_n_roots             2
cis_singlets            false
cis_triplets		true
rpa                     false
cis_state_deriv         1
$end

$molecule
read t1preopt.mol
$end

--------------------------------------------------------------

   15   -2123.7881492042      7.09E-09 Convergence criterion met
 Total energy in the final basis set = -2123.78814920
   12   -2123.7888295912      4.90E-09 Convergence criterion met
 Total energy in the final basis set = -2123.78882959
   12   -2123.7897876889      6.74E-09 Convergence criterion met
 Total energy in the final basis set = -2123.78978769
   12   -2123.7900317209      8.15E-09 Convergence criterion met
 Total energy in the final basis set = -2123.79003172
   12   -2123.7902774616      6.35E-09 Convergence criterion met
 Total energy in the final basis set = -2123.79027746
   11   -2123.7912853534      7.52E-09 Convergence criterion met
 Total energy in the final basis set = -2123.79128535
   11   -2123.7915031747      7.75E-09 Convergence criterion met
 Total energy in the final basis set = -2123.79150317
   11   -2123.7916875658      9.44E-09 Convergence criterion met
   11   -2123.7924582241      6.02E-09 Convergence criterion met
 Total energy in the final basis set = -2123.79245822
   11   -2123.7926227190      6.97E-09 Convergence criterion met
 Total energy in the final basis set = -2123.79262272
   10   -2123.7927333784      6.82E-09 Convergence criterion met
 Total energy in the final basis set = -2123.79273338
    9   -2123.7927374932      7.68E-09 Convergence criterion met
 Total energy in the final basis set = -2123.79273749
    9   -2123.7927409016      6.34E-09 Convergence criterion met
 Total energy in the final basis set = -2123.79274090
    8   -2123.7927427918      7.02E-09 Convergence criterion met
 Total energy in the final basis set = -2123.79274279

             Standard Nuclear Orientation (Angstroms)
    I     Atom           X                Y                Z
 ----------------------------------------------------------------
    1      C       2.4504050734    -1.6101843259     0.3900816862
    2      C       3.4387900713    -1.2987788964    -0.6343702941
    3      B       4.4695213434    -2.3551063461    -1.0620633978
    4      C       4.4835791552    -3.7100517785    -0.3382398448
    5      C       3.4883233674    -4.0232241461     0.6722180346
    6      B       2.4312914773    -2.9854479563     1.0756714161
    7      C       5.4189767750    -4.6874944891    -0.7107170551
    8      C       5.3720551659    -5.9398609284    -0.1497495256
    9      C       4.3510498217    -6.2645988200     0.8282392137
   10      C       3.4484510792    -5.3090607483     1.2290315212
   11      C       1.4467505539    -0.6801227275     0.6820020936
   12      C       1.3888663674     0.5146080090     0.0028550513
   13      C       2.3946861866     0.8430511680    -0.9948428252
   14      C       3.3891065525    -0.0588721615    -1.2902129141
   15      C       7.1875831090    -7.4737919988    -1.2297980687
   16      C       7.6433169948    -8.8085579433    -1.2361460692
   17      C       7.0726639000    -9.7910605114    -0.4578394229
   18      C       5.9864081440    -9.4822406707     0.3951669340
   19      C       5.5685336861    -8.1544524529     0.3980983683
   20      C       6.1403784901    -7.1430704885    -0.4028276254
   21      C       5.2535917875   -10.3687796319     1.2203803117
   22      C       4.1888905542    -9.9059077120     1.9617383930
   23      C       3.7813129463    -8.5559783930     1.9439263949
   24      C       4.4798876960    -7.6704725842     1.1561770523
   25      C       1.8298651855     4.0725346279    -2.9446498072
   26      C       2.5402517434     2.9089028311    -2.5840630170
   27      C       2.0289181512     2.1151301313    -1.5844726893
   28      C       0.8197590645     2.5053607547    -0.9672235064
   29      C       0.0861907867     3.6324037628    -1.3229284179
   30      C       0.6409350201     4.4337786481    -2.3493955427
   31      C       0.4006590006     1.5661183339     0.0013046681
   32      C      -0.7979117603     1.7682742775     0.6464585270
   33      C      -1.5532441174     2.9087188985     0.3102172393
   34      C      -1.1397768366     3.8183530803    -0.6393299736
   35      C       7.5548968270    -1.3916794465    -3.2067570763
   36      C       6.7112634983    -1.5875549191    -2.1135656175
   37      C       5.4295049066    -2.1090633790    -2.2842684363
   38      C       5.0061118947    -2.4404014152    -3.5820936695
   39      C       5.8470655577    -2.2434896769    -4.6639170922
   40      C       7.1233308813    -1.7176853179    -4.4851740990
   41      C       7.1948765187    -1.2432071769    -0.7322310791
   42      C       3.6348390933    -3.0165473243    -3.8040235788
   43      O       7.8608449035    -1.5614115849    -5.6059105672
   44      C       9.1508388484    -1.0273466038    -5.4894773058
   45      C       0.5087091735    -3.4275532064     4.4037085085
   46      C       1.4993931279    -3.1104100767     3.4897971080
   47      C       1.3105871941    -3.3504256087     2.1204781361
   48      C       0.1061644182    -3.9206327549     1.7034333775
   49      C      -0.8891621004    -4.2367630704     2.6272357331
   50      C      -0.6918487885    -3.9892158518     3.9787712074
   51      C       2.7908829755    -2.5054313028     3.9630832989
   52      C      -0.1292121474    -4.2044934235     0.2447513615
   53      O      -1.5988913483    -4.2570699791     4.9431582023
   54      C      -2.8385048505    -4.7910515065     4.5653646542
   55      H       6.1538884150    -4.4557831363    -1.4735067629
   56      H       2.6812562930    -5.5461723877     1.9580105952
   57      H       0.6916428601    -0.9317405835     1.4185891322
   58      H       4.1184356241     0.1564280602    -2.0633097312
   59      H       7.6552989214    -6.7434953916    -1.8772806223
   60      H       8.4662934585    -9.0708365260    -1.8881117366
   61      H       7.4486389181   -10.8055431582    -0.5087480511
   62      H       5.5221178204   -11.4173086371     1.2605094148
   63      H       3.6373654527   -10.6045065371     2.5774671951
   64      H       2.9287807215    -8.2450649882     2.5340475320
   65      H       2.2291666144     4.6967238466    -3.7333102971
   66      H       3.4549578738     2.6533622258    -3.1031249128
   67      H       0.1246977214     5.3276005501    -2.6768797007
   68      H      -1.1724913038     1.0705323199     1.3845395011
   69      H      -2.4991975161     3.0694562546     0.8107434944
   70      H      -1.7632383252     4.6729214862    -0.8712381492
   71      H       8.5429082913    -0.9839862823    -3.0350706475
   72      H       5.5213663312    -2.4966638971    -5.6660892767
   73      H       8.1849056902    -0.7880305598    -0.7483326469
   74      H       7.2505627290    -2.1319730239    -0.0996621843
   75      H       6.5180918157    -0.5451672496    -0.2353745180
   76      H       3.4524862811    -3.2278100355    -4.8574177001
   77      H       2.8532032829    -2.3334500871    -3.4652702279
   78      H       3.4993874951    -3.9500863536    -3.2533872216
   79      H       9.5615490282    -0.9827111900    -6.4962529959
   80      H       9.8075277794    -1.6525249752    -4.8752002908
   81      H       9.1465206014    -0.0151712629    -5.0715457260
   82      H       0.6534886264    -3.2389165483     5.4607998085
   83      H      -1.8113356178    -4.6746670470     2.2662399137
   84      H       3.6400396137    -3.1498042336     3.7251775052
   85      H       2.7921637667    -2.3413204604     5.0401678493
   86      H       2.9787323184    -1.5439376981     3.4807300859
   87      H       0.5951315273    -4.9236723158    -0.1437598985
   88      H      -0.0328120634    -3.3011285205    -0.3609431398
   89      H      -1.1238229297    -4.6131723475     0.0662601993
   90      H      -3.4162274048    -4.9149536344     5.4791466738
   91      H      -3.3911670141    -4.1262464236     3.8930146901
   92      H      -2.7423058172    -5.7688244382     4.0814528728
 ----------------------------------------------------------------

    8   -2123.7927470353      5.46E-09 Convergence criterion met
 Total energy in the final basis set = -2123.79274704

         TDDFT/TDA Excitation Energies
 ---------------------------------------------------

 Excited state   1: excitation energy (eV) =    1.9919
 Total energy for state  1:                 -2123.71954746 au
    Multiplicity: Triplet
    Trans. Mom.:  0.0000 X   0.0000 Y   0.0000 Z
    Strength   :     0.0000000000
    D(175) --> V(  2) amplitude = -0.2582
    D(180) --> V(  1) amplitude = -0.3588
    D(181) --> V(  1) amplitude =  0.8437

 Excited state   2: excitation energy (eV) =    2.3742
 Total energy for state  2:                 -2123.70549651 au
    Multiplicity: Triplet
    Trans. Mom.:  0.0000 X   0.0000 Y   0.0000 Z
    Strength   :     0.0000000000
    D(178) --> V(  2) amplitude =  0.4837
    D(179) --> V(  1) amplitude = -0.7864

 ---------------------------------------------------

 Final energy is   -2123.71954746137
 **  OPTIMIZATION CONVERGED  **

                    Orbital Energies (a.u.)
 --------------------------------------------------------------

 Alpha MOs
 -- Occupied --
-19.522 -19.522 -10.498 -10.498 -10.488 -10.488 -10.464 -10.464
-10.463 -10.463 -10.463 -10.463 -10.462 -10.462 -10.461 -10.461
-10.461 -10.461 -10.460 -10.460 -10.459 -10.459 -10.458 -10.458
-10.458 -10.458 -10.458 -10.458 -10.450 -10.449 -10.449 -10.449
-10.449 -10.449 -10.448 -10.448 -10.445 -10.445 -10.432 -10.431
-10.431 -10.431 -10.430 -10.430 -10.425 -10.425 -10.425 -10.424
-10.423 -10.422 -10.411 -10.411  -6.939  -6.939  -1.179  -1.179
 -1.012  -1.012  -0.957  -0.953  -0.950  -0.949  -0.932  -0.932
 -0.903  -0.894  -0.868  -0.868  -0.859  -0.854  -0.850  -0.847
 -0.846  -0.846  -0.814  -0.812  -0.810  -0.795  -0.788  -0.787
 -0.763  -0.762  -0.753  -0.752  -0.731  -0.729  -0.727  -0.716
 -0.687  -0.683  -0.676  -0.665  -0.658  -0.648  -0.641  -0.640
 -0.640  -0.639  -0.596  -0.592  -0.588  -0.588  -0.582  -0.582
 -0.581  -0.574  -0.573  -0.556  -0.556  -0.540  -0.540  -0.533
 -0.532  -0.532  -0.525  -0.521  -0.512  -0.506  -0.499  -0.497
 -0.490  -0.490  -0.488  -0.487  -0.482  -0.481  -0.480  -0.480
 -0.478  -0.473  -0.471  -0.470  -0.468  -0.463  -0.462  -0.461
 -0.459  -0.454  -0.454  -0.454  -0.442  -0.440  -0.438  -0.437
 -0.429  -0.426  -0.423  -0.418  -0.418  -0.416  -0.416  -0.406
 -0.398  -0.398  -0.397  -0.394  -0.393  -0.393  -0.389  -0.387
 -0.373  -0.373  -0.371  -0.362  -0.360  -0.358  -0.351  -0.345
 -0.337  -0.334  -0.319  -0.313  -0.294  -0.293  -0.273  -0.272
 -0.272  -0.260  -0.253  -0.246  -0.245  -0.244

          Ground-State Mulliken Net Atomic Charges

     Atom                 Charge (a.u.)
  ----------------------------------------
      1 C                    -0.151899
      2 C                    -0.155682
      3 B                     0.682905
      4 C                    -0.151965
      5 C                    -0.154222
      6 B                     0.683581
      7 C                    -0.383827
      8 C                     0.092600
      9 C                     0.087464
     10 C                    -0.385061
     11 C                    -0.381322
     12 C                     0.085716
     13 C                     0.090953
     14 C                    -0.384801
     15 C                    -0.374039
     16 C                    -0.204816
     17 C                    -0.332461
     18 C                     0.247573
     19 C                    -0.068854
     20 C                     0.198927
     21 C                    -0.331885
     22 C                    -0.204775
     23 C                    -0.373827
     24 C                     0.199382
     25 C                    -0.204348
     26 C                    -0.373498
     27 C                     0.197459
     28 C                    -0.068901
     29 C                     0.248079
     30 C                    -0.332720
     31 C                     0.196364
     32 C                    -0.369278
     33 C                    -0.205326
     34 C                    -0.331666
     35 C                    -0.428671
     36 C                     0.068810
     37 C                    -0.221788
     38 C                     0.058423
     39 C                    -0.384211
     40 C                     0.402476
     41 C                    -0.755565
     42 C                    -0.760938
     43 O                    -0.454477
     44 C                    -0.405036
     45 C                    -0.379588
     46 C                     0.069829
     47 C                    -0.225240
     48 C                     0.058069
     49 C                    -0.434590
     50 C                     0.402982
     51 C                    -0.759497
     52 C                    -0.757543
     53 O                    -0.454670
     54 C                    -0.405423
     55 H                     0.235268
     56 H                     0.235775
     57 H                     0.236152
     58 H                     0.234310
     59 H                     0.221844
     60 H                     0.226285
     61 H                     0.220120
     62 H                     0.220068
     63 H                     0.226309
     64 H                     0.222010
     65 H                     0.226452
     66 H                     0.222207
     67 H                     0.220334
     68 H                     0.222526
     69 H                     0.226447
     70 H                     0.220154
     71 H                     0.220307
     72 H                     0.220634
     73 H                     0.230897
     74 H                     0.243494
     75 H                     0.244365
     76 H                     0.236703
     77 H                     0.245740
     78 H                     0.245722
     79 H                     0.238524
     80 H                     0.202359
     81 H                     0.202948
     82 H                     0.220437
     83 H                     0.220608
     84 H                     0.243836
     85 H                     0.236361
     86 H                     0.244442
     87 H                     0.245296
     88 H                     0.246326
     89 H                     0.231124
     90 H                     0.238792
     91 H                     0.203055
     92 H                     0.202586
  ----------------------------------------
  Sum of atomic charges =    -0.000000

                    Cartesian Multipole Moments
 -----------------------------------------------------------------
    Charge (ESU x 10^10)
                -0.0000
    Dipole Moment (Debye)
         X      -0.5160      Y      -0.3205      Z      -0.9342
       Tot       1.1143
    Quadrupole Moments (Debye-Ang)
        XX    -266.4050     XY      -3.9396     YY    -265.9261
        XZ     -20.7093     YZ     -11.5890     ZZ    -309.3250

 Total job time:  44788.69s(wall), 283690.49s(cpu)
        *  Thank you very much for using Q-Chem.  Have a nice day.  *
