 Q-Chem 5.1, Q-Chem, Inc., Pleasanton, CA (2018)
 Q-Chem 5.1.1 for Intel X86 EM64T Linux

User input:
--------------------------------------------------------------
$rem
threads 8
jobtype	opt
method PBEh-3c
basis def2-mSVP
mem_static	1024
mem_total	14000
sym_ignore	true
cis_n_roots             4
cis_singlets            false
cis_triplets		true
rpa                     false
cis_state_deriv         1
state_follow		true
$end

$molecule
read s1opt.mol
$end

--------------------------------------------------------------

   15   -2123.7892131452      7.17e-09  Convergence criterion met
 Total energy in the final basis set =    -2123.7892131452
   13   -2123.7935071180      5.10e-09  Convergence criterion met
 Total energy in the final basis set =    -2123.7935071180
   12   -2123.7943076698      6.72e-09  Convergence criterion met
 Total energy in the final basis set =    -2123.7943076698
   11   -2123.7944668275      5.79e-09  Convergence criterion met
 Total energy in the final basis set =    -2123.7944668275
   10   -2123.7946318383      4.95e-09  Convergence criterion met
 Total energy in the final basis set =    -2123.7946318383
    9   -2123.7946959790      7.09e-09  Convergence criterion met
 Total energy in the final basis set =    -2123.7946959790
    9   -2123.7946638109      8.02e-09  Convergence criterion met
 Total energy in the final basis set =    -2123.7946638109
    9   -2123.7946294942      5.34e-09  Convergence criterion met
 Total energy in the final basis set =    -2123.7946294942
    8   -2123.7946260685      8.71e-09  Convergence criterion met
 Total energy in the final basis set =    -2123.7946260685
    8   -2123.7946183305      7.44e-09  Convergence criterion met
 Total energy in the final basis set =    -2123.7946183305

             Standard Nuclear Orientation (Angstroms)
    I     Atom           X                Y                Z
 ----------------------------------------------------------------
    1      C      -0.0015322137    -0.3814318221     0.0591291583
    2      C       0.0056395245    -0.3481882052     1.4652474733
    3      H       0.9552933334    -0.3822067363     1.9878334976
    4      C      -1.1757955294    -0.2770149000     2.1648011037
    5      C      -2.4377886654    -0.2264708809     1.4433967689
    6      C      -2.4632417070    -0.2580296337     0.0685517191
    7      H      -3.4071115000    -0.2235796141    -0.4647625911
    8      C      -1.2720298685    -0.3396525004    -0.6560876838
    9      C      -3.5055677634    -0.1553878523     2.4069850509
   10      C      -4.8782954179    -0.0874293313     2.3247956742
   11      H      -5.3920374540    -0.0726479118     1.3719521243
   12      C      -2.8944629975    -0.1692172626     3.6797972396
   13      C      -3.6029960246    -0.1216764874     4.8752458786
   14      C      -1.4870719293    -0.2415204441     3.5814435938
   15      C      -0.7564472467    -0.2673300866     4.7448418150
   16      H       0.3242398486    -0.3241229533     4.7376081530
   17      C      -1.4489877823    -0.2201235638     5.9731327387
   18      H      -0.8735475715    -0.2415469917     6.8891838710
   19      C      -2.8224396290    -0.1492381548     6.0545520134
   20      H      -3.3038567987    -0.1157935644     7.0238889160
   21      C      -5.6159133309    -0.0370521832     3.5226279398
   22      H      -6.6953847647     0.0160382619     3.4654010245
   23      C      -5.0136393133    -0.0534369202     4.7628918526
   24      H      -5.6251615514    -0.0138773470     5.6557221610
   25      B       1.3211967089    -0.4692336242    -0.7196345259
   26      C       1.2791478540    -0.5148290123    -2.2554379785
   27      C       2.4766076335    -0.5914788033    -2.9911482302
   28      H       3.4211954205    -0.6160482443    -2.4592511313
   29      C       2.4460294657    -0.6351857762    -4.3643836202
   30      C       1.1715069385    -0.6018878810    -5.0545770338
   31      C      -0.0074784623    -0.5306017662    -4.3539525459
   32      H      -0.9564824932    -0.5106791019    -4.8786163996
   33      C       0.0071144735    -0.4829432467    -2.9569645636
   34      C       1.4232440212    -0.6567125304    -6.4751147078
   35      C       0.6302651630    -0.6557012088    -7.5997097216
   36      H      -0.4492762825    -0.6041101432    -7.5359218622
   37      C       2.8240670215    -0.7241894042    -6.6268140298
   38      C       3.4632084179    -0.7928884425    -7.8614969087
   39      C       3.4857377437    -0.7149968088    -5.3795765680
   40      C       4.8580995091    -0.7799141360    -5.3764177673
   41      H       5.4265834302    -0.7790632480    -4.4555558486
   42      C       1.2557222427    -0.7235317484    -8.8606501442
   43      H       0.6357816360    -0.7225253327    -9.7478525975
   44      C       2.6245155058    -0.7909182767    -9.0029364557
   45      H       3.0599996191    -0.8418148801    -9.9932881274
   46      C       5.5333916134    -0.8501752652    -6.6142991929
   47      H       6.6142445960    -0.9011325167    -6.6084731124
   48      C       4.8753175547    -0.8573331191    -7.8238398094
   49      H       5.4403607575    -0.9132125833    -8.7460684790
   50      B      -1.3196895004    -0.3941059173    -2.1899034163
   51      C       2.6979963099    -0.5181297266     0.0366513433
   52      C       3.2695041120    -1.7470373075     0.3986004687
   53      C       4.4806781805    -1.7856223159     1.0678600171
   54      H       4.9231476173    -2.7336350598     1.3501823254
   55      C       5.1498988360    -0.6080580921     1.3898669962
   56      O       6.3228039330    -0.7530327300     2.0435839514
   57      C       4.5951835903     0.6137690339     1.0326677487
   58      H       5.0919458263     1.5464628040     1.2674408849
   59      C       3.3758148020     0.6572251371     0.3586900067
   60      C       7.0410509108     0.3996457503     2.3888054962
   61      H       7.9446096903     0.0643970131     2.8941111435
   62      H       7.3318096216     0.9878812376     1.5120063011
   63      H       6.4832492348     1.0493972623     3.0715126746
   64      C       2.7851028888     1.9847827529    -0.0287208329
   65      H       3.4162922499     2.8182908392     0.2788521425
   66      H       2.6472454461     2.0564862477    -1.1098466229
   67      H       1.8020523875     2.1306779290     0.4241683448
   68      C       2.5594372181    -3.0269161750     0.0537558228
   69      H       3.1077944145    -3.9024251377     0.4003058569
   70      H       2.4237617985    -3.1279362126    -1.0253639872
   71      H       1.5633149270    -3.0628026756     0.5004389808
   72      C      -2.6898971728    -0.3684315856    -2.9706556687
   73      C      -3.3552118781    -1.5558915251    -3.2820800438
   74      C      -4.5496653846    -1.5394394095    -4.0006786703
   75      H      -5.0339030539    -2.4820540662    -4.2222945610
   76      C      -5.0959404929    -0.3346393519    -4.4197022766
   77      O      -6.2454118653    -0.2186360106    -5.1193362335
   78      C      -4.4400708814     0.8544596686    -4.1153963898
   79      H      -4.8727327715     1.7905977299    -4.4479351007
   80      C      -3.2536787834     0.8431449014    -3.4015976069
   81      C      -6.9515950437    -1.3854248951    -5.4437980574
   82      H      -7.8355955729    -1.0714702336    -5.9953092740
   83      H      -6.3700682212    -2.0625898592    -6.0784062326
   84      H      -7.2753665988    -1.9377292371    -4.5551943482
   85      C      -2.5576705978     2.1390913802    -3.0955432411
   86      H      -3.1230357061     2.9979830491    -3.4560217268
   87      H      -1.5692626536     2.1761566486    -3.5587995383
   88      H      -2.4086479264     2.2673971874    -2.0215684983
   89      C      -2.7771281468    -2.8761110395    -2.8525226631
   90      H      -3.4188146000    -3.7112864629    -3.1333155000
   91      H      -1.7983999387    -3.0467299494    -3.3059109479
   92      H      -2.6369092096    -2.9175455803    -1.7706536688
 ----------------------------------------------------------------

    8   -2123.7946141833      7.93e-09  Convergence criterion met
 Total energy in the final basis set =    -2123.7946141833

         TDDFT/TDA Excitation Energies
 ---------------------------------------------------

 Excited state   1: excitation energy (eV) =    1.9884
 Total energy for state  1:                 -2123.72154097 au
    Multiplicity: Triplet
    Trans. Mom.:  0.0000 X   0.0000 Y   0.0000 Z
    Strength   :     0.0000000000
    D(175) --> V(  2) amplitude =  0.2564
    D(181) --> V(  1) amplitude =  0.9199

 Excited state   2: excitation energy (eV) =    2.3760
 Total energy for state  2:                 -2123.70729779 au
    Multiplicity: Triplet
    Trans. Mom.:  0.0000 X   0.0000 Y   0.0000 Z
    Strength   :     0.0000000000
    D(178) --> V(  2) amplitude =  0.4811
    D(179) --> V(  1) amplitude =  0.7947

 Excited state   3: excitation energy (eV) =    2.4301
 Total energy for state  3:                 -2123.70530935 au
    Multiplicity: Triplet
    Trans. Mom.:  0.0000 X   0.0000 Y   0.0000 Z
    Strength   :     0.0000000000
    D(175) --> V(  1) amplitude =  0.2185
    D(178) --> V(  1) amplitude =  0.6946
    D(178) --> V(  4) amplitude = -0.2128
    D(179) --> V(  2) amplitude =  0.4903
    D(181) --> V(  2) amplitude =  0.2746

 Excited state   4: excitation energy (eV) =    2.5035
 Total energy for state  4:                 -2123.70261331 au
    Multiplicity: Triplet
    Trans. Mom.:  0.0000 X   0.0000 Y   0.0000 Z
    Strength   :     0.0000000000
    D(175) --> V(  1) amplitude = -0.6892
    D(178) --> V(  1) amplitude =  0.2182
    D(179) --> V(  2) amplitude =  0.2742
    D(181) --> V(  2) amplitude = -0.5155

 ---------------------------------------------------

 Final energy is   -2123.72154097136
 **  OPTIMIZATION CONVERGED  **

                    Orbital Energies (a.u.)
 --------------------------------------------------------------

 Alpha MOs
 -- Occupied --
-19.522 -19.521 -10.498 -10.497 -10.488 -10.487 -10.464 -10.464
-10.464 -10.463 -10.463 -10.463 -10.462 -10.462 -10.462 -10.461
-10.461 -10.461 -10.460 -10.460 -10.460 -10.459 -10.458 -10.458
-10.458 -10.458 -10.457 -10.457 -10.450 -10.450 -10.449 -10.448
-10.448 -10.448 -10.448 -10.447 -10.445 -10.445 -10.432 -10.431
-10.431 -10.430 -10.430 -10.430 -10.426 -10.425 -10.424 -10.424
-10.423 -10.422 -10.412 -10.410  -6.939  -6.938  -1.179  -1.179
 -1.012  -1.012  -0.957  -0.953  -0.950  -0.948  -0.932  -0.932
 -0.902  -0.894  -0.868  -0.868  -0.859  -0.854  -0.850  -0.847
 -0.846  -0.845  -0.814  -0.811  -0.810  -0.795  -0.788  -0.787
 -0.763  -0.762  -0.753  -0.752  -0.731  -0.729  -0.727  -0.716
 -0.687  -0.683  -0.676  -0.665  -0.657  -0.647  -0.641  -0.640
 -0.640  -0.639  -0.596  -0.592  -0.588  -0.588  -0.582  -0.581
 -0.581  -0.574  -0.573  -0.556  -0.556  -0.540  -0.540  -0.533
 -0.533  -0.532  -0.525  -0.521  -0.512  -0.506  -0.500  -0.497
 -0.490  -0.490  -0.488  -0.487  -0.482  -0.481  -0.480  -0.480
 -0.478  -0.473  -0.471  -0.469  -0.468  -0.463  -0.462  -0.461
 -0.459  -0.454  -0.454  -0.453  -0.442  -0.439  -0.438  -0.437
 -0.430  -0.425  -0.423  -0.419  -0.418  -0.416  -0.416  -0.406
 -0.398  -0.398  -0.397  -0.394  -0.393  -0.393  -0.389  -0.387
 -0.373  -0.372  -0.371  -0.362  -0.360  -0.358  -0.351  -0.345
 -0.338  -0.334  -0.319  -0.313  -0.294  -0.293  -0.273  -0.272
 -0.272  -0.260  -0.253  -0.246  -0.246  -0.244

          Ground-State Mulliken Net Atomic Charges

     Atom                 Charge (a.u.)
  ----------------------------------------
      1 C                    -0.155396
      2 C                    -0.389628
      3 H                     0.235088
      4 C                     0.103296
      5 C                     0.079049
      6 C                    -0.381832
      7 H                     0.234154
      8 C                    -0.152419
      9 C                     0.198060
     10 C                    -0.368590
     11 H                     0.222186
     12 C                    -0.071315
     13 C                     0.252177
     14 C                     0.202116
     15 C                    -0.378961
     16 H                     0.222205
     17 C                    -0.203574
     18 H                     0.226256
     19 C                    -0.335630
     20 H                     0.220415
     21 C                    -0.205888
     22 H                     0.226632
     23 C                    -0.331799
     24 H                     0.220085
     25 B                     0.687267
     26 C                    -0.155688
     27 C                    -0.391496
     28 H                     0.235910
     29 C                     0.106014
     30 C                     0.078845
     31 C                    -0.380756
     32 H                     0.236152
     33 C                    -0.151313
     34 C                     0.198710
     35 C                    -0.370482
     36 H                     0.222164
     37 C                    -0.070179
     38 C                     0.250365
     39 C                     0.202530
     40 C                    -0.381159
     41 H                     0.221961
     42 C                    -0.205983
     43 H                     0.226488
     44 C                    -0.330892
     45 H                     0.219849
     46 C                    -0.203311
     47 H                     0.226047
     48 C                    -0.335493
     49 H                     0.220314
     50 B                     0.686467
     51 C                    -0.220780
     52 C                     0.063008
     53 C                    -0.382202
     54 H                     0.220032
     55 C                     0.401985
     56 O                    -0.454493
     57 C                    -0.433443
     58 H                     0.220473
     59 C                     0.063749
     60 C                    -0.405373
     61 H                     0.238452
     62 H                     0.202856
     63 H                     0.202880
     64 C                    -0.759411
     65 H                     0.231074
     66 H                     0.245609
     67 H                     0.245951
     68 C                    -0.760301
     69 H                     0.236264
     70 H                     0.244725
     71 H                     0.244196
     72 C                    -0.224897
     73 C                     0.062119
     74 C                    -0.432522
     75 H                     0.220770
     76 C                     0.402554
     77 O                    -0.454779
     78 C                    -0.379819
     79 H                     0.220355
     80 C                     0.062504
     81 C                    -0.405466
     82 H                     0.238726
     83 H                     0.202897
     84 H                     0.203350
     85 C                    -0.758395
     86 H                     0.236213
     87 H                     0.244161
     88 H                     0.243742
     89 C                    -0.758128
     90 H                     0.231134
     91 H                     0.245225
     92 H                     0.245986
  ----------------------------------------
  Sum of atomic charges =    -0.000000

                    Cartesian Multipole Moments
 -----------------------------------------------------------------
    Charge (ESU x 10^10)
                -0.0000
    Dipole Moment (Debye)
         X      -0.1322      Y      -0.0494      Z      -0.0111
       Tot       0.1415
    Quadrupole Moments (Debye-Ang)
        XX    -264.8752     XY      15.6491     YY    -311.6166
        XZ      -2.6815     YZ      11.3491     ZZ    -262.8213

 Total job time:  22874.23s(wall), 160579.25s(cpu)
        *  Thank you very much for using Q-Chem.  Have a nice day.  *
