 Q-Chem 5.1, Q-Chem, Inc., Pleasanton, CA (2018)
 Q-Chem 5.1.1 for Intel X86 EM64T Linux

User input:
--------------------------------------------------------------
$rem
threads 8
jobtype	opt
method PBEh-3c
basis def2-mSVP
mem_static	512
mem_total	6096
sym_ignore	true
$end

$molecule
read incoords.mol
$end

--------------------------------------------------------------

   14   -3629.2546698583      8.13e-09  Convergence criterion met
 Total energy in the final basis set =    -3629.2546698583
   12   -3629.2561222642      6.81e-09  Convergence criterion met
 Total energy in the final basis set =    -3629.2561222642
   11   -3629.2564492295      9.83e-09  Convergence criterion met
 Total energy in the final basis set =    -3629.2564492295
   12   -3629.2551330729      6.13e-09  Convergence criterion met
 Total energy in the final basis set =    -3629.2551330729
   12   -3629.2540653477      6.07e-09  Convergence criterion met
 Total energy in the final basis set =    -3629.2540653477
   12   -3629.2566442757      7.40e-09  Convergence criterion met
 Total energy in the final basis set =    -3629.2566442757
   11   -3629.2565727850      7.72e-09  Convergence criterion met
 Total energy in the final basis set =    -3629.2565727850
   11   -3629.2561936615      7.38e-09  Convergence criterion met
    9   -3629.2568354108      6.63e-09  Convergence criterion met
 Total energy in the final basis set =    -3629.2568354108
    9   -3629.2569048702      7.82e-09  Convergence criterion met
 Total energy in the final basis set =    -3629.2569048702
    9   -3629.2569550001      6.72e-09  Convergence criterion met
 Total energy in the final basis set =    -3629.2569550001
    9   -3629.2569500245      6.16e-09  Convergence criterion met
 Total energy in the final basis set =    -3629.2569500245
    9   -3629.2569369727      5.41e-09  Convergence criterion met
 Total energy in the final basis set =    -3629.2569369727
    9   -3629.2568963948      6.00e-09  Convergence criterion met
 Total energy in the final basis set =    -3629.2568963948

             Standard Nuclear Orientation (Angstroms)
    I     Atom           X                Y                Z
 ----------------------------------------------------------------
    1      N       0.1413079656     0.1670435366     0.2031382959
    2      C       0.0007967418     0.1029449869     1.5854199569
    3      C       1.3287498448    -0.1865333023    -0.4289598922
    4      C       2.4164279602    -0.6621929282     0.3076629447
    5      C       3.5747943428    -1.0056705606    -0.3835501309
    6      H       4.4225786554    -1.3868800143     0.1720624481
    7      C       3.6848275528    -0.8921076658    -1.7572165023
    8      H       4.6021166103    -1.1710410339    -2.2575005558
    9      C       2.5985030660    -0.4184765829    -2.4750536483
   10      H       2.6532254783    -0.3139145006    -3.5512828631
   11      C       1.4335253864    -0.0714897292    -1.8213727301
   12      H       0.5959757932     0.2951826364    -2.3979170752
   13      C       1.0411591627    -0.3715824337     2.3886142920
   14      C       0.8327270998    -0.4262731000     3.7632322289
   15      H       1.6240553637    -0.8049869260     4.3982124685
   16      C      -0.3523841429    -0.0267054408     4.3534808933
   17      H      -0.4763142566    -0.0875511185     5.4259954616
   18      C      -1.3714936904     0.4506360559     3.5452657132
   19      H      -2.3081941676     0.7791063793     3.9775654711
   20      C      -1.1992940238     0.5154357016     2.1776516713
   21      H      -2.0033778417     0.8928189989     1.5614715951
   22      C      -1.0122469659     0.3967251028    -0.5954752113
   23      C      -1.3235774474     1.6693577083    -1.0439891181
   24      H      -0.6797831791     2.4986562392    -0.7732464847
   25      C      -1.8235891243    -0.6721861227    -0.9364788782
   26      H      -1.5667673829    -1.6638972846    -0.5804018711
   27      C      -2.4405118846     1.8786941364    -1.8452273300
   28      C      -2.9487626908    -0.4854505536    -1.7301352788
   29      C      -3.2620029841     0.7983281987    -2.1932867544
   30      C      -3.8267356348    -1.6712724019    -2.0423074617
   31      H      -3.1997454050    -2.5403057107    -2.2586837569
   32      H      -4.4053179435    -1.4919451752    -2.9525077228
   33      C      -2.7060807347     3.2576195690    -2.3906985913
   34      H      -3.7770801767     3.4022996598    -2.5604011472
   35      H      -2.4221482532     4.0070954109    -1.6478407472
   36      C       2.3599555579    -0.8574786696     1.8120010498
   37      C      -4.7816706520    -2.0152783850    -0.9006866615
   38      H      -5.3764967687    -2.8962838056    -1.1432216863
   39      H      -5.4745370384    -1.1974286133    -0.7026359322
   40      H      -4.2375337877    -2.2241284469     0.0210814685
   41      C      -1.9446859050     3.5162204696    -3.6893937045
   42      H      -2.2350316965     2.8085142167    -4.4657603546
   43      H      -2.1420757460     4.5207550684    -4.0645351236
   44      H      -0.8688940152     3.4201389922    -3.5386966223
   45      C       2.5058443038    -2.3590725067     2.1135383091
   46      H       1.6945610704    -2.9255956947     1.6558486304
   47      H       2.4850143182    -2.5521902588     3.1869462618
   48      H       3.4475835944    -2.7516863053     1.7271729984
   49      C       3.5123873313    -0.0771729253     2.4631597472
   50      H       3.4217795925     0.9884505555     2.2543791433
   51      H       3.5227762514    -0.2092944124     3.5451068280
   52      H       4.4810930008    -0.4114648130     2.0912701116
   53      B      -4.5140596270     1.0422915231    -3.1108558621
   54      C      -4.4272426684     0.8303260617    -4.6455876093
   55      C      -3.3132591623     0.2551397654    -5.2246608988
   56      H      -2.4889811615    -0.0035733326    -4.5744506577
   57      C      -3.2180385105    -0.0164652354    -6.6000802601
   58      C      -4.2883348889     0.3639009414    -7.4293183830
   59      C      -5.3985940045     0.9864612809    -6.8393990481
   60      H      -6.2253117838     1.3003071124    -7.4614186917
   61      C      -5.5090456787     1.2035866224    -5.4819386950
   62      C      -2.0602385454    -0.6855131999    -7.1712876908
   63      C      -2.0080696418    -0.9269114211    -8.5550449733
   64      C      -0.8761392431    -1.5802564460    -9.0672871754
   65      H      -0.7970036611    -1.7832033170   -10.1253347499
   66      C       0.1519491131    -1.9885345238    -8.2567714191
   67      H       1.0054401553    -2.4946149288    -8.6921629770
   68      C       0.1063317971    -1.7662335952    -6.8758673269
   69      C      -0.9948264082    -1.1183576046    -6.3653374977
   70      H      -1.0281403619    -0.9552075359    -5.2971125086
   71      C      -4.2435781714     0.0968022999    -8.8584524622
   72      C      -5.3162981478     0.4334714951    -9.7017813972
   73      H      -6.2024884484     0.8965262452    -9.2901726000
   74      C      -5.3055123528     0.1825196536   -11.0548600803
   75      C      -4.1679208489    -0.4271327277   -11.5959036445
   76      H      -4.1251236823    -0.6382410339   -12.6578969621
   77      C      -3.1081389702    -0.7710472675   -10.7961144993
   78      H      -2.2578567429    -1.2461623673   -11.2631611551
   79      C      -3.1146717216    -0.5289259630    -9.4126990887
   80      C      -6.4667980194     0.5452792392   -11.9310857933
   81      H      -7.3244747414     0.8847494518   -11.3514722910
   82      H      -6.2030408929     1.3445495217   -12.6268989873
   83      H      -6.7924420880    -0.3052889780   -12.5313997918
   84      C       1.2248421708    -2.2290775907    -5.9920188697
   85      H       1.0408069335    -1.9889542429    -4.9453352216
   86      H       2.1716168459    -1.7667287082    -6.2768839857
   87      H       1.3622382600    -3.3093282146    -6.0616326073
   88      C      -5.8659563570     1.4975223263    -2.5013221146
   89      C      -6.0604019211     1.5045696414    -1.1351816586
   90      H      -5.2210792545     1.2320077407    -0.5106141801
   91      C      -7.2889605959     1.8381765658    -0.5395925895
   92      C      -8.3328026369     2.2818403851    -1.3692681896
   93      C      -8.1245679341     2.2837446360    -2.7576795500
   94      H      -8.9227943106     2.5924388660    -3.4181316209
   95      C      -6.9432031250     1.8771560445    -3.3413313828
   96      C      -9.5970032003     2.7065551388    -0.7911236157
   97      C     -10.6367957092     3.2046231159    -1.5935195702
   98      H     -10.5028247980     3.2812097818    -2.6637538143
   99      C     -11.8438174321     3.6148959528    -1.0758851804
  100      C     -12.0191452974     3.5368142232     0.3104264006
  101      H     -12.9537668786     3.8599075112     0.7532772380
  102      C     -11.0192950442     3.0579323158     1.1186981551
  103      H     -11.2020611442     3.0249894631     2.1828859253
  104      C      -9.7894993789     2.6249144865     0.5976988150
  105      C      -7.5066621237     1.7051077697     0.8903170824
  106      C      -8.7381555499     2.0888986061     1.4476058559
  107      C      -8.9183046426     1.9137428161     2.8283993268
  108      H      -9.8536572628     2.1883114326     3.2941588199
  109      C      -7.9366353678     1.3789702846     3.6236118939
  110      H      -8.1197169804     1.2534824502     4.6840995555
  111      C      -6.7109161922     0.9804794984     3.0778423567
  112      C      -6.5234532135     1.1535796758     1.7261948620
  113      H      -5.5820054027     0.8280259977     1.3055626354
  114      C     -12.9441409054     4.1185297477    -1.9619361739
  115      H     -12.6027482557     4.2602184616    -2.9871618472
  116      H     -13.3361060545     5.0737963615    -1.6105232064
  117      H     -13.7804037847     3.4169401920    -1.9869227899
  118      C      -5.6451150292     0.3782696042     3.9426440896
  119      H      -4.7933574841     0.0400371796     3.3529933340
  120      H      -5.2761379596     1.0982773084     4.6755676582
  121      H      -6.0224236517    -0.4818539168     4.4973774193
  122      B      -6.8119404132     1.7965587226    -4.8829688218
  123      C      -7.9852117615     2.2495592052    -5.8277174903
  124      C      -8.8688602341     1.3005499691    -6.3588050105
  125      C      -9.8570208649     1.7019870270    -7.2484994534
  126      H     -10.5307993989     0.9715544476    -7.6835495826
  127      C     -10.0014078034     3.0345014834    -7.5894447455
  128      C      -9.1554301743     3.9826931204    -7.0412807249
  129      H      -9.2779874912     5.0242589203    -7.3168512230
  130      C      -8.1388376200     3.5990379402    -6.1747554980
  131      N     -10.9988563205     3.4135438982    -8.5266427817
  132      C     -12.3160679302     3.5442942360    -8.1037293603
  133      C     -10.6452655411     3.5255898653    -9.8667635265
  134      C     -11.6132239013     3.7894983744   -10.8410329533
  135      C     -11.2022163094     3.9031307976   -12.1653606482
  136      H     -11.9442811037     4.1057558240   -12.9278045705
  137      C      -9.8824499656     3.7639959243   -12.5512654451
  138      H      -9.6018256678     3.8634034012   -13.5909347861
  139      C      -8.9341595793     3.4935505643   -11.5791359450
  140      H      -7.8915852032     3.3789161984   -11.8463300074
  141      C      -9.3082586783     3.3691134908   -10.2556818015
  142      H      -8.5496399227     3.1545257380    -9.5168841216
  143      C     -13.3407302554     3.7965422003    -9.0220550898
  144      C     -14.6410779845     3.9133818737    -8.5420516115
  145      H     -15.4422925022     4.1042165667    -9.2457394535
  146      C     -14.9550999190     3.7901031610    -7.2014552373
  147      H     -15.9795695657     3.8839255978    -6.8680313319
  148      C     -13.9315428961     3.5440668131    -6.3012878533
  149      H     -14.1428554107     3.4418165218    -5.2444220221
  150      C     -12.6292062127     3.4245245079    -6.7437354140
  151      H     -11.8458990315     3.2320859006    -6.0246011417
  152      C      -8.8143932619    -0.1506731816    -5.9555723130
  153      H      -8.9362508184    -0.7820903664    -6.8399032611
  154      H      -7.8334143973    -0.4040875723    -5.5461403863
  155      C      -7.1641320539     4.6398939890    -5.6934461272
  156      H      -6.7540266336     4.3603213598    -4.7191842194
  157      H      -7.6865823374     5.5867943484    -5.5357570469
  158      C     -13.0905259822     3.9345839601   -10.5152260671
  159      C      -9.8943279862    -0.4972999360    -4.9326091810
  160      H      -9.7813422473     0.0945828254    -4.0237969961
  161      H      -9.8438782658    -1.5495977960    -4.6520998635
  162      H     -10.8915426281    -0.3056979415    -5.3306197584
  163      C      -6.0263949571     4.8481290172    -6.6913999487
  164      H      -5.4624713495     3.9277948806    -6.8454705798
  165      H      -6.4116652427     5.1656035279    -7.6611026922
  166      H      -5.3296432168     5.6105427428    -6.3419115744
  167      C     -13.8734967764     2.8357764410   -11.2559168044
  168      H     -13.5471560939     1.8457188435   -10.9382391284
  169      H     -13.7313939783     2.9055316207   -12.3350270609
  170      H     -14.9443517790     2.9137532288   -11.0645150574
  171      C     -13.5791826045     5.3160137797   -10.9825684197
  172      H     -14.6424542077     5.4497219382   -10.7820430012
  173      H     -13.4364940841     5.4464066424   -12.0556688499
  174      H     -13.0383184780     6.1126133640   -10.4726631898
 ----------------------------------------------------------------

    8   -3629.2568967750      6.20e-09  Convergence criterion met
 Total energy in the final basis set =    -3629.2568967750
 Final energy is   -3629.25689677500
 **  OPTIMIZATION CONVERGED  **

                    Orbital Energies (a.u.)
 --------------------------------------------------------------

 Alpha MOs
 -- Occupied --
-14.674 -14.672 -10.491 -10.490 -10.489 -10.489 -10.485 -10.485
-10.471 -10.471 -10.471 -10.470 -10.467 -10.467 -10.467 -10.467
-10.467 -10.467 -10.466 -10.466 -10.466 -10.466 -10.463 -10.463
-10.462 -10.461 -10.458 -10.458 -10.458 -10.458 -10.457 -10.456
-10.456 -10.455 -10.454 -10.454 -10.453 -10.453 -10.452 -10.452
-10.451 -10.451 -10.451 -10.451 -10.450 -10.450 -10.448 -10.448
-10.448 -10.447 -10.445 -10.445 -10.445 -10.445 -10.442 -10.442
-10.442 -10.442 -10.441 -10.441 -10.441 -10.441 -10.441 -10.441
-10.440 -10.440 -10.440 -10.440 -10.438 -10.438 -10.438 -10.437
-10.437 -10.437 -10.435 -10.435 -10.435 -10.434 -10.434 -10.434
-10.434 -10.434 -10.434 -10.433 -10.426 -10.425 -10.425 -10.424
-10.424 -10.424 -10.423 -10.423  -6.954  -6.954  -1.087  -1.086
 -1.004  -1.003  -0.973  -0.972  -0.965  -0.964  -0.961  -0.958
 -0.956  -0.956  -0.951  -0.950  -0.909  -0.907  -0.906  -0.905
 -0.897  -0.896  -0.884  -0.881  -0.879  -0.874  -0.870  -0.869
 -0.855  -0.853  -0.848  -0.847  -0.833  -0.833  -0.831  -0.827
 -0.823  -0.821  -0.821  -0.813  -0.813  -0.811  -0.808  -0.807
 -0.800  -0.798  -0.790  -0.789  -0.767  -0.767  -0.759  -0.757
 -0.735  -0.727  -0.722  -0.721  -0.720  -0.720  -0.715  -0.711
 -0.709  -0.706  -0.706  -0.705  -0.692  -0.688  -0.687  -0.684
 -0.673  -0.670  -0.668  -0.668  -0.667  -0.664  -0.641  -0.641
 -0.638  -0.637  -0.626  -0.617  -0.616  -0.614  -0.614  -0.613
 -0.613  -0.610  -0.588  -0.587  -0.584  -0.574  -0.570  -0.567
 -0.563  -0.562  -0.556  -0.547  -0.544  -0.543  -0.537  -0.535
 -0.534  -0.533  -0.531  -0.530  -0.529  -0.522  -0.522  -0.520
 -0.520  -0.518  -0.513  -0.511  -0.507  -0.506  -0.505  -0.503
 -0.501  -0.499  -0.497  -0.497  -0.493  -0.493  -0.493  -0.491
 -0.490  -0.489  -0.489  -0.488  -0.486  -0.485  -0.483  -0.481
 -0.480  -0.479  -0.477  -0.477  -0.477  -0.476  -0.474  -0.474
 -0.473  -0.473  -0.471  -0.468  -0.467  -0.460  -0.457  -0.454
 -0.452  -0.450  -0.449  -0.449  -0.448  -0.445  -0.444  -0.442
 -0.442  -0.440  -0.437  -0.436  -0.435  -0.431  -0.431  -0.430
 -0.427  -0.425  -0.425  -0.424  -0.422  -0.421  -0.420  -0.419
 -0.415  -0.414  -0.413  -0.413  -0.412  -0.412  -0.411  -0.408
 -0.406  -0.406  -0.405  -0.400  -0.399  -0.398  -0.396  -0.395
 -0.392  -0.392  -0.389  -0.388  -0.387  -0.383  -0.378  -0.377
 -0.372  -0.370  -0.370  -0.369  -0.366  -0.365  -0.363  -0.359
 -0.354  -0.349  -0.343  -0.334  -0.332  -0.330  -0.325  -0.323
 -0.297  -0.297  -0.288  -0.286  -0.286  -0.285  -0.282  -0.281
 -0.280  -0.280  -0.279  -0.277  -0.270  -0.256  -0.255  -0.252
 -0.220  -0.219

          Ground-State Mulliken Net Atomic Charges

     Atom                 Charge (a.u.)
  ----------------------------------------
      1 N                    -0.719743
      2 C                     0.311833
      3 C                     0.311889
      4 C                     0.144692
      5 C                    -0.292031
      6 H                     0.206242
      7 C                    -0.226650
      8 H                     0.210304
      9 C                    -0.236420
     10 H                     0.215610
     11 C                    -0.305793
     12 H                     0.248688
     13 C                     0.144488
     14 C                    -0.292671
     15 H                     0.206225
     16 C                    -0.226141
     17 H                     0.210354
     18 C                    -0.236469
     19 H                     0.215463
     20 C                    -0.303932
     21 H                     0.246585
     22 C                     0.192100
     23 C                    -0.313400
     24 H                     0.226376
     25 C                    -0.280540
     26 H                     0.222542
     27 C                     0.065342
     28 C                     0.065287
     29 C                    -0.215497
     30 C                    -0.549510
     31 H                     0.235817
     32 H                     0.254530
     33 C                    -0.558813
     34 H                     0.257545
     35 H                     0.237351
     36 C                    -0.211808
     37 C                    -0.642981
     38 H                     0.224363
     39 H                     0.235454
     40 H                     0.218382
     41 C                    -0.645492
     42 H                     0.244999
     43 H                     0.220723
     44 H                     0.218509
     45 C                    -0.593855
     46 H                     0.230494
     47 H                     0.216013
     48 H                     0.216112
     49 C                    -0.601861
     50 H                     0.236460
     51 H                     0.216098
     52 H                     0.216007
     53 B                     0.651019
     54 C                    -0.108789
     55 C                    -0.425081
     56 H                     0.237317
     57 C                     0.113924
     58 C                     0.113827
     59 C                    -0.424866
     60 H                     0.238184
     61 C                    -0.105875
     62 C                     0.123793
     63 C                     0.083650
     64 C                    -0.305906
     65 H                     0.206737
     66 C                    -0.261524
     67 H                     0.215484
     68 C                     0.144597
     69 C                    -0.391639
     70 H                     0.211723
     71 C                     0.124072
     72 C                    -0.393148
     73 H                     0.212897
     74 C                     0.146684
     75 C                    -0.262660
     76 H                     0.215620
     77 C                    -0.305571
     78 H                     0.206314
     79 C                     0.081992
     80 C                    -0.720356
     81 H                     0.247115
     82 H                     0.231626
     83 H                     0.236212
     84 C                    -0.716800
     85 H                     0.241531
     86 H                     0.231902
     87 H                     0.237196
     88 C                    -0.110365
     89 C                    -0.425110
     90 H                     0.243590
     91 C                     0.114030
     92 C                     0.114045
     93 C                    -0.424697
     94 H                     0.236379
     95 C                    -0.108043
     96 C                     0.122780
     97 C                    -0.388737
     98 H                     0.210579
     99 C                     0.145830
    100 C                    -0.262420
    101 H                     0.215688
    102 C                    -0.305847
    103 H                     0.206934
    104 C                     0.084052
    105 C                     0.115941
    106 C                     0.085697
    107 C                    -0.306043
    108 H                     0.206842
    109 C                    -0.261385
    110 H                     0.215810
    111 C                     0.145098
    112 C                    -0.387615
    113 H                     0.209221
    114 C                    -0.714495
    115 H                     0.235560
    116 H                     0.235744
    117 H                     0.235994
    118 C                    -0.717146
    119 H                     0.237402
    120 H                     0.234422
    121 H                     0.236739
    122 B                     0.657216
    123 C                    -0.225941
    124 C                     0.061437
    125 C                    -0.284851
    126 H                     0.226101
    127 C                     0.193605
    128 C                    -0.305729
    129 H                     0.226415
    130 C                     0.066286
    131 N                    -0.721337
    132 C                     0.314784
    133 C                     0.314335
    134 C                     0.142256
    135 C                    -0.290264
    136 H                     0.206647
    137 C                    -0.228557
    138 H                     0.210565
    139 C                    -0.235088
    140 H                     0.218512
    141 C                    -0.311365
    142 H                     0.249320
    143 C                     0.141136
    144 C                    -0.290140
    145 H                     0.206412
    146 C                    -0.227449
    147 H                     0.210821
    148 C                    -0.232682
    149 H                     0.213913
    150 C                    -0.307064
    151 H                     0.244919
    152 C                    -0.550955
    153 H                     0.236088
    154 H                     0.258168
    155 C                    -0.553780
    156 H                     0.255080
    157 H                     0.235865
    158 C                    -0.211737
    159 C                    -0.639062
    160 H                     0.233507
    161 H                     0.222945
    162 H                     0.219082
    163 C                    -0.646634
    164 H                     0.242458
    165 H                     0.219448
    166 H                     0.221507
    167 C                    -0.595870
    168 H                     0.232720
    169 H                     0.215840
    170 H                     0.215831
    171 C                    -0.598034
    172 H                     0.215856
    173 H                     0.215581
    174 H                     0.234937
  ----------------------------------------
  Sum of atomic charges =    -0.000000

                    Cartesian Multipole Moments
 -----------------------------------------------------------------
    Charge (ESU x 10^10)
                -0.0000
    Dipole Moment (Debye)
         X      -0.6693      Y      -1.3001      Z       0.0623
       Tot       1.4636
    Quadrupole Moments (Debye-Ang)
        XX    -509.0946     XY     -14.0058     YY    -553.9396
        XZ     -14.2568     YZ       8.6328     ZZ    -498.0261

 Total job time:  58240.08s(wall), 426272.13s(cpu)
        *  Thank you very much for using Q-Chem.  Have a nice day.  *
