 Q-Chem 5.1, Q-Chem, Inc., Pleasanton, CA (2018)
 Q-Chem 5.1.1 for Intel X86 EM64T Linux

User input:
--------------------------------------------------------------
$rem
threads 8
jobtype	sp
method PBEh-3c
basis def2-mSVP
mem_static	1024
mem_total	10000
sym_ignore	true
cis_n_roots             6
cis_singlets            true
cis_triplets		true
rpa                     false
calc_soc 		true
cis_moments             true
cis_relaxed_density	true
$end

$molecule
read gsopt.mol
$end

--------------------------------------------------------------

             Standard Nuclear Orientation (Angstroms)
    I     Atom           X                Y                Z
 ----------------------------------------------------------------
    1      N       0.0000000000     0.0000000000     0.0000000000
    2      C       0.0000000000     0.0000000000     1.3896030000
    3      C       1.1819369796     0.0000000000    -0.7324814887
    4      C       2.4222931792    -0.0134467739    -0.0866279878
    5      C       3.5729925248    -0.0246531358    -0.8685792217
    6      H       4.5386222192    -0.0334280454    -0.3781500697
    7      C       3.5359907693    -0.0211186838    -2.2501302864
    8      H       4.4530337676    -0.0342522817    -2.8231962206
    9      C       2.3023263759     0.0016767547    -2.8786067178
   10      H       2.2367771746     0.0046700718    -3.9589718658
   11      C       1.1401582489     0.0186125322    -2.1329235899
   12      H       0.1902760642     0.0397022261    -2.6473662615
   13      C       1.2020387718    -0.0008925115     2.1051355522
   14      C       1.1410844011     0.0037688979     3.4948195929
   15      H       2.0664226098     0.0076755345     4.0580893573
   16      C      -0.0544286994     0.0093996600     4.1888812602
   17      H      -0.0598874069     0.0166099229     5.2702834463
   18      C      -1.2380339913     0.0064743376     3.4694545887
   19      H      -2.1917475298     0.0109809198     3.9817852800
   20      C      -1.2135655857    -0.0002299422     2.0890607090
   21      H      -2.1485874538    -0.0019545089     1.5473153755
   22      C      -1.2314453602     0.1270840269    -0.6959230475
   23      C      -1.7993610714     1.3781004247    -0.8544031774
   24      H      -1.3057387258     2.2393019573    -0.4168566970
   25      C      -1.8482866056    -0.9850187407    -1.2417832338
   26      H      -1.3930049855    -1.9604969353    -1.1114751447
   27      C      -2.9866557866     1.5340791434    -1.5580864240
   28      C      -3.0191557957    -0.8476516870    -1.9777959075
   29      C      -3.5980906294     0.4180814219    -2.1447751714
   30      C      -3.5957265883    -2.0604681972    -2.6573056236
   31      H      -3.4491848866    -2.9397509112    -2.0249854693
   32      H      -4.6776554352    -1.9560024353    -2.7758440936
   33      C      -3.6057003220     2.9067086767    -1.6235438940
   34      H      -4.3143049613     2.9747232098    -2.4526554594
   35      H      -2.8313554294     3.6487209013    -1.8365839762
   36      C       2.5624268957     0.0056087374     1.4265214610
   37      C      -4.3143763269     3.2733431862    -0.3211539262
   38      H      -4.7551821072     4.2685691346    -0.3826175800
   39      H      -5.1153571647     2.5685350786    -0.0959733961
   40      H      -3.6213508600     3.2669874032     0.5210077893
   41      C      -2.9485423349    -2.3017498113    -4.0198974033
   42      H      -3.1063927167    -1.4546491656    -4.6879292628
   43      H      -3.3630157983    -3.1874287198    -4.5022512024
   44      H      -1.8722801199    -2.4474043790    -3.9199465599
   45      C       3.3565526487    -1.2319497970     1.8774711204
   46      H       2.8406231627    -2.1490600004     1.5949221029
   47      H       3.4940057196    -1.2430336540     2.9589598913
   48      H       4.3497038889    -1.2529239455     1.4278963923
   49      C       3.3200247321     1.2800556119     1.8398917204
   50      H       2.7740816972     2.1722750152     1.5340779124
   51      H       3.4597548982     1.3259002670     2.9205485526
   52      H       4.3097408997     1.3195205154     1.3833377989
   53      B      -4.8986835956     0.5931981903    -3.0120224879
   54      C      -6.3056966481     0.3497772019    -2.4108309508
   55      C      -6.4545592702     0.0410491649    -1.0751241120
   56      H      -5.5529046270    -0.0764921293    -0.4904387979
   57      C      -7.7071812919    -0.0926989787    -0.4553662267
   58      C      -8.8602626078     0.1043550622    -1.2340699195
   59      C      -8.7025474890     0.3363019602    -2.6112784800
   60      H      -9.5765986622     0.4169638976    -3.2424408607
   61      C      -7.4683715294     0.4780967316    -3.2120300666
   62      C     -10.1694633400     0.0960219240    -0.6050502641
   63      C     -11.3274421995     0.4066700792    -1.3345407348
   64      H     -11.2510986445     0.6489620624    -2.3855907922
   65      C     -12.5775147255     0.4428538194    -0.7617690192
   66      C     -12.6790233798     0.1525736039     0.6036911615
   67      H     -13.6478573738     0.1756857170     1.0881777582
   68      C     -11.5624913614    -0.1465993686     1.3425218932
   69      H     -11.6910538065    -0.3448879059     2.3967310812
   70      C     -10.2824460153    -0.1803744851     0.7680061081
   71      C      -7.8241829248    -0.4073810264     0.9588906454
   72      C      -9.0939392711    -0.4648725874     1.5563525757
   73      C      -9.1655728634    -0.7856420194     2.9213866273
   74      H     -10.1238250249    -0.8540475864     3.4154076251
   75      C      -8.0400130007    -1.0258290514     3.6682179667
   76      H      -8.1397027753    -1.2692480121     4.7193285303
   77      C      -6.7682257198    -0.9628058989     3.0874593150
   78      C      -6.6897249786    -0.6617216710     1.7471774316
   79      H      -5.7050084586    -0.6289223444     1.3016759223
   80      C     -13.7944031878     0.7887512173    -1.5655151519
   81      H     -13.5343842768     1.0756173627    -2.5841794821
   82      H     -14.3416731687     1.6205469491    -1.1199649612
   83      H     -14.4833102548    -0.0560354292    -1.6244646823
   84      C      -5.5363926036    -1.2045454993     3.9081871466
   85      H      -4.6440472924    -1.2692127386     3.2858930157
   86      H      -5.6092992538    -2.1326041842     4.4765647415
   87      H      -5.3791149589    -0.3980857958     4.6272666423
   88      B      -7.3516536230     0.8146163312    -4.7218391818
   89      C      -5.9584682495     1.1924759085    -5.2911596113
   90      C      -5.8203224933     1.6756492176    -6.5774661057
   91      H      -6.7121542671     1.7417008361    -7.1852602804
   92      C      -4.5892773806     2.0922380850    -7.1118786714
   93      C      -3.4386750598     1.9609850698    -6.3139216582
   94      C      -3.5808929403     1.4294245182    -5.0233877612
   95      H      -2.7065629739     1.3061416784    -4.3995138656
   96      C      -4.7989129337     1.0706121336    -4.4851295524
   97      C      -4.4855693383     2.6608779434    -8.4461564742
   98      C      -5.6207864386     2.8471650027    -9.2515090799
   99      H      -6.5959161677     2.5651263366    -8.8794746324
  100      C      -5.5548619324     3.3954940027   -10.5116369389
  101      C      -4.2967835665     3.7709518345   -10.9960604831
  102      H      -4.2087731569     4.2044946251   -11.9852142946
  103      C      -3.1717722417     3.6043112466   -10.2297883201
  104      H      -2.2255659230     3.9180871368   -10.6459042052
  105      C      -3.2296068773     3.0545710431    -8.9394559080
  106      C      -2.1416200589     2.3863192623    -6.8164226193
  107      C      -2.0389816248     2.9142591273    -8.1140739003
  108      C      -0.7702975897     3.3148080905    -8.5640779236
  109      H      -0.6466998164     3.7220601843    -9.5569104801
  110      C       0.3438567788     3.2145129055    -7.7705547660
  111      H       1.3030189545     3.5417081656    -8.1541941179
  112      C       0.2537405646     2.7051222161    -6.4702012474
  113      C      -0.9836908488     2.3000427441    -6.0245673743
  114      H      -1.0463822397     1.9160636320    -5.0157041924
  115      C      -6.7836111619     3.5949028896   -11.3464367983
  116      H      -7.6831436244     3.2601142847   -10.8308463022
  117      H      -6.9228166666     4.6471594032   -11.5995042200
  118      H      -6.7164979298     3.0453764117   -12.2870814233
  119      C       1.4722919624     2.6090663522    -5.6019517277
  120      H       1.2236563351     2.3229691942    -4.5806144591
  121      H       2.0033709994     3.5607659498    -5.5560038788
  122      H       2.1763314616     1.8691724671    -5.9885279195
  123      C      -8.6172622825     0.7766283721    -5.6523704606
  124      C      -9.3419059002     1.9423954778    -5.9291294682
  125      C     -10.4450490866     1.8799313974    -6.7717149507
  126      H     -11.0075003908     2.7786685963    -7.0001005981
  127      C     -10.8376090675     0.6782153571    -7.3364327793
  128      C     -10.1290584916    -0.4785731381    -7.0580780658
  129      H     -10.4435919983    -1.4135775049    -7.5079054359
  130      C      -9.0176641517    -0.4385639568    -6.2234838366
  131      N     -11.9601946892     0.6535664389    -8.2084529374
  132      C     -13.2360694721     0.5725443859    -7.6606076264
  133      C     -11.7591746129     0.9150393066    -9.5596769032
  134      C     -12.8418356645     1.1486078364   -10.4112629287
  135      C     -12.5750105592     1.4110626448   -11.7519663314
  136      H     -13.4029576631     1.6055936302   -12.4223577576
  137      C     -11.2909192710     1.4465398109   -12.2636452452
  138      H     -11.1251841367     1.6556446247   -13.3116505840
  139      C     -10.2267152329     1.2125663348   -11.4078155319
  140      H      -9.2092019377     1.2292941684   -11.7773896399
  141      C     -10.4556208880     0.9519845057   -10.0719370566
  142      H      -9.6130648213     0.7728368731    -9.4189853841
  143      C     -14.3678421927     0.8035561328    -8.4469761042
  144      C     -15.6154522807     0.7233894367    -7.8361954349
  145      H     -16.5017624224     0.9137511862    -8.4286823613
  146      C     -15.7705453533     0.4212972189    -6.4955898614
  147      H     -16.7579020937     0.3713831722    -6.0574308085
  148      C     -14.6397225047     0.1852291455    -5.7306301467
  149      H     -14.7280164987    -0.0619522960    -4.6802547396
  150      C     -13.3867398670     0.2595357084    -6.3039831345
  151      H     -12.5147262072     0.0699929929    -5.6938083909
  152      C      -8.2143849559    -1.6946750972    -6.0080136421
  153      H      -8.8836535445    -2.5580960697    -5.9805528616
  154      H      -7.7230755204    -1.6718147718    -5.0308428253
  155      C      -8.9752898354     3.2647474059    -5.3034776731
  156      H      -9.0845736512     4.0601870738    -6.0454256508
  157      H      -7.9206941629     3.2741698039    -5.0151750168
  158      C     -14.2773935367     1.1708432350    -9.9182755266
  159      C      -7.1667284923    -1.8990045737    -7.1006570947
  160      H      -6.4575429098    -1.0718502807    -7.1283065835
  161      H      -6.6014267587    -2.8161619214    -6.9332027185
  162      H      -7.6340141318    -1.9680790303    -8.0835821263
  163      C      -9.8317583392     3.5978593940    -4.0832160294
  164      H      -9.6939985503     2.8638612361    -3.2892170711
  165      H      -9.5659208402     4.5737634203    -3.6760861698
  166      H     -10.8918792012     3.6207826525    -4.3381251431
  167      C     -15.1056382797     0.1702034854   -10.7390760910
  168      H     -14.7190153256    -0.8411525434   -10.6164626663
  169      H     -16.1515461378     0.1710867147   -10.4320743100
  170      H     -15.0845633143     0.4116451072   -11.8019524969
  171      C     -14.8343803499     2.5926329658   -10.1060816295
  172      H     -14.2546223570     3.3139017575    -9.5296616489
  173      H     -15.8725553428     2.6587583358    -9.7778255936
  174      H     -14.8007783552     2.8968100218   -11.1532891059
 ----------------------------------------------------------------

   14   -3629.2562342444      8.33e-09  Convergence criterion met
 Total energy in the final basis set =    -3629.2562342444

         TDDFT/TDA Excitation Energies
 ---------------------------------------------------

 Excited state   1: excitation energy (eV) =    2.6578
 Total energy for state  1:                 -3629.15856218 au
    Multiplicity: Triplet
    Trans. Mom.:  0.0000 X   0.0000 Y   0.0000 Z
    Strength   :     0.0000000000
    D(317) --> V(  3) amplitude = -0.2569
    D(319) --> V(  1) amplitude =  0.8480

 Excited state   2: excitation energy (eV) =    2.9586
 Total energy for state  2:                 -3629.14750651 au
    Multiplicity: Triplet
    Trans. Mom.:  0.0000 X   0.0000 Y   0.0000 Z
    Strength   :     0.0000000000
    D(312) --> V(  1) amplitude = -0.2957
    D(320) --> V(  1) amplitude =  0.8248

 Excited state   3: excitation energy (eV) =    2.9615
 Total energy for state  3:                 -3629.14740239 au
    Multiplicity: Triplet
    Trans. Mom.:  0.0000 X   0.0000 Y   0.0000 Z
    Strength   :     0.0000000000
    D(321) --> V(  1) amplitude =  0.9589
    D(322) --> V(  1) amplitude = -0.2574

 Excited state   4: excitation energy (eV) =    2.9630
 Total energy for state  4:                 -3629.14734683 au
    Multiplicity: Singlet
    Trans. Mom.: -0.0492 X   0.0059 Y  -0.0328 Z
    Strength   :     0.0002562125
    D(321) --> V(  1) amplitude =  0.9418
    D(322) --> V(  1) amplitude = -0.3226

 Excited state   5: excitation energy (eV) =    2.9631
 Total energy for state  5:                 -3629.14734243 au
    Multiplicity: Triplet
    Trans. Mom.:  0.0000 X   0.0000 Y   0.0000 Z
    Strength   :     0.0000000000
    D(321) --> V(  1) amplitude =  0.2556
    D(322) --> V(  1) amplitude =  0.9598

 Excited state   6: excitation energy (eV) =    2.9638
 Total energy for state  6:                 -3629.14731604 au
    Multiplicity: Singlet
    Trans. Mom.: -0.0197 X   0.0033 Y  -0.0076 Z
    Strength   :     0.0000333564
    D(321) --> V(  1) amplitude =  0.3223
    D(322) --> V(  1) amplitude =  0.9435

 Excited state   7: excitation energy (eV) =    3.0008
 Total energy for state  7:                 -3629.14595654 au
    Multiplicity: Triplet
    Trans. Mom.:  0.0000 X   0.0000 Y   0.0000 Z
    Strength   :     0.0000000000
    D(317) --> V(  1) amplitude =  0.6566
    D(318) --> V(  2) amplitude = -0.2448
    D(319) --> V(  3) amplitude = -0.4083
    D(320) --> V(  4) amplitude =  0.2560

 Excited state   8: excitation energy (eV) =    3.1168
 Total energy for state  8:                 -3629.14169386 au
    Multiplicity: Triplet
    Trans. Mom.:  0.0000 X   0.0000 Y   0.0000 Z
    Strength   :     0.0000000000
    D(307) --> V(  1) amplitude = -0.4248
    D(318) --> V(  1) amplitude =  0.7872
    D(320) --> V(  3) amplitude =  0.2608

 Excited state   9: excitation energy (eV) =    3.3108
 Total energy for state  9:                 -3629.13456486 au
    Multiplicity: Singlet
    Trans. Mom.:  0.0091 X  -0.0196 Y  -0.0601 Z
    Strength   :     0.0003310540
    D(319) --> V(  1) amplitude =  0.9484

 Excited state  10: excitation energy (eV) =    3.4086
 Total energy for state 10:                 -3629.13097206 au
    Multiplicity: Singlet
    Trans. Mom.:  1.3190 X   0.6291 Y  -1.7781 Z
    Strength   :     0.4423636953
    D(319) --> V(  2) amplitude = -0.2387
    D(320) --> V(  1) amplitude =  0.9092

 Excited state  11: excitation energy (eV) =    3.6107
 Total energy for state 11:                 -3629.12354228 au
    Multiplicity: Singlet
    Trans. Mom.: -0.1270 X   0.1301 Y   0.1705 Z
    Strength   :     0.0054968935
    D(318) --> V(  1) amplitude = -0.9012

 Excited state  12: excitation energy (eV) =    3.7718
 Total energy for state 12:                 -3629.11762466 au
    Multiplicity: Singlet
    Trans. Mom.:  0.0679 X   0.0107 Y  -0.0264 Z
    Strength   :     0.0005014186
    D(311) --> V(  1) amplitude = -0.4732
    D(312) --> V(  1) amplitude = -0.5189
    D(316) --> V(  1) amplitude = -0.5002

 ---------------------------------------------------

                    Orbital Energies (a.u.)
 --------------------------------------------------------------

 Alpha MOs
 -- Occupied --
-14.674 -14.672 -10.491 -10.490 -10.489 -10.489 -10.485 -10.485
-10.471 -10.471 -10.471 -10.470 -10.467 -10.467 -10.467 -10.467
-10.467 -10.467 -10.466 -10.466 -10.466 -10.466 -10.463 -10.463
-10.462 -10.461 -10.458 -10.458 -10.458 -10.458 -10.457 -10.456
-10.456 -10.455 -10.454 -10.454 -10.453 -10.453 -10.452 -10.452
-10.451 -10.451 -10.451 -10.451 -10.450 -10.450 -10.448 -10.448
-10.447 -10.447 -10.445 -10.445 -10.445 -10.445 -10.442 -10.442
-10.442 -10.441 -10.441 -10.441 -10.441 -10.441 -10.441 -10.441
-10.440 -10.440 -10.440 -10.440 -10.438 -10.438 -10.438 -10.437
-10.437 -10.437 -10.435 -10.435 -10.435 -10.434 -10.434 -10.434
-10.434 -10.434 -10.434 -10.433 -10.426 -10.425 -10.425 -10.424
-10.424 -10.424 -10.423 -10.423  -6.954  -6.954  -1.087  -1.086
 -1.004  -1.002  -0.973  -0.972  -0.965  -0.964  -0.961  -0.958
 -0.956  -0.956  -0.951  -0.950  -0.909  -0.907  -0.906  -0.905
 -0.897  -0.896  -0.884  -0.881  -0.879  -0.874  -0.870  -0.869
 -0.855  -0.853  -0.848  -0.847  -0.833  -0.833  -0.831  -0.827
 -0.823  -0.821  -0.821  -0.813  -0.813  -0.811  -0.808  -0.807
 -0.800  -0.798  -0.790  -0.789  -0.767  -0.767  -0.759  -0.757
 -0.735  -0.727  -0.722  -0.721  -0.720  -0.720  -0.715  -0.711
 -0.709  -0.706  -0.706  -0.705  -0.692  -0.688  -0.687  -0.684
 -0.673  -0.670  -0.668  -0.668  -0.667  -0.664  -0.641  -0.641
 -0.638  -0.637  -0.626  -0.617  -0.616  -0.614  -0.614  -0.613
 -0.612  -0.610  -0.588  -0.587  -0.584  -0.574  -0.570  -0.567
 -0.563  -0.562  -0.556  -0.547  -0.544  -0.543  -0.537  -0.535
 -0.534  -0.533  -0.531  -0.530  -0.529  -0.522  -0.522  -0.520
 -0.520  -0.518  -0.513  -0.511  -0.507  -0.506  -0.505  -0.503
 -0.501  -0.499  -0.497  -0.497  -0.493  -0.493  -0.493  -0.491
 -0.490  -0.489  -0.489  -0.488  -0.486  -0.485  -0.483  -0.481
 -0.480  -0.479  -0.477  -0.477  -0.477  -0.476  -0.474  -0.474
 -0.473  -0.473  -0.471  -0.468  -0.466  -0.460  -0.457  -0.454
 -0.452  -0.450  -0.449  -0.449  -0.448  -0.445  -0.444  -0.442
 -0.442  -0.440  -0.437  -0.436  -0.435  -0.431  -0.431  -0.430
 -0.427  -0.425  -0.425  -0.424  -0.422  -0.421  -0.420  -0.419
 -0.415  -0.414  -0.413  -0.413  -0.412  -0.412  -0.411  -0.408
 -0.406  -0.406  -0.405  -0.400  -0.399  -0.398  -0.396  -0.395
 -0.392  -0.392  -0.389  -0.388  -0.387  -0.383  -0.378  -0.377
 -0.372  -0.370  -0.370  -0.369  -0.366  -0.365  -0.363  -0.359
 -0.354  -0.349  -0.343  -0.334  -0.332  -0.330  -0.325  -0.323
 -0.297  -0.297  -0.288  -0.286  -0.286  -0.285  -0.282  -0.281
 -0.280  -0.280  -0.279  -0.277  -0.270  -0.256  -0.255  -0.252
 -0.220  -0.219

          Ground-State Mulliken Net Atomic Charges

     Atom                 Charge (a.u.)
  ----------------------------------------
      1 N                    -0.720669
      2 C                     0.314543
      3 C                     0.313875
      4 C                     0.142533
      5 C                    -0.290083
      6 H                     0.206505
      7 C                    -0.228458
      8 H                     0.210560
      9 C                    -0.235238
     10 H                     0.218486
     11 C                    -0.311071
     12 H                     0.249187
     13 C                     0.141787
     14 C                    -0.290239
     15 H                     0.206393
     16 C                    -0.227403
     17 H                     0.210765
     18 C                    -0.232699
     19 H                     0.213875
     20 C                    -0.306911
     21 H                     0.244970
     22 C                     0.193221
     23 C                    -0.284890
     24 H                     0.226130
     25 C                    -0.305842
     26 H                     0.226406
     27 C                     0.061550
     28 C                     0.067037
     29 C                    -0.225806
     30 C                    -0.554402
     31 H                     0.235915
     32 H                     0.255191
     33 C                    -0.550572
     34 H                     0.258213
     35 H                     0.236017
     36 C                    -0.212608
     37 C                    -0.639206
     38 H                     0.222943
     39 H                     0.233535
     40 H                     0.219069
     41 C                    -0.646348
     42 H                     0.242429
     43 H                     0.221459
     44 H                     0.219400
     45 C                    -0.598100
     46 H                     0.234936
     47 H                     0.215889
     48 H                     0.215586
     49 C                    -0.595591
     50 H                     0.232677
     51 H                     0.215800
     52 H                     0.215789
     53 B                     0.654291
     54 C                    -0.107079
     55 C                    -0.424691
     56 H                     0.236497
     57 C                     0.113767
     58 C                     0.114084
     59 C                    -0.425173
     60 H                     0.243557
     61 C                    -0.110746
     62 C                     0.115902
     63 C                    -0.387781
     64 H                     0.209207
     65 C                     0.145198
     66 C                    -0.261219
     67 H                     0.215784
     68 C                    -0.306011
     69 H                     0.206809
     70 C                     0.085296
     71 C                     0.123187
     72 C                     0.084156
     73 C                    -0.305854
     74 H                     0.206955
     75 C                    -0.262551
     76 H                     0.215727
     77 C                     0.145912
     78 C                    -0.388683
     79 H                     0.210492
     80 C                    -0.717146
     81 H                     0.237391
     82 H                     0.236740
     83 H                     0.234419
     84 C                    -0.714562
     85 H                     0.235548
     86 H                     0.235714
     87 H                     0.235975
     88 B                     0.653091
     89 C                    -0.109411
     90 C                    -0.424610
     91 H                     0.237288
     92 C                     0.113545
     93 C                     0.114056
     94 C                    -0.424759
     95 H                     0.238207
     96 C                    -0.105341
     97 C                     0.124064
     98 C                    -0.391672
     99 H                     0.211656
    100 C                     0.144576
    101 C                    -0.261481
    102 H                     0.215435
    103 C                    -0.306058
    104 H                     0.206736
    105 C                     0.084002
    106 C                     0.124100
    107 C                     0.081741
    108 C                    -0.305556
    109 H                     0.206281
    110 C                    -0.262546
    111 H                     0.215586
    112 C                     0.146384
    113 C                    -0.392959
    114 H                     0.212764
    115 C                    -0.716820
    116 H                     0.241549
    117 H                     0.237186
    118 H                     0.231886
    119 C                    -0.720096
    120 H                     0.247064
    121 H                     0.236178
    122 H                     0.231581
    123 C                    -0.215436
    124 C                     0.063751
    125 C                    -0.279985
    126 H                     0.222602
    127 C                     0.191954
    128 C                    -0.312944
    129 H                     0.226383
    130 C                     0.065351
    131 N                    -0.720519
    132 C                     0.312256
    133 C                     0.313073
    134 C                     0.144384
    135 C                    -0.292408
    136 H                     0.206211
    137 C                    -0.226701
    138 H                     0.210294
    139 C                    -0.236429
    140 H                     0.215602
    141 C                    -0.305872
    142 H                     0.248734
    143 C                     0.144215
    144 C                    -0.292716
    145 H                     0.206191
    146 C                    -0.225994
    147 H                     0.210337
    148 C                    -0.236511
    149 H                     0.215494
    150 C                    -0.303917
    151 H                     0.246604
    152 C                    -0.559186
    153 H                     0.237430
    154 H                     0.257591
    155 C                    -0.549222
    156 H                     0.235827
    157 H                     0.254448
    158 C                    -0.211772
    159 C                    -0.645604
    160 H                     0.245018
    161 H                     0.220810
    162 H                     0.218534
    163 C                    -0.642694
    164 H                     0.235416
    165 H                     0.224268
    166 H                     0.218343
    167 C                    -0.601639
    168 H                     0.236404
    169 H                     0.216045
    170 H                     0.215933
    171 C                    -0.593785
    172 H                     0.230462
    173 H                     0.216006
    174 H                     0.216070
  ----------------------------------------
  Sum of atomic charges =    -0.000000

                    Cartesian Multipole Moments
 -----------------------------------------------------------------
    Charge (ESU x 10^10)
                -0.0000
    Dipole Moment (Debye)
         X      -0.0630      Y       1.3596      Z       0.5303
       Tot       1.4607
    Quadrupole Moments (Debye-Ang)
        XX    -507.7636     XY      -6.1882     YY    -552.1775
        XZ     -18.9963     YZ     -23.4523     ZZ    -505.9024

 Total job time:  37440.13s(wall), 137150.83s(cpu)
        *  Thank you very much for using Q-Chem.  Have a nice day.  *
