 Q-Chem 5.1, Q-Chem, Inc., Pleasanton, CA (2018)
 Q-Chem 5.1.1 for Intel X86 EM64T Linux

User input:
--------------------------------------------------------------
$rem
threads 8
jobtype	opt
method PBEh-3c
basis def2-mSVP
mem_static	1024
mem_total	10000
sym_ignore	true
cis_n_roots             2
cis_singlets            false
cis_triplets		true
rpa                     false
cis_state_deriv         1
$end

$molecule
read incoords.mol
$end

--------------------------------------------------------------

   14   -3629.1932743764      8.82e-09  Convergence criterion met
 Total energy in the final basis set =    -3629.1932743764
   12   -3629.2333002744      6.41e-09  Convergence criterion met
 Total energy in the final basis set =    -3629.2333002744
   12   -3629.2451389532      6.69e-09  Convergence criterion met
 Total energy in the final basis set =    -3629.2451389532
   12   -3629.2470726159      6.39e-09  Convergence criterion met
 Total energy in the final basis set =    -3629.2470726159
   11   -3629.2474841499      9.86e-09  Convergence criterion met
 Total energy in the final basis set =    -3629.2474841499
   12   -3629.2468387455      5.63e-09  Convergence criterion met
 Total energy in the final basis set =    -3629.2468387455
   11   -3629.2461800642      9.82e-09  Convergence criterion met
 Total energy in the final basis set =    -3629.2461800642
   11   -3629.2473468070      9.30e-09  Convergence criterion met
    9   -3629.2486644283      9.10e-09  Convergence criterion met
 Total energy in the final basis set =    -3629.2486644283
    9   -3629.2487047845      5.41e-09  Convergence criterion met
 Total energy in the final basis set =    -3629.2487047845
    9   -3629.2487326276      5.03e-09  Convergence criterion met
 Total energy in the final basis set =    -3629.2487326276
    7   -3629.2487311114      7.44e-09  Convergence criterion met
 Total energy in the final basis set =    -3629.2487311114
    8   -3629.2487331698      6.14e-09  Convergence criterion met
 Total energy in the final basis set =    -3629.2487331698
    8   -3629.2487334310      7.10e-09  Convergence criterion met
 Total energy in the final basis set =    -3629.2487334310

             Standard Nuclear Orientation (Angstroms)
    I     Atom           X                Y                Z
 ----------------------------------------------------------------
    1      C      -6.1308347816     3.9999692124     2.4045596295
    2      C      -6.6391014633     2.6789875731     2.6128436448
    3      B      -5.7511863724     1.4465896918     2.4088078333
    4      C      -4.2720947197     1.6660902949     2.0690579351
    5      C      -3.7517331085     2.9821408329     1.8597441842
    6      B      -4.6806967564     4.1917397037     1.9629731898
    7      C      -2.4098817959     3.0949104009     1.4852728940
    8      C      -1.5704282268     2.0053226012     1.2736160099
    9      C      -2.1106860424     0.7011018216     1.4222282024
   10      C      -3.4309744208     0.5832046725     1.8421867301
   11      C      -7.0296351901     5.0645883576     2.5241871206
   12      C      -8.3750809921     4.9122930572     2.8413053159
   13      C      -8.8761042020     3.5972471729     3.0344038222
   14      C      -7.9896966987     2.5339273933     2.9084637475
   15      H      -6.6499065441     6.0585212183     2.3247343600
   16      C      -6.3938216333    -0.0014298018     2.3845218435
   17      C      -4.2159663999     5.6150778234     1.4324703569
   18      C      -6.7088119673    -0.5781056606     1.1428572586
   19      C      -7.2958204396    -1.8353279740     1.0838854063
   20      C      -7.6104456154    -2.5219848312     2.2413314979
   21      C      -7.3172857954    -1.9637193548     3.4726188600
   22      C      -6.7027431538    -0.7175979728     3.5518969858
   23      C      -6.3266715094    -0.1827602113     4.9074484156
   24      C      -6.5062323640     0.1585200524    -0.1568499889
   25      H      -7.5364979460    -2.2811361021     0.1244650434
   26      N      -8.2601103464    -3.7859018235     2.1519774061
   27      H      -7.5681299079    -2.5100212552     4.3753963978
   28      C      -4.9036237770    -0.5814046049     5.2916495130
   29      H      -7.0263186038    -0.5603537024     5.6579303184
   30      H      -6.4157881421     0.9057648140     4.9232731047
   31      C      -7.7810386154     0.8723288456    -0.6032700083
   32      H      -6.1981883100    -0.5502007542    -0.9309803609
   33      H      -5.6954983185     0.8821330435    -0.0679709740
   34      C      -3.8661001240     6.6650079667     2.2947405541
   35      C      -3.5229622202     7.9142937083     1.7836360902
   36      C      -3.5306942951     8.0998108672     0.4164421849
   37      C      -3.8649914720     7.0855955614    -0.4568608924
   38      C      -4.2103874174     5.8367908500     0.0441720444
   39      C      -4.6247271526     4.7719277431    -0.9403670635
   40      C      -3.8199910171     6.4465421185     3.7829229363
   41      H      -3.2560163425     8.7284447991     2.4478481661
   42      N      -3.1982201549     9.3854472549    -0.1392896457
   43      H      -3.8626255392     7.2647983573    -1.5266376362
   44      H      -4.1189490030     4.9489603295    -1.8938098609
   45      C      -6.1353315881     4.7401426493    -1.1695855775
   46      H      -4.2914808477     3.7936348790    -0.5955129468
   47      H      -4.6598215587     5.8193066060     4.0861022502
   48      H      -3.9437572137     7.4017544554     4.3006443323
   49      C      -2.5144506073     5.7902787988     4.2263942486
   50      C      -0.1763634396     2.1588660642     0.8788677037
   51      C     -10.2889948396     3.3809435126     3.3063847795
   52      C     -10.8052447590     2.0928991785     3.5301717552
   53      C       1.7352357495     3.6087734590     0.4242680857
   54      C       2.4884147806     2.4784587756     0.0971809759
   55      C     -13.0142679910     2.9449936710     3.7531647621
   56      C     -12.1425656157     1.8522204579     3.7539604511
   57      C     -12.6588915907     0.4652487941     3.9983860371
   58      H      -3.8603810312    -0.4001109465     1.9808020558
   59      C       0.4269090711     3.4237691960     0.8092218931
   60      H      -2.0238722673     4.0938597794     1.3258233169
   61      C      -1.3109100439    -0.4671190649     1.0870304713
   62      C       0.1829968959    -2.7152665761     0.3615840882
   63      C      -1.1324194767    -2.8872590173     0.8010332437
   64      C      -1.8472319289    -1.7636313675     1.1513492491
   65      C      -1.7425927633    -4.2548732007     0.8920188832
   66      H      -2.8710655410    -1.9049621338     1.4696922310
   67      H      -8.3592938945     1.5226682640     3.0148997938
   68      H     -10.1381332650     1.2418485688     3.5344401599
   69      C      -9.2880911772     6.0450631028     2.9403222564
   70      C      -8.8308327317     7.3677224396     2.8277590496
   71      C      -9.6704712630     8.4572957374     2.8898363438
   72      C     -11.0358280575     8.2251222737     3.0709242898
   73      C      -9.1469855152     9.8584761436     2.7762871470
   74      H      -7.7717539813     7.5497658175     2.7024645995
   75      C     -10.6614312082     5.8265033795     3.1505340950
   76      C       0.5956649864     1.0273964704     0.5614400956
   77      C       0.0125639004    -0.3089250127     0.6438920341
   78      C     -11.1742024639     4.4714344952     3.3315115088
   79      C       1.9276766679     1.2263943390     0.1711844341
   80      C       0.7325951592    -1.4581630453     0.2869312629
   81      H       0.7723820170    -3.5762509536     0.0689716695
   82      H       1.7496546290    -1.3759957153    -0.0690332808
   83      H      -0.1496742555     4.2977841631     1.0809058797
   84      C       2.3421590634     4.9793685479     0.3592514993
   85      H       3.5232449548     2.5840275967    -0.2067035065
   86      H       2.5507414561     0.3791193992    -0.0770005256
   87      C     -11.5090065043     6.9426921877     3.2014036283
   88      H     -12.5702850057     6.8101576716     3.3550896265
   89      H     -11.7269525296     9.0583936687     3.1216804123
   90      C     -12.5358632725     4.2161211141     3.5502611985
   91      H     -14.0741117545     2.7907175961     3.9186985405
   92      H     -13.2486712412     5.0282242638     3.5649087671
   93      H       3.2398483082     5.0504097444     0.9754918306
   94      H       1.6428796647     5.7377422122     0.7141520918
   95      H       2.6309488392     5.2391788026    -0.6616032345
   96      H      -1.5419359618    -4.8445962554    -0.0034054914
   97      H      -2.8244890764    -4.2046506324     1.0148783422
   98      H      -1.3397656881    -4.8114744077     1.7410449371
   99      H     -13.0863895968     0.3718210478     4.9984698098
  100      H     -13.4468833030     0.2033187749     3.2896423410
  101      H     -11.8727450702    -0.2838104167     3.9089234858
  102      H      -9.4203812302    10.4591410487     3.6453489996
  103      H      -8.0591675588     9.8751801835     2.7013081642
  104      H      -9.5552472187    10.3669278213     1.8993005141
  105      H      -6.3929123052     3.9699563785    -1.8970876845
  106      H      -6.5039384440     5.6945884907    -1.5491852473
  107      H      -6.6704189662     4.5148134583    -0.2487873376
  108      H      -7.6289077128     1.3921145411    -1.5507488151
  109      H      -8.0962515387     1.6100522977     0.1350330467
  110      H      -8.6020786577     0.1664912302    -0.7385296535
  111      H      -2.3952372231     4.8069780121     3.7729471588
  112      H      -2.4984930470     5.6569837050     5.3080859808
  113      H      -1.6502896416     6.3973265560     3.9514056596
  114      H      -4.1815277391    -0.1758711803     4.5827795295
  115      H      -4.7896913695    -1.6664613141     5.3007838565
  116      H      -4.6428869444    -0.2075824593     6.2825527473
  117      C      -4.2039156315    10.2985797503    -0.3091670002
  118      C      -3.9322558384    11.5586533388    -0.8799486138
  119      C      -2.5536751833    11.9444595634    -1.3527170984
  120      C      -1.5473078994    10.8452247069    -1.1162716172
  121      C      -2.1037462296    13.2098442728    -0.5980148671
  122      C      -2.6245046679    12.2250819201    -2.8686061281
  123      C      -1.9056161312     9.6143806174    -0.5284985551
  124      H      -2.9512571326    11.3412958420    -3.4156210601
  125      H      -1.6520484211    12.5230771983    -3.2579993665
  126      H      -3.3244474565    13.0314953240    -3.0830383012
  127      C      -4.9924613341    12.4375019203    -1.0296486784
  128      C      -6.2816687666    12.1003003045    -0.6505704478
  129      C      -6.5426557311    10.8458632261    -0.1022472946
  130      C      -5.5198354641     9.9509267489     0.0711459596
  131      H      -5.7240016486     8.9765113278     0.4871032716
  132      H      -7.0847615801    12.8102537173    -0.7892624234
  133      H      -7.5468983943    10.5697738072     0.1845202665
  134      H      -4.8197509534    13.4130567478    -1.4637558359
  135      C      -0.2271645841    11.0143269781    -1.4973215954
  136      C      -0.9434794132     8.5975677657    -0.3446919192
  137      C       0.3517525211     8.8020859425    -0.7421183260
  138      C       0.7175388473    10.0161911846    -1.3203651230
  139      H      -1.2308263385     7.6575690162     0.0999663226
  140      H       1.0819140160     8.0173778927    -0.6063898430
  141      H       0.0812175213    11.9456571150    -1.9523322328
  142      H       1.7381133192    10.1821595181    -1.6347955700
  143      C      -9.6359128022    -3.8165014708     1.9639858516
  144      C      -7.4975810069    -4.9456377368     2.1393592378
  145      C      -8.1001767033    -6.1989125065     1.9794371324
  146      C      -9.6015575426    -6.3732666103     1.8138649970
  147      C     -10.3113903834    -5.0307492575     1.8013984327
  148      C      -9.8817042530    -7.1017161901     0.4875571739
  149      C     -10.3675566717    -2.6208861766     1.9378471733
  150      C     -11.7353298533    -2.6273221933     1.7496117151
  151      C     -12.4146242980    -3.8243109778     1.5922989470
  152      C     -11.6913031235    -5.0014530624     1.6225684570
  153      H     -12.2230411034    -5.9374731313     1.4991116234
  154      H     -12.2681736158    -1.6855113028     1.7251554198
  155      H     -13.4862438486    -3.8427820758     1.4465272625
  156      H      -9.8600933083    -1.6750017971     2.0588050490
  157      C      -6.1066346918    -4.8702542992     2.2879712893
  158      C      -5.3291946169    -6.0112152597     2.2857540632
  159      C      -5.9150557237    -7.2572637122     2.1318447117
  160      C      -7.2872739989    -7.3274090095     1.9810175497
  161      H      -7.7456838102    -8.3015638971     1.8608356115
  162      H      -5.6306533427    -3.9079528791     2.4108479579
  163      H      -4.2574109711    -5.9201574160     2.4081918223
  164      H      -5.3167447181    -8.1582267505     2.1297368935
  165      H      -2.0528247559    13.0285565670     0.4749285525
  166      H      -2.7969244214    14.0325699689    -0.7684244628
  167      H      -1.1206998219    13.5379920506    -0.9330462690
  168      H      -9.5166004632    -6.5212995251    -0.3592934303
  169      H     -10.9495451058    -7.2694271478     0.3431715641
  170      H      -9.3973876884    -8.0785258086     0.4592308649
  171      C     -10.1422413131    -7.2165707746     2.9821236688
  172      H      -9.9533321536    -6.7251375811     3.9362047374
  173      H      -9.6719980204    -8.2006085607     3.0119817476
  174      H     -11.2184110221    -7.3723994362     2.8932638596
 ----------------------------------------------------------------

    7   -3629.2487341134      6.22e-09  Convergence criterion met
 Total energy in the final basis set =    -3629.2487341134

         TDDFT/TDA Excitation Energies
 ---------------------------------------------------

 Excited state   1: excitation energy (eV) =    2.5571
 Total energy for state  1:                 -3629.15476226 au
    Multiplicity: Triplet
    Trans. Mom.:  0.0000 X   0.0000 Y   0.0000 Z
    Strength   :     0.0000000000
    D(322) --> V(  1) amplitude =  0.9975

 Excited state   2: excitation energy (eV) =    2.7683
 Total energy for state  2:                 -3629.14699959 au
    Multiplicity: Triplet
    Trans. Mom.:  0.0000 X   0.0000 Y   0.0000 Z
    Strength   :     0.0000000000
    D(321) --> V(  1) amplitude =  0.9968

 ---------------------------------------------------

 Final energy is   -3629.15476226167
 **  OPTIMIZATION CONVERGED  **

                    Orbital Energies (a.u.)
 --------------------------------------------------------------

 Alpha MOs
 -- Occupied --
-14.675 -14.672 -10.490 -10.490 -10.488 -10.487 -10.486 -10.485
-10.474 -10.474 -10.473 -10.473 -10.469 -10.469 -10.469 -10.469
-10.468 -10.468 -10.468 -10.468 -10.466 -10.464 -10.463 -10.463
-10.463 -10.463 -10.460 -10.460 -10.459 -10.459 -10.459 -10.458
-10.457 -10.457 -10.455 -10.455 -10.455 -10.455 -10.453 -10.453
-10.453 -10.452 -10.452 -10.452 -10.452 -10.452 -10.448 -10.448
-10.446 -10.446 -10.445 -10.445 -10.445 -10.443 -10.442 -10.441
-10.441 -10.441 -10.441 -10.441 -10.441 -10.440 -10.439 -10.439
-10.439 -10.439 -10.439 -10.439 -10.439 -10.439 -10.438 -10.438
-10.438 -10.438 -10.438 -10.437 -10.437 -10.435 -10.434 -10.434
-10.434 -10.434 -10.431 -10.431 -10.426 -10.426 -10.424 -10.424
-10.423 -10.422 -10.422 -10.421  -6.953  -6.952  -1.091  -1.087
 -1.004  -1.004  -0.973  -0.972  -0.966  -0.966  -0.962  -0.958
 -0.956  -0.952  -0.951  -0.949  -0.909  -0.906  -0.906  -0.904
 -0.897  -0.896  -0.885  -0.883  -0.882  -0.874  -0.871  -0.869
 -0.855  -0.855  -0.849  -0.846  -0.833  -0.832  -0.831  -0.827
 -0.824  -0.823  -0.820  -0.813  -0.812  -0.811  -0.809  -0.808
 -0.800  -0.799  -0.790  -0.784  -0.767  -0.766  -0.759  -0.758
 -0.738  -0.729  -0.723  -0.721  -0.720  -0.719  -0.715  -0.712
 -0.710  -0.707  -0.707  -0.706  -0.692  -0.688  -0.685  -0.685
 -0.673  -0.671  -0.669  -0.668  -0.665  -0.664  -0.641  -0.638
 -0.638  -0.637  -0.628  -0.620  -0.618  -0.614  -0.613  -0.612
 -0.612  -0.611  -0.587  -0.586  -0.584  -0.575  -0.570  -0.568
 -0.563  -0.562  -0.558  -0.547  -0.545  -0.544  -0.539  -0.535
 -0.534  -0.533  -0.532  -0.530  -0.526  -0.522  -0.520  -0.520
 -0.518  -0.518  -0.514  -0.512  -0.507  -0.506  -0.505  -0.503
 -0.503  -0.500  -0.497  -0.496  -0.495  -0.494  -0.493  -0.491
 -0.491  -0.490  -0.489  -0.489  -0.486  -0.485  -0.485  -0.483
 -0.480  -0.480  -0.478  -0.477  -0.477  -0.475  -0.474  -0.474
 -0.473  -0.472  -0.469  -0.468  -0.467  -0.461  -0.457  -0.455
 -0.453  -0.451  -0.449  -0.448  -0.447  -0.445  -0.444  -0.442
 -0.441  -0.441  -0.437  -0.436  -0.434  -0.433  -0.431  -0.430
 -0.428  -0.426  -0.425  -0.424  -0.422  -0.422  -0.421  -0.418
 -0.415  -0.415  -0.413  -0.413  -0.412  -0.412  -0.409  -0.409
 -0.407  -0.406  -0.405  -0.400  -0.398  -0.397  -0.396  -0.395
 -0.392  -0.390  -0.389  -0.388  -0.386  -0.385  -0.378  -0.378
 -0.374  -0.370  -0.370  -0.369  -0.366  -0.365  -0.363  -0.358
 -0.355  -0.354  -0.341  -0.334  -0.333  -0.331  -0.326  -0.324
 -0.297  -0.295  -0.290  -0.286  -0.286  -0.283  -0.283  -0.281
 -0.280  -0.280  -0.279  -0.278  -0.272  -0.258  -0.256  -0.254
 -0.220  -0.212

          Ground-State Mulliken Net Atomic Charges

     Atom                 Charge (a.u.)
  ----------------------------------------
      1 C                    -0.108037
      2 C                    -0.103779
      3 B                     0.630859
      4 C                    -0.109074
      5 C                    -0.112363
      6 B                     0.621013
      7 C                    -0.422425
      8 C                     0.117039
      9 C                     0.116778
     10 C                    -0.427291
     11 C                    -0.417018
     12 C                     0.120173
     13 C                     0.114994
     14 C                    -0.424424
     15 H                     0.234541
     16 C                    -0.221908
     17 C                    -0.202763
     18 C                     0.048962
     19 C                    -0.282344
     20 C                     0.190052
     21 C                    -0.295926
     22 C                     0.069314
     23 C                    -0.542259
     24 C                    -0.553955
     25 H                     0.227504
     26 N                    -0.722066
     27 H                     0.225134
     28 C                    -0.645431
     29 H                     0.232877
     30 H                     0.250394
     31 C                    -0.644322
     32 H                     0.236638
     33 H                     0.261817
     34 C                     0.063716
     35 C                    -0.284090
     36 C                     0.155729
     37 C                    -0.272700
     38 C                     0.045515
     39 C                    -0.555573
     40 C                    -0.543296
     41 H                     0.226913
     42 N                    -0.702515
     43 H                     0.229793
     44 H                     0.236239
     45 C                    -0.649066
     46 H                     0.260569
     47 H                     0.249948
     48 H                     0.232324
     49 C                    -0.649321
     50 C                     0.124310
     51 C                     0.131173
     52 C                    -0.394073
     53 C                     0.145415
     54 C                    -0.260214
     55 C                    -0.261611
     56 C                     0.144750
     57 C                    -0.718908
     58 H                     0.239564
     59 C                    -0.387127
     60 H                     0.236793
     61 C                     0.130284
     62 C                    -0.263193
     63 C                     0.147729
     64 C                    -0.391198
     65 C                    -0.717745
     66 H                     0.211521
     67 H                     0.238913
     68 H                     0.212754
     69 C                     0.125664
     70 C                    -0.390749
     71 C                     0.143570
     72 C                    -0.260008
     73 C                    -0.718607
     74 H                     0.210377
     75 C                     0.083883
     76 C                     0.085776
     77 C                     0.082387
     78 C                     0.081940
     79 C                    -0.306759
     80 C                    -0.306280
     81 H                     0.216881
     82 H                     0.206950
     83 H                     0.208126
     84 C                    -0.715304
     85 H                     0.216935
     86 H                     0.207189
     87 C                    -0.305795
     88 H                     0.207024
     89 H                     0.216993
     90 C                    -0.305671
     91 H                     0.217072
     92 H                     0.207019
     93 H                     0.236694
     94 H                     0.232624
     95 H                     0.236949
     96 H                     0.235252
     97 H                     0.239751
     98 H                     0.235808
     99 H                     0.239830
    100 H                     0.230482
    101 H                     0.243495
    102 H                     0.238738
    103 H                     0.240205
    104 H                     0.232749
    105 H                     0.219345
    106 H                     0.222056
    107 H                     0.249189
    108 H                     0.220524
    109 H                     0.241935
    110 H                     0.220848
    111 H                     0.241242
    112 H                     0.224431
    113 H                     0.219053
    114 H                     0.238145
    115 H                     0.219435
    116 H                     0.223653
    117 C                     0.305029
    118 C                     0.142635
    119 C                    -0.209319
    120 C                     0.142005
    121 C                    -0.598312
    122 C                    -0.597012
    123 C                     0.306446
    124 H                     0.233999
    125 H                     0.215558
    126 H                     0.215288
    127 C                    -0.290498
    128 C                    -0.234335
    129 C                    -0.233544
    130 C                    -0.305223
    131 H                     0.250182
    132 H                     0.206829
    133 H                     0.218962
    134 H                     0.206171
    135 C                    -0.290930
    136 C                    -0.301489
    137 C                    -0.231880
    138 C                    -0.233873
    139 H                     0.247891
    140 H                     0.214296
    141 H                     0.206295
    142 H                     0.207479
    143 C                     0.314079
    144 C                     0.318555
    145 C                     0.141216
    146 C                    -0.212093
    147 C                     0.141468
    148 C                    -0.598624
    149 C                    -0.310579
    150 C                    -0.234774
    151 C                    -0.227987
    152 C                    -0.289505
    153 H                     0.206469
    154 H                     0.218813
    155 H                     0.210250
    156 H                     0.248268
    157 C                    -0.309789
    158 C                    -0.234936
    159 C                    -0.227092
    160 C                    -0.289844
    161 H                     0.206592
    162 H                     0.244911
    163 H                     0.214524
    164 H                     0.210742
    165 H                     0.233600
    166 H                     0.215357
    167 H                     0.215629
    168 H                     0.234279
    169 H                     0.215633
    170 H                     0.215698
    171 C                    -0.594920
    172 H                     0.233285
    173 H                     0.215469
    174 H                     0.215585
  ----------------------------------------
  Sum of atomic charges =    -0.000000

                    Cartesian Multipole Moments
 -----------------------------------------------------------------
    Charge (ESU x 10^10)
                -0.0000
    Dipole Moment (Debye)
         X      -0.0625      Y      -0.6663      Z       0.4129
       Tot       0.7864
    Quadrupole Moments (Debye-Ang)
        XX    -490.1497     XY     -11.8025     YY    -524.0806
        XZ     -16.7893     YZ       5.2011     ZZ    -555.4923

 Total job time:  232317.04s(wall), 1578093.88s(cpu)
        *  Thank you very much for using Q-Chem.  Have a nice day.  *
