 Q-Chem 5.1, Q-Chem, Inc., Pleasanton, CA (2018)
 Q-Chem 5.1.1 for Intel X86 EM64T Linux

User input:
--------------------------------------------------------------
$rem
threads 8
jobtype	sp
method PBEh-3c
basis def2-mSVP
mem_static	1024
mem_total	10000
sym_ignore	true
cis_n_roots             6
cis_singlets            true
cis_triplets		true
rpa                     false
calc_soc 		true
cis_moments             true
cis_relaxed_density	true
$end

$molecule
read tfreeopt.mol
$end

--------------------------------------------------------------

             Standard Nuclear Orientation (Angstroms)
    I     Atom           X                Y                Z
 ----------------------------------------------------------------
    1      N       0.0000000000     0.0000000000     0.0000000000
    2      C       0.0000000000     0.0000000000     1.3880190000
    3      C       1.1825128278     0.0000000000    -0.7285418930
    4      C       2.4230146124    -0.0480915606    -0.0836034498
    5      C       3.5750284118    -0.0518082674    -0.8645317904
    6      H       4.5400825736    -0.0921940062    -0.3734522982
    7      C       3.5403296340    -0.0026041231    -2.2451645909
    8      H       4.4583869599    -0.0027259348    -2.8171163378
    9      C       2.3068783446     0.0495061510    -2.8735375998
   10      H       2.2413106903     0.0951909972    -3.9529554633
   11      C       1.1440136145     0.0458350303    -2.1292195195
   12      H       0.1940637105     0.0864327145    -2.6418540587
   13      C       1.2010357622    -0.0448778910     2.1055803698
   14      C       1.1402517888    -0.0491442833     3.4950419208
   15      H       2.0648891861    -0.0867710790     4.0582385684
   16      C      -0.0545674230    -0.0090914509     4.1889106569
   17      H      -0.0607223370    -0.0158953624     5.2704057411
   18      C      -1.2369003668     0.0387904614     3.4682486461
   19      H      -2.1904971531     0.0690559758     3.9798543937
   20      C      -1.2127367171     0.0452337487     2.0878191505
   21      H      -2.1459058039     0.0813719708     1.5441549930
   22      C      -1.2340067785     0.1217637907    -0.6999534107
   23      C      -1.6743197402     1.3723285458    -1.0903116165
   24      H      -1.0768392018     2.2430632942    -0.8413221885
   25      C      -1.9803275938    -0.9991494914    -1.0165441728
   26      H      -1.6266031356    -1.9763300321    -0.7061027430
   27      C      -2.8480162221     1.5150956847    -1.8188166336
   28      C      -3.1740792268    -0.8738469846    -1.7208318930
   29      C      -3.6240079910     0.3886449348    -2.1388911213
   30      C      -3.9965869075    -2.1086250211    -1.9734288761
   31      H      -4.5141770686    -2.0294691157    -2.9320292806
   32      H      -3.3387491897    -2.9785832267    -2.0491212406
   33      C      -3.1994946790     2.8960117305    -2.3111861202
   34      H      -4.2741915214     2.9866983739    -2.4712076005
   35      H      -2.9430585758     3.6310056924    -1.5427607618
   36      C       2.5611805809    -0.0977171077     1.4279580569
   37      C      -5.0182992051    -2.3379148325    -0.8620685676
   38      H      -5.7166109161    -1.5032874392    -0.7977665868
   39      H      -5.5985910277    -3.2440903860    -1.0401776636
   40      H      -4.5271650255    -2.4380583297     0.1070394868
   41      C      -2.4602332497     3.2371840690    -3.6038723351
   42      H      -2.7205389785     2.5394162549    -4.4001433300
   43      H      -1.3790108444     3.1926175741    -3.4639428515
   44      H      -2.7108268872     4.2427685726    -3.9459815673
   45      C       3.4044132135     1.1019793518     1.8947560241
   46      H       2.9287771285     2.0424876917     1.6180726689
   47      H       4.3998111106     1.0863789748     1.4495622274
   48      H       3.5376242323     1.0984939086     2.9772367219
   49      C       3.2709021566    -1.4042590710     1.8249134082
   50      H       2.6923419931    -2.2721244200     1.5094115880
   51      H       4.2576092543    -1.4745667456     1.3647110500
   52      H       3.4100556435    -1.4677068577     2.9051733355
   53      B      -4.9410410146     0.5916807456    -2.9959384781
   54      C      -4.9083857405     0.3933702552    -4.5152921648
   55      C      -3.7643774104    -0.0914916198    -5.1387470133
   56      H      -2.9302460558    -0.3444935740    -4.4978183252
   57      C      -3.6287018012    -0.2291294964    -6.5152919004
   58      C      -4.7212380222     0.1565208335    -7.3370563100
   59      C      -5.8613714667     0.6626123105    -6.7222802011
   60      H      -6.6791857753     1.0070057554    -7.3423210124
   61      C      -6.0076076013     0.7955399657    -5.3378985555
   62      C      -2.3908920330    -0.7059112663    -7.1132285290
   63      C      -2.2543046895    -0.7412952031    -8.5109006954
   64      C      -1.0289081636    -1.1626005189    -9.0476156179
   65      H      -0.8823158700    -1.1920470663   -10.1178797504
   66      C       0.0196091923    -1.5506222407    -8.2502104045
   67      H       0.9501444863    -1.8695152405    -8.7050532719
   68      C      -0.1088686805    -1.5428203521    -6.8582870094
   69      C      -1.3054430177    -1.1212053558    -6.3226702090
   70      H      -1.3963923047    -1.1202886195    -5.2451400879
   71      C      -4.5967323660     0.0487105141    -8.7859991727
   72      C      -5.6705326369     0.3498693470    -9.6388993073
   73      H      -6.6220674648     0.6317026741    -9.2080426965
   74      C      -5.5771246864     0.2839926155   -11.0111060333
   75      C      -4.3549915964    -0.0983903789   -11.5688430242
   76      H      -4.2436752607    -0.1585038333   -12.6452098131
   77      C      -3.2927555822    -0.4153923073   -10.7584643541
   78      H      -2.3708449131    -0.7206731180   -11.2321540024
   79      C      -3.3801663182    -0.3621236557    -9.3597610306
   80      C       1.0267310520    -1.9881671112    -5.9852998892
   81      H       0.7978632994    -1.8690317946    -4.9267416572
   82      H       1.2653352335    -3.0404041869    -6.1511819905
   83      H       1.9350749347    -1.4192469684    -6.1929009178
   84      C      -6.7478521991     0.6025936409   -11.8932213794
   85      H      -7.6419877707     0.8224216201   -11.3088872481
   86      H      -6.9900766412    -0.2320192615   -12.5531910058
   87      H      -6.5415986204     1.4632355246   -12.5343616386
   88      B      -7.2349687650     1.4421438553    -4.6974596676
   89      C      -7.3304055553     1.5487014174    -3.1755214631
   90      C      -8.4367647021     2.1070146160    -2.5291738840
   91      H      -9.2690567433     2.4132761136    -3.1503195404
   92      C      -8.5053948506     2.3203990182    -1.1556971379
   93      C      -7.3790221156     1.9744843914    -0.3641276641
   94      C      -6.2951658667     1.3736630133    -0.9947587692
   95      H      -5.4320951001     1.0837273874    -0.4103271769
   96      C      -6.2240410897     1.1443951561    -2.3636895889
   97      C      -7.3520738530     2.2967597810     1.0543758410
   98      C      -6.2192429244     2.0352622219     1.8424332559
   99      H      -5.3505676692     1.5716804990     1.3951674592
  100      C      -6.1438212029     2.3655495742     3.1771388256
  101      C      -7.2496968091     2.9902456637     3.7600722431
  102      H      -7.2222918018     3.2727037994     4.8059007127
  103      C      -8.3704743907     3.2598378463     3.0123292256
  104      H      -9.1953828325     3.7538354138     3.5056484832
  105      C      -8.4565303201     2.9248122396     1.6532980304
  106      C      -9.6735377018     2.9096277834    -0.5145484801
  107      C     -10.8436367370     3.1821619204    -1.2393667859
  108      H     -10.8852037824     2.9233191558    -2.2888600899
  109      C     -11.9596670572     3.7534420870    -0.6716952931
  110      C     -11.9161051517     4.0652508281     0.6894641034
  111      H     -12.7768978634     4.5125285203     1.1725200871
  112      C     -10.7887553863     3.7953156069     1.4268823831
  113      H     -10.8038596127     4.0397621251     2.4793551826
  114      C      -9.6464926435     3.2142957390     0.8578434021
  115      C      -4.9160111867     2.0609958375     3.9837903535
  116      H      -4.0708242889     1.8012803869     3.3463545272
  117      H      -4.6153545413     2.9130372809     4.5948972205
  118      H      -5.0871477984     1.2224966192     4.6624300374
  119      C     -13.1906815251     4.0322429374    -1.4828590271
  120      H     -13.0821995413     3.6637304035    -2.5038908936
  121      H     -14.0710979431     3.5504159414    -1.0546591921
  122      H     -13.4013875469     5.1028653722    -1.5320076722
  123      C      -8.3005822239     2.1663746457    -5.6265765592
  124      C      -9.2987700248     1.4650904600    -6.3194620530
  125      C     -10.1731617456     2.1370234237    -7.1701270411
  126      H     -10.9428719572     1.5970077442    -7.7097644848
  127      C     -10.0420729993     3.5026568086    -7.3169516424
  128      C      -9.0742228221     4.2203843507    -6.6452535772
  129      H      -8.9969991285     5.2933890024    -6.7839585441
  130      C      -8.1965705164     3.5581326608    -5.7961392107
  131      N     -10.9199754881     4.2207521007    -8.2034415495
  132      C     -10.5560050184     4.3443633574    -9.5173434885
  133      C     -12.0460843105     4.7984455838    -7.6810731420
  134      C     -11.3674385160     5.0667358186   -10.4157470905
  135      C     -10.9432828184     5.1598611816   -11.7311330442
  136      H     -11.5417536524     5.7064507856   -12.4474141747
  137      C      -9.7597743683     4.5820094665   -12.1610816025
  138      H      -9.4582344737     4.6818321281   -13.1942017330
  139      C      -8.9564967539     3.8837550213   -11.2613196579
  140      H      -8.0259306793     3.4407199040   -11.5849405685
  141      C      -9.3450113968     3.7607282191    -9.9532450553
  142      H      -8.7182190691     3.2279812697    -9.2550321405
  143      C     -12.9104032338     5.5462043929    -8.5072985779
  144      C     -14.0282266804     6.1136436117    -7.9198846340
  145      H     -14.7112756729     6.6945098088    -8.5244909899
  146      C     -14.2970874866     5.9666399139    -6.5685307146
  147      H     -15.1770380934     6.4283428196    -6.1436764175
  148      C     -13.4340809496     5.2289242756    -5.7603125173
  149      H     -13.6345493060     5.1150348599    -4.7047717543
  150      C     -12.3203565142     4.6451678258    -6.3045989703
  151      H     -11.6482710391     4.0764528216    -5.6810995933
  152      C      -9.4636179827    -0.0180138982    -6.1251246413
  153      H      -8.4815467167    -0.4898176867    -6.0651784380
  154      H      -9.9631479294    -0.4515372555    -6.9959352604
  155      C     -12.6355377518     5.7536055961    -9.9764591374
  156      C      -7.1169964446     4.3700023294    -5.1250847253
  157      H      -6.9197682813     3.9782643595    -4.1277499602
  158      H      -7.4730579770     5.3948018107    -4.9864768346
  159      C     -10.2588614961    -0.3465683509    -4.8636082132
  160      H      -9.7509674256     0.0202061137    -3.9724137936
  161      H     -10.3779826527    -1.4243999921    -4.7533027132
  162      H     -11.2547311923     0.0986801119    -4.8935769182
  163      C      -5.8158466864     4.3926753358    -5.9263169045
  164      H      -5.4041214651     3.3914592986    -6.0403760355
  165      H      -5.0672160409     5.0006617998    -5.4176933135
  166      H      -5.9652914589     4.8116600512    -6.9228366362
  167      C     -13.8150586213     5.1927813512   -10.7934155612
  168      H     -14.7483398141     5.6857067817   -10.5244968514
  169      H     -13.6599476577     5.3495037531   -11.8600888742
  170      H     -13.9356381338     4.1235147580   -10.6237231137
  171      C     -12.4793403839     7.2668457204   -10.2360589986
  172      H     -13.3786365587     7.8090331133    -9.9472704537
  173      H     -12.3025843749     7.4644944564   -11.2924189975
  174      H     -11.6419296818     7.6765193147    -9.6721599607
 ----------------------------------------------------------------

   14   -3629.2480772946      9.59e-09  Convergence criterion met
 Total energy in the final basis set =    -3629.2480772946

         TDDFT/TDA Excitation Energies
 ---------------------------------------------------

 Excited state   1: excitation energy (eV) =    2.4860
 Total energy for state  1:                 -3629.15671879 au
    Multiplicity: Triplet
    Trans. Mom.:  0.0000 X   0.0000 Y   0.0000 Z
    Strength   :     0.0000000000
    D(317) --> V(  3) amplitude =  0.2247
    D(319) --> V(  1) amplitude =  0.8704

 Excited state   2: excitation energy (eV) =    2.5565
 Total energy for state  2:                 -3629.15412706 au
    Multiplicity: Triplet
    Trans. Mom.:  0.0000 X   0.0000 Y   0.0000 Z
    Strength   :     0.0000000000
    D(322) --> V(  1) amplitude =  0.9973

 Excited state   3: excitation energy (eV) =    2.5572
 Total energy for state  3:                 -3629.15410203 au
    Multiplicity: Singlet
    Trans. Mom.:  0.0175 X  -0.0087 Y   0.0020 Z
    Strength   :     0.0000240953
    D(322) --> V(  1) amplitude =  0.9976

 Excited state   4: excitation energy (eV) =    2.7676
 Total energy for state  4:                 -3629.14637160 au
    Multiplicity: Triplet
    Trans. Mom.:  0.0000 X   0.0000 Y   0.0000 Z
    Strength   :     0.0000000000
    D(321) --> V(  1) amplitude =  0.9918

 Excited state   5: excitation energy (eV) =    2.7687
 Total energy for state  5:                 -3629.14632892 au
    Multiplicity: Singlet
    Trans. Mom.:  0.0405 X  -0.0038 Y   0.0422 Z
    Strength   :     0.0002329806
    D(321) --> V(  1) amplitude =  0.9970

 Excited state   6: excitation energy (eV) =    2.8027
 Total energy for state  6:                 -3629.14508026 au
    Multiplicity: Triplet
    Trans. Mom.:  0.0000 X   0.0000 Y   0.0000 Z
    Strength   :     0.0000000000
    D(311) --> V(  1) amplitude =  0.2847
    D(315) --> V(  1) amplitude = -0.2564
    D(320) --> V(  1) amplitude =  0.8258

 Excited state   7: excitation energy (eV) =    2.9143
 Total energy for state  7:                 -3629.14097831 au
    Multiplicity: Triplet
    Trans. Mom.:  0.0000 X   0.0000 Y   0.0000 Z
    Strength   :     0.0000000000
    D(317) --> V(  1) amplitude =  0.6601
    D(318) --> V(  1) amplitude = -0.3051
    D(319) --> V(  3) amplitude =  0.3592

 Excited state   8: excitation energy (eV) =    2.9738
 Total energy for state  8:                 -3629.13879255 au
    Multiplicity: Triplet
    Trans. Mom.:  0.0000 X   0.0000 Y   0.0000 Z
    Strength   :     0.0000000000
    D(307) --> V(  1) amplitude =  0.3636
    D(317) --> V(  1) amplitude =  0.2723
    D(318) --> V(  1) amplitude =  0.7335

 Excited state   9: excitation energy (eV) =    3.1142
 Total energy for state  9:                 -3629.13363187 au
    Multiplicity: Singlet
    Trans. Mom.: -0.1310 X   0.1065 Y   0.1546 Z
    Strength   :     0.0039964237
    D(319) --> V(  1) amplitude =  0.9452

 Excited state  10: excitation energy (eV) =    3.2579
 Total energy for state 10:                 -3629.12835226 au
    Multiplicity: Singlet
    Trans. Mom.:  1.2271 X  -0.7321 Y  -1.9803 Z
    Strength   :     0.4759537007
    D(319) --> V(  2) amplitude = -0.2128
    D(320) --> V(  1) amplitude =  0.9152

 Excited state  11: excitation energy (eV) =    3.4563
 Total energy for state 11:                 -3629.12106098 au
    Multiplicity: Singlet
    Trans. Mom.:  0.0811 X  -0.0317 Y  -0.2166 Z
    Strength   :     0.0046151374
    D(311) --> V(  1) amplitude =  0.2237
    D(318) --> V(  1) amplitude = -0.8893

 Excited state  12: excitation energy (eV) =    3.5596
 Total energy for state 12:                 -3629.11726316 au
    Multiplicity: Singlet
    Trans. Mom.: -0.0001 X  -0.0019 Y  -0.0239 Z
    Strength   :     0.0000501757
    D(322) --> V(  2) amplitude =  0.9952

 ---------------------------------------------------

                    Orbital Energies (a.u.)
 --------------------------------------------------------------

 Alpha MOs
 -- Occupied --
-14.675 -14.672 -10.490 -10.490 -10.488 -10.487 -10.486 -10.485
-10.474 -10.474 -10.473 -10.473 -10.469 -10.469 -10.469 -10.469
-10.468 -10.468 -10.468 -10.468 -10.466 -10.464 -10.463 -10.463
-10.463 -10.463 -10.460 -10.460 -10.459 -10.459 -10.459 -10.458
-10.457 -10.457 -10.455 -10.455 -10.455 -10.455 -10.453 -10.453
-10.453 -10.452 -10.452 -10.452 -10.452 -10.452 -10.448 -10.448
-10.446 -10.446 -10.445 -10.445 -10.445 -10.443 -10.442 -10.441
-10.441 -10.441 -10.441 -10.441 -10.441 -10.440 -10.439 -10.439
-10.439 -10.439 -10.439 -10.439 -10.439 -10.439 -10.438 -10.438
-10.438 -10.438 -10.437 -10.437 -10.437 -10.435 -10.434 -10.434
-10.434 -10.434 -10.431 -10.431 -10.426 -10.426 -10.424 -10.424
-10.423 -10.422 -10.422 -10.421  -6.953  -6.952  -1.091  -1.087
 -1.004  -1.004  -0.973  -0.972  -0.966  -0.966  -0.962  -0.958
 -0.956  -0.952  -0.951  -0.949  -0.909  -0.906  -0.906  -0.904
 -0.897  -0.896  -0.885  -0.883  -0.882  -0.874  -0.871  -0.869
 -0.855  -0.855  -0.849  -0.846  -0.833  -0.832  -0.831  -0.827
 -0.824  -0.823  -0.820  -0.813  -0.812  -0.811  -0.809  -0.808
 -0.800  -0.799  -0.790  -0.784  -0.767  -0.766  -0.759  -0.758
 -0.737  -0.729  -0.723  -0.721  -0.720  -0.719  -0.715  -0.712
 -0.710  -0.707  -0.707  -0.706  -0.692  -0.688  -0.685  -0.685
 -0.673  -0.671  -0.669  -0.668  -0.665  -0.664  -0.641  -0.638
 -0.638  -0.637  -0.628  -0.620  -0.618  -0.614  -0.613  -0.612
 -0.612  -0.611  -0.587  -0.586  -0.584  -0.575  -0.570  -0.568
 -0.563  -0.562  -0.558  -0.547  -0.545  -0.544  -0.538  -0.535
 -0.534  -0.533  -0.532  -0.530  -0.526  -0.522  -0.520  -0.520
 -0.518  -0.518  -0.514  -0.512  -0.507  -0.506  -0.505  -0.503
 -0.503  -0.500  -0.497  -0.496  -0.495  -0.494  -0.493  -0.491
 -0.491  -0.490  -0.489  -0.489  -0.486  -0.485  -0.485  -0.483
 -0.480  -0.480  -0.478  -0.477  -0.477  -0.475  -0.474  -0.474
 -0.473  -0.472  -0.469  -0.468  -0.467  -0.461  -0.457  -0.455
 -0.453  -0.451  -0.449  -0.448  -0.447  -0.445  -0.444  -0.442
 -0.441  -0.441  -0.437  -0.436  -0.434  -0.433  -0.431  -0.430
 -0.427  -0.426  -0.425  -0.424  -0.422  -0.422  -0.421  -0.418
 -0.415  -0.415  -0.413  -0.413  -0.412  -0.412  -0.409  -0.409
 -0.407  -0.406  -0.405  -0.400  -0.398  -0.397  -0.396  -0.395
 -0.392  -0.390  -0.389  -0.388  -0.386  -0.385  -0.378  -0.378
 -0.374  -0.370  -0.370  -0.369  -0.366  -0.365  -0.363  -0.358
 -0.355  -0.354  -0.341  -0.334  -0.333  -0.331  -0.326  -0.323
 -0.297  -0.295  -0.290  -0.286  -0.286  -0.283  -0.283  -0.281
 -0.280  -0.280  -0.279  -0.278  -0.272  -0.258  -0.256  -0.254
 -0.220  -0.212

          Ground-State Mulliken Net Atomic Charges

     Atom                 Charge (a.u.)
  ----------------------------------------
      1 N                    -0.722169
      2 C                     0.318799
      3 C                     0.314135
      4 C                     0.141862
      5 C                    -0.289475
      6 H                     0.206400
      7 C                    -0.227957
      8 H                     0.210284
      9 C                    -0.234877
     10 H                     0.218807
     11 C                    -0.310961
     12 H                     0.248374
     13 C                     0.141264
     14 C                    -0.289956
     15 H                     0.206620
     16 C                    -0.226968
     17 H                     0.210695
     18 C                    -0.234979
     19 H                     0.214485
     20 C                    -0.309677
     21 H                     0.244853
     22 C                     0.190185
     23 C                    -0.282358
     24 H                     0.227576
     25 C                    -0.296336
     26 H                     0.225077
     27 C                     0.048361
     28 C                     0.070126
     29 C                    -0.221182
     30 C                    -0.542835
     31 H                     0.250472
     32 H                     0.232979
     33 C                    -0.554093
     34 H                     0.261861
     35 H                     0.236631
     36 C                    -0.212469
     37 C                    -0.645361
     38 H                     0.238191
     39 H                     0.223689
     40 H                     0.219436
     41 C                    -0.644469
     42 H                     0.241952
     43 H                     0.220886
     44 H                     0.220560
     45 C                    -0.598410
     46 H                     0.234247
     47 H                     0.215582
     48 H                     0.215678
     49 C                    -0.594837
     50 H                     0.233281
     51 H                     0.215570
     52 H                     0.215468
     53 B                     0.631016
     54 C                    -0.103776
     55 C                    -0.424555
     56 H                     0.238809
     57 C                     0.114584
     58 C                     0.120043
     59 C                    -0.416865
     60 H                     0.234473
     61 C                    -0.108849
     62 C                     0.131602
     63 C                     0.081651
     64 C                    -0.305576
     65 H                     0.207048
     66 C                    -0.261601
     67 H                     0.217056
     68 C                     0.144775
     69 C                    -0.394222
     70 H                     0.212708
     71 C                     0.126152
     72 C                    -0.390938
     73 H                     0.210355
     74 C                     0.143494
     75 C                    -0.259999
     76 H                     0.217003
     77 C                    -0.305733
     78 H                     0.207059
     79 C                     0.083947
     80 C                    -0.718749
     81 H                     0.243468
     82 H                     0.239767
     83 H                     0.230418
     84 C                    -0.718521
     85 H                     0.240172
     86 H                     0.238697
     87 H                     0.232742
     88 B                     0.622310
     89 C                    -0.112789
     90 C                    -0.422343
     91 H                     0.236808
     92 C                     0.116688
     93 C                     0.116971
     94 C                    -0.427208
     95 H                     0.239450
     96 C                    -0.109129
     97 C                     0.130356
     98 C                    -0.390995
     99 H                     0.211473
    100 C                     0.147715
    101 C                    -0.263338
    102 H                     0.216910
    103 C                    -0.306296
    104 H                     0.206953
    105 C                     0.082330
    106 C                     0.124275
    107 C                    -0.387372
    108 H                     0.208166
    109 C                     0.145719
    110 C                    -0.260306
    111 H                     0.216948
    112 C                    -0.306749
    113 H                     0.207140
    114 C                     0.085836
    115 C                    -0.717705
    116 H                     0.239716
    117 H                     0.235243
    118 H                     0.235800
    119 C                    -0.715435
    120 H                     0.232649
    121 H                     0.236714
    122 H                     0.236972
    123 C                    -0.202682
    124 C                     0.063926
    125 C                    -0.284083
    126 H                     0.226883
    127 C                     0.156052
    128 C                    -0.272641
    129 H                     0.229775
    130 C                     0.045285
    131 N                    -0.703693
    132 C                     0.306769
    133 C                     0.307323
    134 C                     0.141484
    135 C                    -0.290305
    136 H                     0.206110
    137 C                    -0.234363
    138 H                     0.206813
    139 C                    -0.233625
    140 H                     0.218943
    141 C                    -0.305630
    142 H                     0.250237
    143 C                     0.140954
    144 C                    -0.290991
    145 H                     0.206281
    146 C                    -0.233769
    147 H                     0.207473
    148 C                    -0.231920
    149 H                     0.214289
    150 C                    -0.301539
    151 H                     0.247867
    152 C                    -0.543016
    153 H                     0.249811
    154 H                     0.232185
    155 C                    -0.207976
    156 C                    -0.555809
    157 H                     0.260604
    158 H                     0.236279
    159 C                    -0.649384
    160 H                     0.241211
    161 H                     0.224379
    162 H                     0.219010
    163 C                    -0.649148
    164 H                     0.249211
    165 H                     0.219364
    166 H                     0.222091
    167 C                    -0.598174
    168 H                     0.215536
    169 H                     0.215289
    170 H                     0.233534
    171 C                    -0.597096
    172 H                     0.215499
    173 H                     0.215240
    174 H                     0.233995
  ----------------------------------------
  Sum of atomic charges =    -0.000000

                    Cartesian Multipole Moments
 -----------------------------------------------------------------
    Charge (ESU x 10^10)
                -0.0000
    Dipole Moment (Debye)
         X       0.3446      Y      -0.4815      Z       0.5225
       Tot       0.7897
    Quadrupole Moments (Debye-Ang)
        XX    -521.8803     XY     -12.2729     YY    -554.4202
        XZ     -21.8829     YZ      17.4648     ZZ    -501.3570

 Total job time:  35871.24s(wall), 120624.05s(cpu)
        *  Thank you very much for using Q-Chem.  Have a nice day.  *
