 Q-Chem 5.0, Q-Chem, Inc., Pleasanton, CA (2017)
 Q-Chem 5.0.1 for Intel X86 EM64T Linux

User input:
--------------------------------------------------------------
$rem
threads 8
jobtype	sp
method PBEh-3c
basis def2-mSVP
mem_static	1024
mem_total	8000
sym_ignore	true
unrestricted true
scf_convergence	9
solvent_method	pcm
$end

$molecule
read incoords.mol
$end

$solvent
dielectric	1.0001
$end

$pcm
theory iefpcm
$end
--------------------------------------------------------------

   17   -2123.7984754881      6.26E-10 Convergence criterion met
 Total energy in the final basis set = -2123.79847549
 Total job time:  2386.63s(wall), 8899.97s(cpu)
        *  Thank you very much for using Q-Chem.  Have a nice day.  *
 Q-Chem 5.0, Q-Chem, Inc., Pleasanton, CA (2017)
 Q-Chem 5.0.1 for Intel X86 EM64T Linux

User input:
--------------------------------------------------------------

$rem
threads 8
jobtype opt
method PBEh-3c
basis def2-mSVP
scf_guess	read
mem_static      1024
mem_total       8000
sym_ignore      true
unrestricted true
mom_start       1
scf_algorithm	diis
scf_max_cycles	250
solvent_method	pcm
geom_opt_tol_energy 25
geom_opt_tol_gradient 75
$end

$solvent
dielectric      1.0001
$end

$pcm
theory iefpcm
$end

$occupied
1 2 3 4 5 6 7 8 9 10 11 12 13 14 15 16 17 18 19 20 21 22 23 24 25 26 27 28 29 30 31 32 33 34 35 36 37 38 39 40 41 42 43 44 45 46 47 48 49 50 51 52 53 54 55 56 57 58 59 60 61 62 63 64 65 66 67 68 69 70 71 72 73 74 75 76 77 78 79 80 81 82 83 84 85 86 87 88 89 90 91 92 93 94 95 96 97 98 99 100 101 102 103 104 105 106 107 108 109 110 111 112 113 114 115 116 117 118 119 120 121 122 123 124 125 126 127 128 129 130 131 132 133 134 135 136 137 138 139 140 141 142 143 144 145 146 147 148 149 150 151 152 153 154 155 156 157 158 159 160 161 162 163 164 165 166 167 168 169 170 171 172 173 174 175 176 177 178 179 180 181  183
1 2 3 4 5 6 7 8 9 10 11 12 13 14 15 16 17 18 19 20 21 22 23 24 25 26 27 28 29 30 31 32 33 34 35 36 37 38 39 40 41 42 43 44 45 46 47 48 49 50 51 52 53 54 55 56 57 58 59 60 61 62 63 64 65 66 67 68 69 70 71 72 73 74 75 76 77 78 79 80 81 82 83 84 85 86 87 88 89 90 91 92 93 94 95 96 97 98 99 100 101 102 103 104 105 106 107 108 109 110 111 112 113 114 115 116 117 118 119 120 121 122 123 124 125 126 127 128 129 130 131 132 133 134 135 136 137 138 139 140 141 142 143 144 145 146 147 148 149 150 151 152 153 154 155 156 157 158 159 160 161 162 163 164 165 166 167 168 169 170 171 172 173 174 175 176 177 178 179 180 181 182
$end

$molecule
read incoords.mol
$end

--------------------------------------------------------------

   36   -2123.6917487589      6.14E-09 Convergence criterion met
 Total energy in the final basis set = -2123.69174876
   31   -2123.6980727955      6.76E-09 Convergence criterion met
 Total energy in the final basis set = -2123.69807280
   29   -2123.6995356133      5.91E-09 Convergence criterion met
 Total energy in the final basis set = -2123.69953561
   35   -2123.6997609178      8.63E-09 Convergence criterion met
 Total energy in the final basis set = -2123.69976092

                    Orbital Energies (a.u.)
 --------------------------------------------------------------

 Alpha MOs
 -- Occupied --
-19.575 -19.552 -10.551 -10.527 -10.522 -10.507 -10.485 -10.480
-10.468 -10.466 -10.465 -10.461 -10.454 -10.448 -10.445 -10.445
-10.445 -10.444 -10.443 -10.442 -10.442 -10.442 -10.442 -10.442
-10.442 -10.441 -10.441 -10.441 -10.441 -10.441 -10.441 -10.439
-10.439 -10.438 -10.435 -10.435 -10.433 -10.432 -10.432 -10.432
-10.431 -10.431 -10.428 -10.427 -10.427 -10.427 -10.426 -10.423
-10.408 -10.408 -10.404 -10.404  -6.902  -6.899  -1.229  -1.208
 -0.993  -0.993  -0.981  -0.962  -0.937  -0.935  -0.913  -0.913
 -0.899  -0.887  -0.881  -0.879  -0.875  -0.864  -0.833  -0.831
 -0.827  -0.827  -0.821  -0.805  -0.798  -0.792  -0.790  -0.785
 -0.779  -0.775  -0.769  -0.762  -0.713  -0.710  -0.707  -0.699
 -0.689  -0.674  -0.668  -0.668  -0.658  -0.652  -0.650  -0.643
 -0.625  -0.624  -0.617  -0.599  -0.590  -0.582  -0.578  -0.574
 -0.572  -0.571  -0.568  -0.563  -0.555  -0.554  -0.552  -0.544
 -0.535  -0.522  -0.519  -0.508  -0.507  -0.503  -0.501  -0.493
 -0.491  -0.488  -0.486  -0.481  -0.480  -0.479  -0.474  -0.471
 -0.470  -0.469  -0.468  -0.466  -0.464  -0.463  -0.463  -0.461
 -0.459  -0.458  -0.452  -0.447  -0.446  -0.446  -0.443  -0.437
 -0.432  -0.430  -0.426  -0.422  -0.420  -0.412  -0.409  -0.408
 -0.401  -0.400  -0.397  -0.383  -0.379  -0.377  -0.377  -0.376
 -0.374  -0.373  -0.366  -0.358  -0.353  -0.353  -0.350  -0.328
 -0.326  -0.315  -0.305  -0.302  -0.295  -0.287  -0.279  -0.277
 -0.264  -0.247  -0.236  -0.233  -0.221  -0.147

 Beta MOs
 -- Occupied --
-19.578 -19.554 -10.553 -10.528 -10.522 -10.506 -10.486 -10.479
-10.469 -10.466 -10.466 -10.461 -10.458 -10.449 -10.446 -10.446
-10.445 -10.443 -10.443 -10.443 -10.442 -10.442 -10.442 -10.442
-10.442 -10.441 -10.441 -10.441 -10.441 -10.440 -10.440 -10.440
-10.439 -10.438 -10.435 -10.434 -10.434 -10.433 -10.432 -10.432
-10.430 -10.430 -10.428 -10.428 -10.427 -10.427 -10.426 -10.423
-10.409 -10.408 -10.404 -10.404  -6.899  -6.896  -1.236  -1.212
 -0.993  -0.992  -0.987  -0.966  -0.936  -0.934  -0.913  -0.913
 -0.900  -0.889  -0.882  -0.881  -0.875  -0.867  -0.832  -0.831
 -0.826  -0.826  -0.823  -0.806  -0.796  -0.792  -0.790  -0.786
 -0.780  -0.778  -0.771  -0.765  -0.712  -0.708  -0.706  -0.698
 -0.691  -0.675  -0.670  -0.668  -0.658  -0.652  -0.649  -0.642
 -0.625  -0.624  -0.619  -0.601  -0.591  -0.581  -0.579  -0.576
 -0.573  -0.572  -0.570  -0.563  -0.558  -0.555  -0.554  -0.545
 -0.536  -0.522  -0.520  -0.508  -0.507  -0.504  -0.500  -0.497
 -0.494  -0.488  -0.487  -0.483  -0.480  -0.479  -0.475  -0.471
 -0.470  -0.469  -0.468  -0.467  -0.464  -0.463  -0.462  -0.460
 -0.459  -0.458  -0.456  -0.452  -0.446  -0.446  -0.443  -0.438
 -0.436  -0.430  -0.427  -0.423  -0.421  -0.412  -0.408  -0.405
 -0.401  -0.398  -0.397  -0.391  -0.384  -0.379  -0.376  -0.374
 -0.374  -0.373  -0.373  -0.366  -0.354  -0.354  -0.343  -0.327
 -0.326  -0.324  -0.308  -0.296  -0.291  -0.289  -0.282  -0.275
 -0.275  -0.262  -0.253  -0.239  -0.233  -0.226

          Ground-State Mulliken Net Atomic Charges

     Atom                 Charge (a.u.)    Spin (a.u.)
  --------------------------------------------------------
      1 C                    -0.135158      -0.005129
      2 C                    -0.405683      -0.024705
      3 H                     0.194435       0.001575
      4 C                     0.105110       0.049056
      5 C                     0.075919       0.076822
      6 C                    -0.394187      -0.047582
      7 H                     0.205742       0.002641
      8 C                    -0.135988       0.027045
      9 C                     0.195942      -0.053947
     10 C                    -0.386198       0.078701
     11 H                     0.207223      -0.004696
     12 C                    -0.073038       0.022535
     13 C                     0.254438      -0.036241
     14 C                     0.197884      -0.046295
     15 C                    -0.396727       0.069174
     16 H                     0.202878      -0.004150
     17 C                    -0.202941      -0.049736
     18 H                     0.215933       0.002462
     19 C                    -0.341798       0.071964
     20 H                     0.210299      -0.004303
     21 C                    -0.199649      -0.045653
     22 H                     0.214427       0.002289
     23 C                    -0.346232       0.063416
     24 H                     0.210897      -0.003761
     25 B                     0.571817       0.345813
     26 B                     0.581117       0.314313
     27 C                    -0.135808       0.027417
     28 C                    -0.393946      -0.047409
     29 H                     0.206445       0.002679
     30 C                     0.076501       0.076263
     31 C                     0.102589       0.049465
     32 C                    -0.405590      -0.025447
     33 H                     0.195002       0.001677
     34 C                    -0.135112      -0.004964
     35 C                     0.200540      -0.046450
     36 C                    -0.396041       0.069382
     37 H                     0.203059      -0.004162
     38 C                    -0.075142       0.022642
     39 C                     0.251435      -0.036302
     40 C                     0.197808      -0.053792
     41 C                    -0.386342       0.078511
     42 H                     0.207034      -0.004685
     43 C                    -0.199860      -0.045682
     44 H                     0.214490       0.002289
     45 C                    -0.344944       0.063529
     46 H                     0.210961      -0.003766
     47 C                    -0.202953      -0.049608
     48 H                     0.215881       0.002457
     49 C                    -0.340469       0.071599
     50 H                     0.210291      -0.004278
     51 C                    -0.172434      -0.216797
     52 C                     0.068212      -0.009159
     53 C                    -0.429822      -0.005849
     54 H                     0.231454       0.001442
     55 C                     0.420812      -0.088899
     56 O                    -0.431224      -0.052463
     57 C                    -0.372967      -0.037967
     58 H                     0.233152       0.003064
     59 C                     0.066073       0.031749
     60 C                    -0.415357       0.005582
     61 H                     0.250446       0.000026
     62 H                     0.217791      -0.003610
     63 H                     0.217655      -0.003602
     64 C                    -0.750881       0.002100
     65 H                     0.225702       0.001970
     66 H                     0.262454      -0.002922
     67 H                     0.261490      -0.003010
     68 C                    -0.749746      -0.000628
     69 H                     0.230062       0.001960
     70 H                     0.259257      -0.001148
     71 H                     0.257251      -0.000875
     72 C                    -0.147678      -0.309619
     73 C                     0.076368      -0.023751
     74 C                    -0.425535      -0.003971
     75 H                     0.240837       0.001823
     76 C                     0.432733      -0.138364
     77 O                    -0.420398      -0.077083
     78 C                    -0.370502      -0.051268
     79 H                     0.243944       0.004153
     80 C                     0.066365       0.040562
     81 C                    -0.421939       0.008217
     82 H                     0.257970       0.000042
     83 H                     0.224774      -0.005417
     84 H                     0.224376      -0.005325
     85 C                    -0.750977      -0.000610
     86 H                     0.232734       0.002411
     87 H                     0.268061      -0.001430
     88 H                     0.266820      -0.001444
     89 C                    -0.751612       0.003615
     90 H                     0.228752       0.002557
     91 H                     0.272097      -0.004465
     92 H                     0.271138      -0.004571
  --------------------------------------------------------
  Sum of atomic charges =    -0.000000

                    Cartesian Multipole Moments
 -----------------------------------------------------------------
    Charge (ESU x 10^10)
                -0.0000
    Dipole Moment (Debye)
         X       2.4384      Y      -0.3745      Z       1.3138
       Tot       2.7950
    Quadrupole Moments (Debye-Ang)
        XX    -228.6578     XY      13.0215     YY    -310.6296
        XZ      49.3332     YZ       9.4321     ZZ    -290.9123

             Standard Nuclear Orientation (Angstroms)
    I     Atom           X                Y                Z
 ----------------------------------------------------------------
    1      C       0.0423137559     0.4966583667     0.0645320952
    2      C       0.0215576196     0.3541807640     1.4730359800
    3      H       0.9594560702     0.2481428150     2.0112525641
    4      C      -1.1665393959     0.3448786247     2.1613676364
    5      C      -2.3929303768     0.4845424443     1.4452351931
    6      C      -2.3945739689     0.6177487756     0.0814883450
    7      H      -3.3342003530     0.7132757875    -0.4551431726
    8      C      -1.1872803410     0.6251243313    -0.6422688335
    9      C      -3.4919390254     0.4319840009     2.3979490704
   10      C      -4.8586187780     0.5083859103     2.3032159328
   11      H      -5.3576761122     0.6444779030     1.3515343711
   12      C      -2.9080815227     0.2552798768     3.6662532700
   13      C      -3.6383923784     0.1453023431     4.8454188175
   14      C      -1.5013545523     0.1959917037     3.5792771911
   15      C      -0.7958299229     0.0154600574     4.7407389614
   16      H       0.2853085102    -0.0443943920     4.7479030742
   17      C      -5.6234406691     0.4040642452     3.4859416531
   18      H      -6.7020085304     0.4645393436     3.4125831419
   19      C      -5.0471975992     0.2270044942     4.7224907420
   20      H      -5.6733742939     0.1495861663     5.6028899542
   21      C      -1.5085663491    -0.0994458957     5.9570901913
   22      H      -0.9462914689    -0.2430509215     6.8708361908
   23      C      -2.8810338790    -0.0385041003     6.0256399124
   24      H      -3.3800696514    -0.1332633978     6.9821894684
   25      B       1.3592723809     0.4927005663    -0.7186415515
   26      B      -1.2049435948     0.7497151393    -2.1702673164
   27      C       0.1236318556     0.7676177977    -2.9338315153
   28      C       0.1333303589     0.8783017256    -4.3371730484
   29      H      -0.8084071683     0.9736439009    -4.8696199979
   30      C       1.3124114809     0.8531310081    -5.0337433063
   31      C       2.5574695679     0.7210611424    -4.3490678348
   32      C       2.5676957139     0.6211076860    -2.9808914234
   33      H       3.5117114299     0.5165905502    -2.4533247483
   34      C       1.3598938813     0.6397415285    -2.2434562760
   35      C       3.6174398519     0.6887652542    -5.3603588764
   36      C       4.9831953380     0.5619386203    -5.3506962644
   37      H       5.5412498715     0.4671597351    -4.4275076677
   38      C       2.9742522862     0.7982066925    -6.6112353562
   39      C       3.6257868492     0.7820851418    -7.8422415585
   40      C       1.5771609020     0.9042036234    -6.4665553131
   41      C       0.8027116383     1.0039107000    -7.5957983763
   42      H      -0.2761354851     1.0851249205    -7.5428628128
   43      C       5.6739701657     0.5476372981    -6.5850574256
   44      H       6.7516359687     0.4460484426    -6.5700623091
   45      C       5.0336718846     0.6518806169    -7.7976577293
   46      H       5.6068030966     0.6309294428    -8.7165928183
   47      C       1.4404630778     0.9945829051    -8.8567627938
   48      H       0.8291613178     1.0724058830    -9.7470647771
   49      C       2.8049005377     0.8865020478    -8.9917756413
   50      H       3.2512839489     0.8786143525    -9.9787560320
   51      C      -2.5667414037     0.8087117540    -2.9608449364
   52      C      -3.1695427196    -0.3788322751    -3.4318631281
   53      C      -4.3588935251    -0.3385282357    -4.1394258133
   54      H      -4.7925789517    -1.2666076713    -4.4892731330
   55      C      -4.9806334182     0.8850602837    -4.3942478884
   56      O      -6.1281616235     1.0220095235    -5.0626314628
   57      C      -4.3934964950     2.0717607455    -3.9344233489
   58      H      -4.8918158080     3.0103172696    -4.1451948053
   59      C      -3.2083509215     2.0396573427    -3.2333411467
   60      C      -6.7771531463    -0.1228580822    -5.5659036766
   61      H      -7.6767592660     0.2294819644    -6.0641194535
   62      H      -6.1583253921    -0.6568695692    -6.2920307300
   63      H      -7.0629932365    -0.8135629646    -4.7681461881
   64      C      -2.5067806042    -1.6962943073    -3.1658365492
   65      H      -3.0808812815    -2.5298018700    -3.5701317950
   66      H      -1.5085332049    -1.7267712221    -3.6064938496
   67      H      -2.3794301188    -1.8586254341    -2.0940387027
   68      C      -2.5828742120     3.3114962770    -2.7465852335
   69      H      -3.1529845563     4.1880771908    -3.0521405419
   70      H      -1.5662383032     3.4164970294    -3.1292983179
   71      H      -2.5103247577     3.3158218678    -1.6574385910
   72      C       2.7163333146     0.2985371950     0.0375678355
   73      C       3.4389110641     1.4222438363     0.5230961532
   74      C       4.6312377396     1.2522500898     1.1933654852
   75      H       5.1622830147     2.1215843833     1.5578201896
   76      C       5.1355378497    -0.0401665399     1.3932971385
   77      O       6.2692532506    -0.3054788027     2.0268994627
   78      C       4.4329666390    -1.1631217919     0.9122540744
   79      H       4.8533590679    -2.1466095993     1.0828456511
   80      C       3.2449371841    -1.0049464566     0.2453549684
   81      C       7.0467098078     0.7501147326     2.5526047316
   82      H       7.9164608407     0.2879011099     3.0111021892
   83      H       6.5011529165     1.3122693186     3.3142335623
   84      H       7.3805219993     1.4356193023     1.7703761401
   85      C       2.4878297146    -2.1887870852    -0.2708812947
   86      H       2.9994173815    -3.1251444347    -0.0520028630
   87      H       2.3469492329    -2.1176143010    -1.3507011817
   88      H       1.4900811858    -2.2305785432     0.1697842409
   89      C       2.8815884088     2.7900695721     0.2924523414
   90      H       3.5281379699     3.5695352119     0.6935178692
   91      H       2.7391975123     2.9719728903    -0.7744956904
   92      H       1.8962371593     2.8868329869     0.7531050073
 ----------------------------------------------------------------
