 Q-Chem 5.0, Q-Chem, Inc., Pleasanton, CA (2017)
 Q-Chem 5.0.1 for Intel X86 EM64T Linux

User input:
--------------------------------------------------------------
$rem
threads 8
jobtype	sp
method PBEh-3c
basis def2-mSVP
mem_static	1024
mem_total	8000
sym_ignore	true
unrestricted true
scf_convergence	9
solvent_method	pcm
$end

$molecule
read incoords.mol
$end

$solvent
dielectric	2.03
$end

$pcm
theory iefpcm
$end
--------------------------------------------------------------

   17   -2123.7987291665      4.43E-10 Convergence criterion met
 Total energy in the final basis set = -2123.79872917
 Total job time:  2777.50s(wall), 10180.70s(cpu)
        *  Thank you very much for using Q-Chem.  Have a nice day.  *
 Q-Chem 5.0, Q-Chem, Inc., Pleasanton, CA (2017)
 Q-Chem 5.0.1 for Intel X86 EM64T Linux

User input:
--------------------------------------------------------------

$rem
threads 8
jobtype opt
method PBEh-3c
basis def2-mSVP
scf_guess	read
mem_static      1024
mem_total       8000
sym_ignore      true
unrestricted true
mom_start       1
scf_algorithm	diis
scf_max_cycles	250
solvent_method	pcm
geom_opt_tol_energy 25
geom_opt_tol_gradient 75
$end

$solvent
dielectric      2.03
$end
$pcm
theory iefpcm
$end

$occupied
1 2 3 4 5 6 7 8 9 10 11 12 13 14 15 16 17 18 19 20 21 22 23 24 25 26 27 28 29 30 31 32 33 34 35 36 37 38 39 40 41 42 43 44 45 46 47 48 49 50 51 52 53 54 55 56 57 58 59 60 61 62 63 64 65 66 67 68 69 70 71 72 73 74 75 76 77 78 79 80 81 82 83 84 85 86 87 88 89 90 91 92 93 94 95 96 97 98 99 100 101 102 103 104 105 106 107 108 109 110 111 112 113 114 115 116 117 118 119 120 121 122 123 124 125 126 127 128 129 130 131 132 133 134 135 136 137 138 139 140 141 142 143 144 145 146 147 148 149 150 151 152 153 154 155 156 157 158 159 160 161 162 163 164 165 166 167 168 169 170 171 172 173 174 175 176 177 178 179 180 181  183
1 2 3 4 5 6 7 8 9 10 11 12 13 14 15 16 17 18 19 20 21 22 23 24 25 26 27 28 29 30 31 32 33 34 35 36 37 38 39 40 41 42 43 44 45 46 47 48 49 50 51 52 53 54 55 56 57 58 59 60 61 62 63 64 65 66 67 68 69 70 71 72 73 74 75 76 77 78 79 80 81 82 83 84 85 86 87 88 89 90 91 92 93 94 95 96 97 98 99 100 101 102 103 104 105 106 107 108 109 110 111 112 113 114 115 116 117 118 119 120 121 122 123 124 125 126 127 128 129 130 131 132 133 134 135 136 137 138 139 140 141 142 143 144 145 146 147 148 149 150 151 152 153 154 155 156 157 158 159 160 161 162 163 164 165 166 167 168 169 170 171 172 173 174 175 176 177 178 179 180 181 182
$end

$molecule
read incoords.mol
$end

--------------------------------------------------------------

   21   -2123.7148152383      7.34E-09 Convergence criterion met
 Total energy in the final basis set = -2123.71481524
   16   -2123.7152448423      9.64E-09 Convergence criterion met
 Total energy in the final basis set = -2123.71524484
   16   -2123.7153796332      8.44E-09 Convergence criterion met
 Total energy in the final basis set = -2123.71537963
   16   -2123.7154681454      7.93E-09 Convergence criterion met
 Total energy in the final basis set = -2123.71546815
   16   -2123.7155540152      6.99E-09 Convergence criterion met
 Total energy in the final basis set = -2123.71555402
   16   -2123.7156500982      7.08E-09 Convergence criterion met
 Total energy in the final basis set = -2123.71565010
   16   -2123.7156756421      7.58E-09 Convergence criterion met
   16   -2123.7167390152      7.70E-09 Convergence criterion met
 Total energy in the final basis set = -2123.71673902
   16   -2123.7169603439      8.11E-09 Convergence criterion met
 Total energy in the final basis set = -2123.71696034
   16   -2123.7170243464      8.54E-09 Convergence criterion met
 Total energy in the final basis set = -2123.71702435
   16   -2123.7170138469      7.66E-09 Convergence criterion met
 Total energy in the final basis set = -2123.71701385
   16   -2123.7170024213      7.97E-09 Convergence criterion met
 Total energy in the final basis set = -2123.71700242
   16   -2123.7170008203      7.92E-09 Convergence criterion met
 Total energy in the final basis set = -2123.71700082

             Standard Nuclear Orientation (Angstroms)
    I     Atom           X                Y                Z
 ----------------------------------------------------------------
    1      C       2.4778619875    -1.5834418236     0.3801255791
    2      C       3.4534503811    -1.2711665820    -0.6152718082
    3      B       4.4751688486    -2.3369988770    -1.0010940556
    4      C       4.5089228547    -3.6986433832    -0.3115502182
    5      C       3.5207035835    -4.0045960803     0.6716778391
    6      B       2.4570152042    -2.9644725306     1.0603629345
    7      C       5.4446551803    -4.6916868840    -0.6824800009
    8      C       5.3923105099    -5.9425285807    -0.1245990654
    9      C       4.3850993633    -6.2573299893     0.8349442141
   10      C       3.4836507047    -5.2969356198     1.2274964137
   11      C       1.4678559669    -0.6467512726     0.6631562648
   12      C       1.4076949140     0.5495906225    -0.0112187863
   13      C       2.3951726768     0.8740600395    -0.9877078313
   14      C       3.3924287561    -0.0229397988    -1.2775442126
   15      C       7.2178525125    -7.4933836783    -1.1965198598
   16      C       7.6747228363    -8.8316741102    -1.1997393206
   17      C       7.0998200681    -9.8114845619    -0.4233812367
   18      C       6.0102802433    -9.4952691994     0.4231286710
   19      C       5.5950553374    -8.1655180962     0.4211047863
   20      C       6.1689427678    -7.1570799447    -0.3778761631
   21      C       5.2733566675   -10.3819464026     1.2462333844
   22      C       4.2080107592    -9.9119360170     1.9789284090
   23      C       3.8045427300    -8.5563465435     1.9546635390
   24      C       4.5064517460    -7.6739054993     1.1706931786
   25      C       1.8313892870     4.1249852287    -2.9422125926
   26      C       2.5401863892     2.9559108647    -2.5794483233
   27      C       2.0291167956     2.1593800395    -1.5860245861
   28      C       0.8212494094     2.5501601196    -0.9729501628
   29      C       0.0877592198     3.6789751153    -1.3275512865
   30      C       0.6421658926     4.4854038768    -2.3506187776
   31      C       0.4050081714     1.6074876575    -0.0109168658
   32      C      -0.7930656140     1.8078665641     0.6279845738
   33      C      -1.5534451526     2.9522459067     0.2939066129
   34      C      -1.1417917891     3.8659885610    -0.6489878548
   35      C       7.5530846381    -1.4073578535    -3.1760243043
   36      C       6.7389451822    -1.5764716737    -2.0891432014
   37      C       5.4140839720    -2.1171102709    -2.2420727130
   38      C       4.9560619252    -2.4871723801    -3.5523590096
   39      C       5.7769865426    -2.3100020791    -4.6257895831
   40      C       7.0801433141    -1.7703148668    -4.4554907361
   41      C       7.1967095929    -1.2156378000    -0.7180727062
   42      C       3.5886618884    -3.0652159766    -3.7162121832
   43      O       7.7732583902    -1.6484468569    -5.5552845239
   44      C       9.1014805429    -1.1299471165    -5.5424523212
   45      C       0.4911209937    -3.4332424039     4.3696735828
   46      C       1.4908093081    -3.1054083618     3.4669881455
   47      C       1.3212666409    -3.3367470327     2.0935838410
   48      C       0.1221003415    -3.9092941435     1.6628142485
   49      C      -0.8831080847    -4.2370114770     2.5732730357
   50      C      -0.7020252666    -3.9980672081     3.9286420732
   51      C       2.7734925473    -2.4977989367     3.9609133325
   52      C      -0.0981335374    -4.1851245762     0.2002275495
   53      O      -1.6206299236    -4.2783456419     4.8821009878
   54      C      -2.8557298742    -4.8125410184     4.4822291562
   55      H       6.1984082582    -4.4770461550    -1.4354634920
   56      H       2.7122432961    -5.5352330070     1.9528206698
   57      H       0.7078090890    -0.9000901516     1.3952545516
   58      H       4.1211232444     0.2158700114    -2.0477169276
   59      H       7.6932735281    -6.7670779774    -1.8442063100
   60      H       8.5014868715    -9.0947030838    -1.8475033715
   61      H       7.4734181666   -10.8274531274    -0.4691916765
   62      H       5.5402056477   -11.4310304571     1.2896278656
   63      H       3.6489913418   -10.6050110459     2.5949817528
   64      H       2.9491387077    -8.2439298319     2.5406875051
   65      H       2.2355318222     4.7503192187    -3.7282380766
   66      H       3.4571405836     2.7050074052    -3.0985409084
   67      H       0.1256690410     5.3802424276    -2.6761482738
   68      H      -1.1717104019     1.1080077675     1.3627565074
   69      H      -2.5008016229     3.1065600984     0.7948597514
   70      H      -1.7644137189     4.7215958489    -0.8806612978
   71      H       8.5468518538    -1.0003090626    -3.0474614154
   72      H       5.4620881597    -2.5765518919    -5.6273917243
   73      H       8.2033102044    -0.8016779054    -0.7170317682
   74      H       7.1763246977    -2.0938883488    -0.0694230170
   75      H       6.5164718703    -0.4904810601    -0.2672578672
   76      H       3.3779522444    -3.3065693843    -4.7568104207
   77      H       2.8284281478    -2.3686327834    -3.3602540083
   78      H       3.4811820440    -3.9729187425    -3.1203128270
   79      H       9.4355859275    -1.1473934188    -6.5747755241
   80      H       9.7598332981    -1.7543507439    -4.9380196798
   81      H       9.1175822703    -0.1039673589    -5.1739585656
   82      H       0.6256439498    -3.2492975878     5.4294506109
   83      H      -1.7995928408    -4.6764312194     2.1991928529
   84      H       2.9646961994    -1.5361383142     3.4805725633
   85      H       3.6266167138    -3.1396621123     3.7309873530
   86      H       2.7581691353    -2.3364204233     5.0386973729
   87      H       0.6341525547    -4.8989452054    -0.1830683852
   88      H       0.0047176197    -3.2767297924    -0.3966199455
   89      H      -1.0903362689    -4.5953278386     0.0098944991
   90      H      -3.4462103341    -4.9451436104     5.3867096706
   91      H      -3.3994420958    -4.1431960294     3.8076143057
   92      H      -2.7499585484    -5.7857185534     3.9918285875
 ----------------------------------------------------------------

   16   -2123.7170004709      8.37E-09 Convergence criterion met
 Total energy in the final basis set = -2123.71700047
 Final energy is   -2123.71700047087
 **  OPTIMIZATION CONVERGED  **

                    Orbital Energies (a.u.)
 --------------------------------------------------------------

 Alpha MOs
 -- Occupied --
-19.609 -19.512 -10.590 -10.534 -10.517 -10.507 -10.496 -10.494
-10.493 -10.485 -10.476 -10.453 -10.451 -10.450 -10.450 -10.449
-10.448 -10.448 -10.447 -10.447 -10.447 -10.446 -10.445 -10.445
-10.445 -10.445 -10.444 -10.444 -10.444 -10.444 -10.443 -10.440
-10.440 -10.438 -10.438 -10.436 -10.435 -10.434 -10.433 -10.432
-10.432 -10.429 -10.429 -10.417 -10.414 -10.414 -10.413 -10.410
-10.408 -10.405 -10.404 -10.394  -6.907  -6.898  -1.263  -1.167
 -1.006  -0.998  -0.998  -0.942  -0.939  -0.935  -0.925  -0.918
 -0.918  -0.904  -0.887  -0.879  -0.854  -0.844  -0.839  -0.836
 -0.833  -0.832  -0.831  -0.805  -0.803  -0.799  -0.794  -0.790
 -0.783  -0.774  -0.748  -0.739  -0.718  -0.715  -0.711  -0.707
 -0.703  -0.690  -0.672  -0.663  -0.662  -0.647  -0.640  -0.639
 -0.628  -0.627  -0.626  -0.614  -0.596  -0.586  -0.578  -0.577
 -0.572  -0.569  -0.567  -0.561  -0.558  -0.554  -0.542  -0.537
 -0.526  -0.522  -0.521  -0.517  -0.512  -0.511  -0.508  -0.504
 -0.500  -0.490  -0.488  -0.485  -0.478  -0.478  -0.476  -0.475
 -0.473  -0.473  -0.468  -0.468  -0.466  -0.465  -0.463  -0.462
 -0.456  -0.455  -0.451  -0.449  -0.447  -0.444  -0.441  -0.439
 -0.427  -0.424  -0.423  -0.422  -0.415  -0.414  -0.407  -0.406
 -0.404  -0.399  -0.387  -0.385  -0.382  -0.382  -0.382  -0.380
 -0.377  -0.371  -0.360  -0.357  -0.354  -0.353  -0.342  -0.333
 -0.331  -0.320  -0.319  -0.307  -0.300  -0.284  -0.282  -0.269
 -0.259  -0.252  -0.241  -0.237  -0.231  -0.151

 Beta MOs
 -- Occupied --
-19.614 -19.512 -10.594 -10.534 -10.517 -10.506 -10.501 -10.497
-10.495 -10.485 -10.476 -10.453 -10.451 -10.451 -10.449 -10.449
-10.448 -10.448 -10.448 -10.447 -10.446 -10.446 -10.446 -10.445
-10.445 -10.445 -10.445 -10.444 -10.443 -10.443 -10.443 -10.440
-10.440 -10.437 -10.437 -10.435 -10.434 -10.434 -10.433 -10.432
-10.432 -10.430 -10.429 -10.417 -10.415 -10.415 -10.413 -10.410
-10.408 -10.403 -10.403 -10.394  -6.903  -6.896  -1.273  -1.167
 -1.016  -0.998  -0.997  -0.941  -0.938  -0.934  -0.927  -0.917
 -0.917  -0.913  -0.886  -0.879  -0.853  -0.847  -0.839  -0.835
 -0.833  -0.831  -0.831  -0.808  -0.807  -0.798  -0.794  -0.793
 -0.782  -0.774  -0.747  -0.739  -0.719  -0.715  -0.710  -0.709
 -0.702  -0.692  -0.672  -0.662  -0.660  -0.645  -0.643  -0.639
 -0.628  -0.628  -0.625  -0.617  -0.607  -0.596  -0.577  -0.576
 -0.571  -0.569  -0.567  -0.561  -0.558  -0.554  -0.541  -0.539
 -0.528  -0.521  -0.521  -0.518  -0.517  -0.512  -0.509  -0.508
 -0.499  -0.491  -0.489  -0.484  -0.481  -0.479  -0.477  -0.476
 -0.475  -0.472  -0.472  -0.467  -0.467  -0.465  -0.463  -0.462
 -0.456  -0.455  -0.451  -0.449  -0.447  -0.445  -0.441  -0.438
 -0.430  -0.425  -0.424  -0.423  -0.415  -0.414  -0.412  -0.406
 -0.404  -0.403  -0.398  -0.385  -0.383  -0.380  -0.380  -0.379
 -0.377  -0.373  -0.358  -0.358  -0.354  -0.347  -0.343  -0.336
 -0.331  -0.327  -0.319  -0.305  -0.300  -0.296  -0.280  -0.280
 -0.259  -0.258  -0.244  -0.238  -0.231  -0.231

          Ground-State Mulliken Net Atomic Charges

     Atom                 Charge (a.u.)    Spin (a.u.)
  --------------------------------------------------------
      1 C                    -0.146038       0.085323
      2 C                    -0.129676      -0.049175
      3 B                     0.541389       0.412255
      4 C                    -0.127075      -0.048000
      5 C                    -0.148478       0.085085
      6 B                     0.591323       0.249932
      7 C                    -0.405400       0.011925
      8 C                     0.080129       0.008628
      9 C                     0.075659       0.115535
     10 C                    -0.400067      -0.076723
     11 C                    -0.397915      -0.076912
     12 C                     0.076083       0.117174
     13 C                     0.079441       0.006803
     14 C                    -0.407914       0.015123
     15 C                    -0.398780       0.056187
     16 C                    -0.215384      -0.039240
     17 C                    -0.350468       0.052698
     18 C                     0.236920      -0.035523
     19 C                    -0.072957       0.022504
     20 C                     0.188563      -0.035888
     21 C                    -0.351252       0.079620
     22 C                    -0.214576      -0.053835
     23 C                    -0.397420       0.088705
     24 C                     0.187530      -0.062064
     25 C                    -0.214992      -0.039288
     26 C                    -0.399142       0.055991
     27 C                     0.185811      -0.035672
     28 C                    -0.071553       0.022722
     29 C                     0.237201      -0.035746
     30 C                    -0.350892       0.052583
     31 C                     0.184287      -0.062795
     32 C                    -0.394322       0.089664
     33 C                    -0.215286      -0.054419
     34 C                    -0.351227       0.080812
     35 C                    -0.412672      -0.026317
     36 C                     0.101979      -0.023940
     37 C                    -0.121539      -0.540689
     38 C                     0.065660       0.081412
     39 C                    -0.367335      -0.100403
     40 C                     0.463562      -0.224342
     41 C                    -0.752994       0.004664
     42 C                    -0.753484      -0.002333
     43 O                    -0.393555      -0.134990
     44 C                    -0.441935       0.013696
     45 C                    -0.393183      -0.000582
     46 C                     0.055578       0.002709
     47 C                    -0.199705      -0.023204
     48 C                     0.045325       0.002545
     49 C                    -0.445707      -0.000311
     50 C                     0.391295      -0.000212
     51 C                    -0.757819       0.000733
     52 C                    -0.757082       0.000438
     53 O                    -0.465204      -0.000175
     54 C                    -0.413036       0.000019
     55 H                     0.186856      -0.000230
     56 H                     0.230800       0.003204
     57 H                     0.230881       0.003247
     58 H                     0.187759      -0.000796
     59 H                     0.210492      -0.003349
     60 H                     0.227280       0.001974
     61 H                     0.225798      -0.003063
     62 H                     0.224992      -0.004741
     63 H                     0.231793       0.002602
     64 H                     0.229413      -0.005205
     65 H                     0.227393       0.001978
     66 H                     0.211782      -0.003332
     67 H                     0.225687      -0.003054
     68 H                     0.229510      -0.005257
     69 H                     0.231624       0.002630
     70 H                     0.224704      -0.004816
     71 H                     0.277779       0.003919
     72 H                     0.278631       0.007558
     73 H                     0.246823       0.003317
     74 H                     0.284857      -0.006243
     75 H                     0.284309      -0.006004
     76 H                     0.248312       0.002885
     77 H                     0.281740      -0.001091
     78 H                     0.283022      -0.001351
     79 H                     0.281901       0.000041
     80 H                     0.250678      -0.008974
     81 H                     0.250931      -0.008996
     82 H                     0.221011       0.000338
     83 H                     0.227180       0.000269
     84 H                     0.245051      -0.000750
     85 H                     0.243666      -0.000615
     86 H                     0.231375       0.001341
     87 H                     0.243995      -0.000599
     88 H                     0.245991      -0.000769
     89 H                     0.227580       0.001240
     90 H                     0.241182       0.000007
     91 H                     0.208083      -0.000011
     92 H                     0.207472      -0.000010
  --------------------------------------------------------
  Sum of atomic charges =    -0.000000

                    Cartesian Multipole Moments
 -----------------------------------------------------------------
    Charge (ESU x 10^10)
                -0.0000
    Dipole Moment (Debye)
         X      10.5973      Y       2.6076      Z     -12.7950
       Tot      16.8171
    Quadrupole Moments (Debye-Ang)
        XX    -161.0372     XY       7.1937     YY    -324.4626
        XZ    -101.6508     YZ      17.0197     ZZ    -265.0681

 Total job time:  50958.46s(wall), 190041.53s(cpu)
        *  Thank you very much for using Q-Chem.  Have a nice day.  *
