 Q-Chem 5.0, Q-Chem, Inc., Pleasanton, CA (2017)
 Q-Chem 5.0.1 for Intel X86 EM64T Linux

User input:
--------------------------------------------------------------
$rem
threads 8
jobtype	sp
method PBEh-3c
basis def2-mSVP
mem_static	1024
mem_total	8000
sym_ignore	true
unrestricted true
scf_convergence	9
solvent_method	pcm
$end

$molecule
read incoords.mol
$end

$solvent
dielectric	8.93
$end

$pcm
theory iefpcm
$end
--------------------------------------------------------------

   16   -2123.8241486538      9.47E-10 Convergence criterion met
 Total energy in the final basis set = -2123.82414865
 Total job time:  2230.31s(wall), 8419.56s(cpu)
        *  Thank you very much for using Q-Chem.  Have a nice day.  *
 Q-Chem 5.0, Q-Chem, Inc., Pleasanton, CA (2017)
 Q-Chem 5.0.1 for Intel X86 EM64T Linux

User input:
--------------------------------------------------------------

$rem
threads 8
jobtype opt
method PBEh-3c
basis def2-mSVP
scf_guess	read
mem_static      1024
mem_total       8000
sym_ignore      true
unrestricted true
mom_start       1
scf_algorithm	diis
scf_max_cycles	250
solvent_method	pcm
geom_opt_tol_energy 25
geom_opt_tol_gradient 75
$end

$solvent
dielectric      8.93
$end
$pcm
theory iefpcm
$end

$occupied
1 2 3 4 5 6 7 8 9 10 11 12 13 14 15 16 17 18 19 20 21 22 23 24 25 26 27 28 29 30 31 32 33 34 35 36 37 38 39 40 41 42 43 44 45 46 47 48 49 50 51 52 53 54 55 56 57 58 59 60 61 62 63 64 65 66 67 68 69 70 71 72 73 74 75 76 77 78 79 80 81 82 83 84 85 86 87 88 89 90 91 92 93 94 95 96 97 98 99 100 101 102 103 104 105 106 107 108 109 110 111 112 113 114 115 116 117 118 119 120 121 122 123 124 125 126 127 128 129 130 131 132 133 134 135 136 137 138 139 140 141 142 143 144 145 146 147 148 149 150 151 152 153 154 155 156 157 158 159 160 161 162 163 164 165 166 167 168 169 170 171 172 173 174 175 176 177 178 179 180 181  183
1 2 3 4 5 6 7 8 9 10 11 12 13 14 15 16 17 18 19 20 21 22 23 24 25 26 27 28 29 30 31 32 33 34 35 36 37 38 39 40 41 42 43 44 45 46 47 48 49 50 51 52 53 54 55 56 57 58 59 60 61 62 63 64 65 66 67 68 69 70 71 72 73 74 75 76 77 78 79 80 81 82 83 84 85 86 87 88 89 90 91 92 93 94 95 96 97 98 99 100 101 102 103 104 105 106 107 108 109 110 111 112 113 114 115 116 117 118 119 120 121 122 123 124 125 126 127 128 129 130 131 132 133 134 135 136 137 138 139 140 141 142 143 144 145 146 147 148 149 150 151 152 153 154 155 156 157 158 159 160 161 162 163 164 165 166 167 168 169 170 171 172 173 174 175 176 177 178 179 180 181 182
$end

$molecule
read incoords.mol
$end

--------------------------------------------------------------

   24   -2123.7229896725      6.60E-09 Convergence criterion met
 Total energy in the final basis set = -2123.72298967
   20   -2123.7303127142      6.88E-09 Convergence criterion met
 Total energy in the final basis set = -2123.73031271
   19   -2123.7318556187      8.08E-09 Convergence criterion met
 Total energy in the final basis set = -2123.73185562
   20   -2123.7320839568      5.47E-09 Convergence criterion met
 Total energy in the final basis set = -2123.73208396
   18   -2123.7320585823      9.31E-09 Convergence criterion met
 Total energy in the final basis set = -2123.73205858

             Standard Nuclear Orientation (Angstroms)
    I     Atom           X                Y                Z
 ----------------------------------------------------------------
    1      C       0.0349081896     0.4718077642     0.0645598534
    2      C       0.0151045393     0.3418220047     1.4728610745
    3      H       0.9529855143     0.2408950271     2.0110957653
    4      C      -1.1754512257     0.3370957433     2.1620997986
    5      C      -2.4034102840     0.4690985982     1.4459377539
    6      C      -2.4065196782     0.5929746433     0.0798836063
    7      H      -3.3487260126     0.6862147146    -0.4527497457
    8      C      -1.1975219025     0.5962644058    -0.6431647494
    9      C      -3.5022203521     0.4235796468     2.4012735639
   10      C      -4.8705811444     0.4960011592     2.3079688819
   11      H      -5.3730568002     0.6221726652     1.3564586547
   12      C      -2.9146504916     0.2597318214     3.6704426202
   13      C      -3.6426027710     0.1587678315     4.8531396158
   14      C      -1.5070607601     0.2017149066     3.5822330567
   15      C      -0.7969822082     0.0344629388     4.7446477376
   16      H       0.2844893115    -0.0212094262     4.7507476804
   17      C      -5.6328569262     0.4000722631     3.4946214487
   18      H      -6.7117716979     0.4569100714     3.4224591858
   19      C      -5.0530546417     0.2356626189     4.7330037033
   20      H      -5.6766300695     0.1646099871     5.6159362639
   21      C      -1.5085582342    -0.0701830175     5.9642120883
   22      H      -0.9437165733    -0.2026814568     6.8781045137
   23      C      -2.8826049747    -0.0123025596     6.0351326687
   24      H      -3.3804623656    -0.0988914160     6.9932151759
   25      B       1.3602818221     0.4627908167    -0.7122606191
   26      B      -1.2139199872     0.7189355046    -2.1718791059
   27      C       0.1153324826     0.7366878626    -2.9352937035
   28      C       0.1245010958     0.8527003277    -4.3392507430
   29      H      -0.8149182222     0.9477540023    -4.8758937047
   30      C       1.3061231135     0.8348922964    -5.0343856109
   31      C       2.5503598488     0.7044949354    -4.3469156613
   32      C       2.5603623363     0.5986500574    -2.9764009650
   33      H       3.5038097060     0.4957530116    -2.4486666435
   34      C       1.3526969562     0.6103146908    -2.2411893210
   35      C       3.6140116758     0.6848069878    -5.3545757611
   36      C       4.9819069932     0.5656246830    -5.3390798309
   37      H       5.5369641657     0.4669132844    -4.4144067908
   38      C       2.9737047475     0.8020213277    -6.6071401058
   39      C       3.6307794625     0.8017209598    -7.8363245130
   40      C       1.5747777948     0.8991034840    -6.4670825436
   41      C       0.8025992968     1.0056839989    -7.5988764029
   42      H      -0.2771104504     1.0808336434    -7.5503581171
   43      C       5.6772974662     0.5667204601    -6.5725946450
   44      H       6.7555151135     0.4714436184    -6.5541932708
   45      C       5.0404912826     0.6791555966    -7.7881398950
   46      H       5.6165820803     0.6705627460    -8.7055893309
   47      C       1.4463771545     1.0118456022    -8.8582736422
   48      H       0.8376272715     1.0946048391    -9.7499569530
   49      C       2.8134659815     0.9129676879    -8.9892385320
   50      H       3.2641156014     0.9175862403    -9.9744283334
   51      C      -2.5752058753     0.7931106306    -2.9630511612
   52      C      -3.1901444066    -0.3926001287    -3.4397454528
   53      C      -4.3730702095    -0.3403834803    -4.1514880447
   54      H      -4.8175974926    -1.2611113828    -4.5063051120
   55      C      -4.9788486465     0.8957596402    -4.4072958707
   56      O      -6.1130106616     1.0470918297    -5.0772323163
   57      C      -4.3805635813     2.0809358409    -3.9415859839
   58      H      -4.8655727909     3.0265750696    -4.1527024699
   59      C      -3.2021750943     2.0354116009    -3.2339267568
   60      C      -6.7871619069    -0.0915662056    -5.5916933415
   61      H      -7.6780192762     0.2826803537    -6.0877892235
   62      H      -6.1714520829    -0.6264215536    -6.3173520927
   63      H      -7.0818324473    -0.7759739517    -4.7940015339
   64      C      -2.5459956757    -1.7186085317    -3.1741417646
   65      H      -3.1322505854    -2.5415709518    -3.5810795597
   66      H      -1.5483617476    -1.7626535501    -3.6153280065
   67      H      -2.4222450081    -1.8860930775    -2.1025697029
   68      C      -2.5688166712     3.3010605757    -2.7423837245
   69      H      -3.1378963701     4.1803437260    -3.0411438517
   70      H      -1.5538211104     3.4055962120    -3.1299006892
   71      H      -2.4923807115     3.2997758748    -1.6534513983
   72      C       2.7220092462     0.2828124510     0.0467942743
   73      C       3.4387061374     1.4070562371     0.5210616673
   74      C       4.6408548774     1.2493777025     1.1840502620
   75      H       5.1695620057     2.1248418886     1.5376645665
   76      C       5.1574947647    -0.0367053731     1.3883751708
   77      O       6.2996598485    -0.2902981853     2.0134578777
   78      C       4.4552174089    -1.1623219215     0.9191025175
   79      H       4.8762003784    -2.1464914988     1.0877752872
   80      C       3.2575921137    -1.0114348594     0.2595238522
   81      C       7.0760444408     0.7813923917     2.5249920166
   82      H       7.9514804582     0.3298078852     2.9827277141
   83      H       6.5278959483     1.3464293581     3.2815048361
   84      H       7.3964241996     1.4583375496     1.7307453267
   85      C       2.5101889068    -2.2111762801    -0.2412135529
   86      H       3.0335095718    -3.1381490587    -0.0104856904
   87      H       2.3689226641    -2.1613319994    -1.3225765226
   88      H       1.5140399297    -2.2646556629     0.2023212828
   89      C       2.8788342569     2.7775759566     0.2933354460
   90      H       3.5268102507     3.5537386460     0.6977989161
   91      H       2.7413902727     2.9694542688    -0.7727314680
   92      H       1.8952656921     2.8794210227     0.7568545057
 ----------------------------------------------------------------

   19   -2123.7320652102      8.56E-09 Convergence criterion met
 Total energy in the final basis set = -2123.73206521

                    Orbital Energies (a.u.)
 --------------------------------------------------------------

 Alpha MOs
 -- Occupied --
-19.559 -19.558 -10.538 -10.537 -10.496 -10.495 -10.475 -10.474
-10.471 -10.471 -10.458 -10.458 -10.456 -10.455 -10.455 -10.455
-10.454 -10.454 -10.454 -10.454 -10.454 -10.453 -10.453 -10.453
-10.452 -10.452 -10.452 -10.452 -10.451 -10.451 -10.451 -10.451
-10.448 -10.448 -10.446 -10.446 -10.446 -10.444 -10.443 -10.443
-10.442 -10.441 -10.441 -10.441 -10.431 -10.431 -10.429 -10.429
-10.419 -10.419 -10.418 -10.418  -6.912  -6.911  -1.212  -1.212
 -1.006  -1.006  -0.971  -0.971  -0.949  -0.947  -0.925  -0.925
 -0.897  -0.889  -0.889  -0.887  -0.870  -0.867  -0.844  -0.844
 -0.839  -0.838  -0.812  -0.808  -0.803  -0.802  -0.801  -0.792
 -0.776  -0.776  -0.768  -0.767  -0.724  -0.720  -0.718  -0.710
 -0.683  -0.680  -0.674  -0.669  -0.660  -0.657  -0.654  -0.654
 -0.636  -0.635  -0.602  -0.601  -0.588  -0.586  -0.583  -0.580
 -0.577  -0.577  -0.573  -0.565  -0.564  -0.548  -0.547  -0.545
 -0.541  -0.532  -0.517  -0.517  -0.509  -0.501  -0.501  -0.498
 -0.492  -0.491  -0.487  -0.487  -0.484  -0.480  -0.478  -0.478
 -0.478  -0.476  -0.476  -0.474  -0.474  -0.472  -0.470  -0.469
 -0.467  -0.459  -0.455  -0.450  -0.446  -0.445  -0.437  -0.435
 -0.432  -0.432  -0.431  -0.430  -0.423  -0.417  -0.416  -0.414
 -0.414  -0.406  -0.390  -0.390  -0.389  -0.389  -0.389  -0.386
 -0.383  -0.380  -0.366  -0.364  -0.364  -0.360  -0.359  -0.342
 -0.335  -0.326  -0.316  -0.309  -0.296  -0.295  -0.293  -0.291
 -0.278  -0.260  -0.250  -0.248  -0.220  -0.158

 Beta MOs
 -- Occupied --
-19.562 -19.561 -10.539 -10.538 -10.496 -10.495 -10.475 -10.474
-10.471 -10.470 -10.459 -10.459 -10.456 -10.456 -10.455 -10.455
-10.455 -10.454 -10.454 -10.454 -10.453 -10.453 -10.453 -10.452
-10.452 -10.452 -10.452 -10.452 -10.451 -10.451 -10.451 -10.451
-10.450 -10.447 -10.447 -10.447 -10.445 -10.445 -10.444 -10.443
-10.441 -10.441 -10.441 -10.441 -10.431 -10.431 -10.429 -10.429
-10.419 -10.419 -10.418 -10.418  -6.909  -6.908  -1.218  -1.217
 -1.006  -1.006  -0.975  -0.975  -0.948  -0.946  -0.924  -0.924
 -0.896  -0.890  -0.889  -0.888  -0.874  -0.872  -0.843  -0.843
 -0.838  -0.837  -0.811  -0.808  -0.804  -0.801  -0.801  -0.790
 -0.778  -0.778  -0.771  -0.771  -0.723  -0.718  -0.716  -0.709
 -0.682  -0.680  -0.676  -0.669  -0.660  -0.659  -0.655  -0.653
 -0.636  -0.635  -0.604  -0.603  -0.586  -0.585  -0.582  -0.579
 -0.578  -0.578  -0.573  -0.564  -0.564  -0.558  -0.558  -0.546
 -0.542  -0.532  -0.517  -0.517  -0.508  -0.502  -0.502  -0.499
 -0.493  -0.491  -0.490  -0.487  -0.485  -0.481  -0.478  -0.477
 -0.477  -0.477  -0.476  -0.475  -0.474  -0.472  -0.470  -0.469
 -0.467  -0.458  -0.456  -0.450  -0.447  -0.444  -0.440  -0.440
 -0.436  -0.435  -0.432  -0.431  -0.419  -0.416  -0.415  -0.414
 -0.412  -0.405  -0.390  -0.390  -0.389  -0.388  -0.388  -0.386
 -0.384  -0.383  -0.381  -0.374  -0.364  -0.361  -0.356  -0.341
 -0.336  -0.332  -0.310  -0.305  -0.298  -0.298  -0.288  -0.288
 -0.275  -0.270  -0.268  -0.252  -0.247  -0.241

          Ground-State Mulliken Net Atomic Charges

     Atom                 Charge (a.u.)    Spin (a.u.)
  --------------------------------------------------------
      1 C                    -0.144191       0.021009
      2 C                    -0.413636      -0.039071
      3 H                     0.224719       0.002188
      4 C                     0.080128       0.065736
      5 C                     0.054208       0.065556
      6 C                    -0.404663      -0.038776
      7 H                     0.224743       0.002228
      8 C                    -0.140433       0.017616
      9 C                     0.173810      -0.051847
     10 C                    -0.402735       0.077383
     11 H                     0.241074      -0.004511
     12 C                    -0.076910       0.023297
     13 C                     0.220939      -0.037594
     14 C                     0.175595      -0.050990
     15 C                    -0.411921       0.076225
     16 H                     0.241308      -0.004450
     17 C                    -0.233371      -0.049434
     18 H                     0.249474       0.002391
     19 C                    -0.359230       0.071105
     20 H                     0.245767      -0.004136
     21 C                    -0.230689      -0.049142
     22 H                     0.249019       0.002383
     23 C                    -0.363159       0.069540
     24 H                     0.246216      -0.004036
     25 B                     0.563724       0.319796
     26 B                     0.557626       0.329329
     27 C                    -0.139386       0.017160
     28 C                    -0.404223      -0.038134
     29 H                     0.225319       0.002294
     30 C                     0.055783       0.064401
     31 C                     0.076731       0.065873
     32 C                    -0.412217      -0.039570
     33 H                     0.225224       0.002297
     34 C                    -0.143824       0.021163
     35 C                     0.177264      -0.050890
     36 C                    -0.410594       0.075997
     37 H                     0.241433      -0.004437
     38 C                    -0.078518       0.023251
     39 C                     0.217973      -0.037387
     40 C                     0.175404      -0.051337
     41 C                    -0.403327       0.076592
     42 H                     0.240993      -0.004467
     43 C                    -0.231023      -0.048868
     44 H                     0.249072       0.002369
     45 C                    -0.361718       0.069200
     46 H                     0.246285      -0.004015
     47 C                    -0.233182      -0.048948
     48 H                     0.249524       0.002369
     49 C                    -0.358025       0.070128
     50 H                     0.245863      -0.004076
     51 C                    -0.163707      -0.282680
     52 C                     0.059082       0.006853
     53 C                    -0.439526      -0.022883
     54 H                     0.276204       0.002462
     55 C                     0.426495      -0.104344
     56 O                    -0.431314      -0.077087
     57 C                    -0.386876      -0.064499
     58 H                     0.264094       0.004542
     59 C                     0.057123       0.052745
     60 C                    -0.440629       0.007609
     61 H                     0.269538       0.000014
     62 H                     0.241547      -0.005133
     63 H                     0.241486      -0.005057
     64 C                    -0.761645       0.000812
     65 H                     0.252492       0.002103
     66 H                     0.261283      -0.002758
     67 H                     0.260804      -0.002725
     68 C                    -0.759020      -0.002221
     69 H                     0.252164       0.002047
     70 H                     0.257956      -0.000653
     71 H                     0.257248      -0.000414
     72 C                    -0.161054      -0.274142
     73 C                     0.064467       0.005363
     74 C                    -0.439209      -0.022788
     75 H                     0.275822       0.002446
     76 C                     0.425333      -0.103937
     77 O                    -0.431822      -0.075760
     78 C                    -0.391649      -0.060994
     79 H                     0.263329       0.004344
     80 C                     0.052750       0.050135
     81 C                    -0.440402       0.007513
     82 H                     0.269090       0.000016
     83 H                     0.240862      -0.005044
     84 H                     0.240757      -0.005016
     85 C                    -0.761652      -0.001974
     86 H                     0.252548       0.002089
     87 H                     0.258269      -0.000643
     88 H                     0.258012      -0.000633
     89 C                    -0.761863       0.000907
     90 H                     0.251938       0.002165
     91 H                     0.260882      -0.002803
     92 H                     0.260549      -0.002738
  --------------------------------------------------------
  Sum of atomic charges =    -0.000000

                    Cartesian Multipole Moments
 -----------------------------------------------------------------
    Charge (ESU x 10^10)
                -0.0000
    Dipole Moment (Debye)
         X       0.0066      Y      -0.6384      Z      -0.3217
       Tot       0.7149
    Quadrupole Moments (Debye-Ang)
        XX    -201.6166     XY      14.7592     YY    -308.7961
        XZ      63.4083     YZ      10.6920     ZZ    -270.2432
