 Q-Chem 5.0, Q-Chem, Inc., Pleasanton, CA (2017)
 Q-Chem 5.0.1 for Intel X86 EM64T Linux

User input:
--------------------------------------------------------------
$rem
threads 8
jobtype	sp
method PBEh-3c
basis def2-mSVP
mem_static	1024
mem_total	8000
sym_ignore	true
unrestricted true
scf_convergence	9
solvent_method	pcm
$end

$molecule
read moms1opt_chx.mol
$end

$solvent
dielectric	1.0001
$end

$pcm
theory iefpcm
$end
--------------------------------------------------------------

   17   -2123.7882061189      6.89E-10 Convergence criterion met
 Total energy in the final basis set = -2123.78820612
 Total job time:  2356.30s(wall), 10857.58s(cpu)
        *  Thank you very much for using Q-Chem.  Have a nice day.  *
 Q-Chem 5.0, Q-Chem, Inc., Pleasanton, CA (2017)
 Q-Chem 5.0.1 for Intel X86 EM64T Linux

User input:
--------------------------------------------------------------

$rem
threads 8
jobtype opt
method PBEh-3c
basis def2-mSVP
scf_guess	read
mem_static      1024
mem_total       8000
sym_ignore      true
unrestricted true
mom_start       1
scf_algorithm	diis
scf_max_cycles	250
solvent_method	pcm
geom_opt_tol_energy 25
geom_opt_tol_gradient 75
$end

$solvent
dielectric      1.0001
$end

$pcm
theory iefpcm
$end

$occupied
1 2 3 4 5 6 7 8 9 10 11 12 13 14 15 16 17 18 19 20 21 22 23 24 25 26 27 28 29 30 31 32 33 34 35 36 37 38 39 40 41 42 43 44 45 46 47 48 49 50 51 52 53 54 55 56 57 58 59 60 61 62 63 64 65 66 67 68 69 70 71 72 73 74 75 76 77 78 79 80 81 82 83 84 85 86 87 88 89 90 91 92 93 94 95 96 97 98 99 100 101 102 103 104 105 106 107 108 109 110 111 112 113 114 115 116 117 118 119 120 121 122 123 124 125 126 127 128 129 130 131 132 133 134 135 136 137 138 139 140 141 142 143 144 145 146 147 148 149 150 151 152 153 154 155 156 157 158 159 160 161 162 163 164 165 166 167 168 169 170 171 172 173 174 175 176 177 178 179 180 181  183
1 2 3 4 5 6 7 8 9 10 11 12 13 14 15 16 17 18 19 20 21 22 23 24 25 26 27 28 29 30 31 32 33 34 35 36 37 38 39 40 41 42 43 44 45 46 47 48 49 50 51 52 53 54 55 56 57 58 59 60 61 62 63 64 65 66 67 68 69 70 71 72 73 74 75 76 77 78 79 80 81 82 83 84 85 86 87 88 89 90 91 92 93 94 95 96 97 98 99 100 101 102 103 104 105 106 107 108 109 110 111 112 113 114 115 116 117 118 119 120 121 122 123 124 125 126 127 128 129 130 131 132 133 134 135 136 137 138 139 140 141 142 143 144 145 146 147 148 149 150 151 152 153 154 155 156 157 158 159 160 161 162 163 164 165 166 167 168 169 170 171 172 173 174 175 176 177 178 179 180 181 182
$end

$molecule
read
$end

--------------------------------------------------------------

   27   -2123.6984795292      6.15E-09 Convergence criterion met
 Total energy in the final basis set = -2123.69847953
   24   -2123.7002737399      5.83E-09 Convergence criterion met
 Total energy in the final basis set = -2123.70027374
   24   -2123.7009076700      7.80E-09 Convergence criterion met
 Total energy in the final basis set = -2123.70090767
   26   -2123.7027036582      7.44E-09 Convergence criterion met
 Total energy in the final basis set = -2123.70270366
   22   -2123.7033215633      7.55E-09 Convergence criterion met
 Total energy in the final basis set = -2123.70332156
   18   -2123.7078890231      7.71E-09 Convergence criterion met
 Total energy in the final basis set = -2123.70788902
   18   -2123.7069379059      6.62E-09 Convergence criterion met
   14   -2123.7079694599      6.33E-09 Convergence criterion met
 Total energy in the final basis set = -2123.70796946
   13   -2123.7079550382      7.96E-09 Convergence criterion met
 Total energy in the final basis set = -2123.70795504
   13   -2123.7079603555      9.01E-09 Convergence criterion met
 Total energy in the final basis set = -2123.70796036
   11   -2123.7079654997      5.79E-09 Convergence criterion met
 Total energy in the final basis set = -2123.70796550
   11   -2123.7079700681      7.32E-09 Convergence criterion met
 Total energy in the final basis set = -2123.70797007
   11   -2123.7079693830      8.97E-09 Convergence criterion met
 Total energy in the final basis set = -2123.70796938

             Standard Nuclear Orientation (Angstroms)
    I     Atom           X                Y                Z
 ----------------------------------------------------------------
    1      C       0.0002916392    -0.3942296061     0.0620767538
    2      C      -0.0006910342    -0.3669408619     1.4723268797
    3      H       0.9467603766    -0.4084359125     1.9981607700
    4      C      -1.1823425228    -0.2928957840     2.1640558338
    5      C      -2.4384409896    -0.2319011501     1.4411727681
    6      C      -2.4639542527    -0.2568301034     0.0719271290
    7      H      -3.4060203680    -0.2147032634    -0.4637588494
    8      C      -1.2684742078    -0.3434236064    -0.6566379594
    9      C      -3.5118307471    -0.1593014922     2.4054751717
   10      C      -4.8815902722    -0.0829106720     2.3200360951
   11      H      -5.3928667542    -0.0600329830     1.3659796003
   12      C      -2.9044863227    -0.1834150094     3.6776098984
   13      C      -3.6164006148    -0.1383852127     4.8732924569
   14      C      -1.4978413368    -0.2630386741     3.5821775052
   15      C      -0.7706024848    -0.2994434321     4.7460290818
   16      H       0.3097618199    -0.3624344898     4.7408471135
   17      C      -1.4655300830    -0.2551948852     5.9738049402
   18      H      -0.8918530970    -0.2851271272     6.8906591815
   19      C      -2.8386441383    -0.1769464721     6.0530692655
   20      H      -3.3214774600    -0.1462474782     7.0218078592
   21      C      -5.6232405619    -0.0346477284     3.5168722797
   22      H      -6.7021377883     0.0250889426     3.4563921867
   23      C      -5.0247576932    -0.0614368378     4.7581902983
   24      H      -5.6385204493    -0.0233618630     5.6495758423
   25      B       1.3247263053    -0.4851722016    -0.7046914740
   26      C       1.2812900659    -0.5259442030    -2.2359547384
   27      C       2.4810753675    -0.6072103693    -2.9737317999
   28      H       3.4241621563    -0.6375222249    -2.4397038525
   29      C       2.4510820195    -0.6479381392    -4.3435375747
   30      C       1.1781126018    -0.6073163776    -5.0368943563
   31      C       0.0001531894    -0.5318186830    -4.3444329368
   32      H      -0.9472240857    -0.5068166137    -4.8715833522
   33      C       0.0072471441    -0.4864982941    -2.9427099084
   34      C       1.4343946677    -0.6617006167    -6.4585772463
   35      C       0.6451180160    -0.6557026216    -7.5843755359
   36      H      -0.4342994505    -0.5988841354    -7.5233996518
   37      C       2.8343404812    -0.7360066512    -6.6055588085
   38      C       3.4775324063    -0.8070001120    -7.8399845130
   39      C       3.4927894282    -0.7316618854    -5.3566242758
   40      C       4.8643768623    -0.8039244330    -5.3496182039
   41      H       5.4300027983    -0.8073024371    -4.4270521985
   42      C       1.2738436899    -0.7255811784    -8.8438470775
   43      H       0.6563492382    -0.7206907394    -9.7326749625
   44      C       2.6427335654    -0.7998012421    -8.9824345063
   45      H       3.0803996204    -0.8521622390    -9.9717460015
   46      C       5.5427165523    -0.8764200992    -6.5856412686
   47      H       6.6232105728    -0.9331600004    -6.5767070961
   48      C       4.8882754837    -0.8788699849    -7.7975132267
   49      H       5.4562128719    -0.9368817646    -8.7178157756
   50      B      -1.3198476445    -0.3936022431    -2.1862207657
   51      C       2.7011536721    -0.5443744496     0.0571784098
   52      C       3.2686742879    -1.7769930107     0.4152168725
   53      C       4.4778537809    -1.8249050704     1.0882389129
   54      H       4.9155994404    -2.7763418905     1.3666120825
   55      C       5.1509744462    -0.6523161066     1.4191425481
   56      O       6.3218598150    -0.8056789876     2.0759944149
   57      C       4.6021661446     0.5735032034     1.0672751131
   58      H       5.1018863423     1.5028221682     1.3093612425
   59      C       3.3848747005     0.6254447690     0.3895325430
   60      C       7.0431817564     0.3423948864     2.4288514651
   61      H       7.9444407194     0.0015303443     2.9346711745
   62      H       6.4861798620     0.9908847445     3.1135076078
   63      H       7.3381179503     0.9344016723     1.5559330447
   64      C       2.8029995919     1.9592596072     0.0101723159
   65      H       3.4404534444     2.7864733698     0.3223985497
   66      H       2.6636082863     2.0376210577    -1.0701622044
   67      H       1.8208375804     2.1085011989     0.4636082417
   68      C       2.5568467961    -3.0538540217     0.0627402026
   69      H       3.1028780634    -3.9318869553     0.4070580763
   70      H       2.4227386804    -3.1493342833    -1.0169669310
   71      H       1.5591243799    -3.0889662663     0.5055441829
   72      C      -2.6900530879    -0.3604572138    -2.9721435552
   73      C      -3.3634827513    -1.5434672772    -3.2858024790
   74      C      -4.5555738526    -1.5211362658    -4.0087590279
   75      H      -5.0445203674    -2.4611757928    -4.2312310958
   76      C      -5.0933478811    -0.3138564844    -4.4310633721
   77      O      -6.2401279175    -0.1919713894    -5.1355173873
   78      C      -4.4315960867     0.8713663178    -4.1254552967
   79      H      -4.8576245884     1.8097618455    -4.4603643543
   80      C      -3.2475545289     0.8532675232    -3.4071734377
   81      C      -6.9511900952    -1.3551938680    -5.4607590549
   82      H      -7.8313421701    -1.0375971688    -6.0164831271
   83      H      -6.3709674697    -2.0369616689    -6.0917402790
   84      H      -7.2816274224    -1.9044845220    -4.5726636473
   85      C      -2.5474183596     2.1470457670    -3.1012049403
   86      H      -3.1091122135     3.0074461920    -3.4642732453
   87      H      -1.5574890766     2.1794203485    -3.5613438508
   88      H      -2.3991735104     2.2754719943    -2.0272802485
   89      C      -2.7970136885    -2.8681295436    -2.8542506896
   90      H      -3.4449404557    -3.6981545684    -3.1366360825
   91      H      -1.8181022597    -3.0460661357    -3.3041350261
   92      H      -2.6587096693    -2.9097276602    -1.7722766577
 ----------------------------------------------------------------

    9   -2123.7079670168      7.18E-09 Convergence criterion met
 Total energy in the final basis set = -2123.70796702
 Final energy is   -2123.70796701679
 **  OPTIMIZATION CONVERGED  **

                    Orbital Energies (a.u.)
 --------------------------------------------------------------

 Alpha MOs
 -- Occupied --
-19.518 -19.517 -10.492 -10.492 -10.485 -10.484 -10.473 -10.473
-10.472 -10.471 -10.469 -10.469 -10.467 -10.467 -10.466 -10.466
-10.466 -10.466 -10.466 -10.465 -10.465 -10.465 -10.465 -10.465
-10.463 -10.463 -10.463 -10.463 -10.459 -10.459 -10.453 -10.453
-10.451 -10.450 -10.442 -10.441 -10.441 -10.441 -10.440 -10.440
-10.440 -10.439 -10.424 -10.424 -10.419 -10.419 -10.418 -10.418
-10.417 -10.417 -10.403 -10.401  -6.910  -6.910  -1.175  -1.174
 -1.020  -1.020  -0.962  -0.960  -0.943  -0.942  -0.938  -0.937
 -0.907  -0.899  -0.863  -0.861  -0.861  -0.860  -0.852  -0.851
 -0.844  -0.844  -0.818  -0.816  -0.815  -0.799  -0.783  -0.782
 -0.757  -0.756  -0.748  -0.746  -0.736  -0.733  -0.732  -0.722
 -0.692  -0.685  -0.681  -0.669  -0.654  -0.645  -0.643  -0.643
 -0.634  -0.634  -0.600  -0.596  -0.592  -0.590  -0.586  -0.579
 -0.577  -0.577  -0.576  -0.550  -0.550  -0.545  -0.540  -0.533
 -0.530  -0.529  -0.528  -0.523  -0.511  -0.510  -0.505  -0.500
 -0.495  -0.494  -0.486  -0.485  -0.485  -0.484  -0.483  -0.482
 -0.482  -0.469  -0.467  -0.466  -0.464  -0.464  -0.459  -0.456
 -0.455  -0.455  -0.448  -0.448  -0.446  -0.439  -0.435  -0.433
 -0.430  -0.426  -0.419  -0.418  -0.415  -0.411  -0.411  -0.409
 -0.403  -0.400  -0.399  -0.399  -0.394  -0.392  -0.392  -0.391
 -0.375  -0.368  -0.365  -0.359  -0.355  -0.349  -0.346  -0.339
 -0.334  -0.329  -0.328  -0.322  -0.300  -0.298  -0.268  -0.266
 -0.265  -0.263  -0.258  -0.240  -0.238  -0.162

 Beta MOs
 -- Occupied --
-19.518 -19.517 -10.492 -10.492 -10.485 -10.484 -10.474 -10.474
-10.473 -10.472 -10.469 -10.469 -10.467 -10.467 -10.466 -10.466
-10.465 -10.465 -10.465 -10.465 -10.465 -10.465 -10.465 -10.464
-10.463 -10.463 -10.463 -10.463 -10.460 -10.460 -10.452 -10.452
-10.450 -10.449 -10.444 -10.444 -10.442 -10.441 -10.441 -10.441
-10.440 -10.439 -10.424 -10.424 -10.419 -10.419 -10.418 -10.418
-10.417 -10.417 -10.403 -10.401  -6.907  -6.907  -1.175  -1.174
 -1.023  -1.022  -0.964  -0.962  -0.942  -0.942  -0.937  -0.937
 -0.910  -0.902  -0.862  -0.861  -0.861  -0.860  -0.851  -0.850
 -0.844  -0.843  -0.822  -0.816  -0.815  -0.806  -0.782  -0.782
 -0.756  -0.755  -0.747  -0.746  -0.736  -0.732  -0.732  -0.723
 -0.692  -0.683  -0.683  -0.670  -0.654  -0.646  -0.644  -0.643
 -0.633  -0.633  -0.598  -0.596  -0.590  -0.589  -0.585  -0.578
 -0.577  -0.576  -0.576  -0.549  -0.549  -0.546  -0.540  -0.531
 -0.531  -0.529  -0.528  -0.522  -0.511  -0.510  -0.505  -0.499
 -0.496  -0.494  -0.492  -0.491  -0.485  -0.484  -0.483  -0.482
 -0.482  -0.469  -0.467  -0.467  -0.464  -0.464  -0.459  -0.456
 -0.455  -0.454  -0.448  -0.448  -0.446  -0.440  -0.436  -0.433
 -0.433  -0.427  -0.426  -0.418  -0.415  -0.411  -0.411  -0.409
 -0.403  -0.399  -0.398  -0.398  -0.394  -0.393  -0.392  -0.391
 -0.375  -0.373  -0.364  -0.362  -0.355  -0.354  -0.348  -0.346
 -0.334  -0.329  -0.324  -0.320  -0.299  -0.299  -0.284  -0.266
 -0.265  -0.263  -0.261  -0.257  -0.240  -0.238

          Ground-State Mulliken Net Atomic Charges

     Atom                 Charge (a.u.)    Spin (a.u.)
  --------------------------------------------------------
      1 C                    -0.119366      -0.149819
      2 C                    -0.396891       0.057042
      3 H                     0.240318      -0.002803
      4 C                     0.120379      -0.075658
      5 C                     0.095713      -0.079715
      6 C                    -0.389132       0.054639
      7 H                     0.239131      -0.002664
      8 C                    -0.118625      -0.128194
      9 C                     0.197207      -0.011654
     10 C                    -0.372707       0.053679
     11 H                     0.225689      -0.003046
     12 C                    -0.060292      -0.088048
     13 C                     0.255427      -0.001064
     14 C                     0.200377      -0.010642
     15 C                    -0.383057       0.056623
     16 H                     0.225256      -0.003246
     17 C                    -0.201750      -0.028258
     18 H                     0.229194       0.001386
     19 C                    -0.338486       0.034855
     20 H                     0.222460      -0.002068
     21 C                    -0.204647      -0.027170
     22 H                     0.229857       0.001362
     23 C                    -0.333819       0.030365
     24 H                     0.222514      -0.001817
     25 B                     0.588485       0.349372
     26 C                    -0.119984      -0.150165
     27 C                    -0.397913       0.057018
     28 H                     0.241111      -0.002806
     29 C                     0.121040      -0.075198
     30 C                     0.093490      -0.079143
     31 C                    -0.387020       0.054569
     32 H                     0.241153      -0.002673
     33 C                    -0.117027      -0.127438
     34 C                     0.198218      -0.011325
     35 C                    -0.373168       0.052284
     36 H                     0.225969      -0.002965
     37 C                    -0.060814      -0.086618
     38 C                     0.253490      -0.000839
     39 C                     0.201619      -0.010223
     40 C                    -0.384097       0.055328
     41 H                     0.225205      -0.003173
     42 C                    -0.204718      -0.026415
     43 H                     0.229804       0.001326
     44 C                    -0.332650       0.029180
     45 H                     0.222388      -0.001745
     46 C                    -0.201585      -0.027534
     47 H                     0.229054       0.001350
     48 C                    -0.337994       0.033914
     49 H                     0.222454      -0.002010
     50 B                     0.585776       0.348501
     51 C                    -0.209021      -0.032162
     52 C                     0.057438       0.005286
     53 C                    -0.382412      -0.001706
     54 H                     0.216674       0.000472
     55 C                     0.399079       0.001412
     56 O                    -0.455466       0.000152
     57 C                    -0.433583      -0.001430
     58 H                     0.217502       0.000400
     59 C                     0.058496       0.005239
     60 C                    -0.403877      -0.000021
     61 H                     0.236561       0.000009
     62 H                     0.201687       0.000021
     63 H                     0.201695       0.000020
     64 C                    -0.748520      -0.000668
     65 H                     0.225586       0.001616
     66 H                     0.241588      -0.000778
     67 H                     0.241586      -0.000733
     68 C                    -0.749431      -0.000645
     69 H                     0.230863       0.001546
     70 H                     0.240245      -0.000706
     71 H                     0.240212      -0.000791
     72 C                    -0.212508      -0.032130
     73 C                     0.056677       0.005188
     74 C                    -0.432782      -0.001378
     75 H                     0.217647       0.000394
     76 C                     0.399433       0.001332
     77 O                    -0.455827       0.000147
     78 C                    -0.380071      -0.001595
     79 H                     0.216837       0.000463
     80 C                     0.056681       0.005175
     81 C                    -0.403871      -0.000020
     82 H                     0.236726       0.000009
     83 H                     0.201602       0.000019
     84 H                     0.202124       0.000020
     85 C                    -0.747767      -0.000345
     86 H                     0.230599       0.001445
     87 H                     0.239734      -0.000661
     88 H                     0.239946      -0.000820
     89 C                    -0.747455      -0.000468
     90 H                     0.225486       0.001521
     91 H                     0.240903      -0.000673
     92 H                     0.241948      -0.000808
  --------------------------------------------------------
  Sum of atomic charges =    -0.000000

                    Cartesian Multipole Moments
 -----------------------------------------------------------------
    Charge (ESU x 10^10)
                -0.0000
    Dipole Moment (Debye)
         X      -0.1290      Y      -0.0580      Z      -0.0251
       Tot       0.1436
    Quadrupole Moments (Debye-Ang)
        XX    -267.8376     XY      14.9792     YY    -313.6354
        XZ     -13.0488     YZ      12.0111     ZZ    -253.0815

 Total job time:  39530.02s(wall), 181365.67s(cpu)
        *  Thank you very much for using Q-Chem.  Have a nice day.  *
