 Q-Chem 5.0, Q-Chem, Inc., Pleasanton, CA (2017)
 Q-Chem 5.0.1 for Intel X86 EM64T Linux

User input:
--------------------------------------------------------------
$rem
threads 8
jobtype	sp
method PBEh-3c
basis def2-mSVP
mem_static	1024
mem_total	8000
sym_ignore	true
unrestricted true
scf_convergence	9
solvent_method	pcm
$end

$molecule
read incoords.mol
$end

$solvent
dielectric	8.93
$end

$pcm
theory iefpcm
$end
--------------------------------------------------------------

   17   -2123.8135454147      3.19E-10 Convergence criterion met
 Total energy in the final basis set = -2123.81354541
 Total job time:  2152.46s(wall), 8151.60s(cpu)
        *  Thank you very much for using Q-Chem.  Have a nice day.  *
 Q-Chem 5.0, Q-Chem, Inc., Pleasanton, CA (2017)
 Q-Chem 5.0.1 for Intel X86 EM64T Linux

User input:
--------------------------------------------------------------

$rem
threads 8
jobtype opt
method PBEh-3c
basis def2-mSVP
scf_guess	read
mem_static      1024
mem_total       8000
sym_ignore      true
unrestricted true
mom_start       1
scf_algorithm	diis
scf_max_cycles	250
solvent_method	pcm
geom_opt_tol_energy 25
geom_opt_tol_gradient 75
$end

$solvent
dielectric      8.93
$end
$pcm
theory iefpcm
$end

$occupied
1 2 3 4 5 6 7 8 9 10 11 12 13 14 15 16 17 18 19 20 21 22 23 24 25 26 27 28 29 30 31 32 33 34 35 36 37 38 39 40 41 42 43 44 45 46 47 48 49 50 51 52 53 54 55 56 57 58 59 60 61 62 63 64 65 66 67 68 69 70 71 72 73 74 75 76 77 78 79 80 81 82 83 84 85 86 87 88 89 90 91 92 93 94 95 96 97 98 99 100 101 102 103 104 105 106 107 108 109 110 111 112 113 114 115 116 117 118 119 120 121 122 123 124 125 126 127 128 129 130 131 132 133 134 135 136 137 138 139 140 141 142 143 144 145 146 147 148 149 150 151 152 153 154 155 156 157 158 159 160 161 162 163 164 165 166 167 168 169 170 171 172 173 174 175 176 177 178 179 180 181  183
1 2 3 4 5 6 7 8 9 10 11 12 13 14 15 16 17 18 19 20 21 22 23 24 25 26 27 28 29 30 31 32 33 34 35 36 37 38 39 40 41 42 43 44 45 46 47 48 49 50 51 52 53 54 55 56 57 58 59 60 61 62 63 64 65 66 67 68 69 70 71 72 73 74 75 76 77 78 79 80 81 82 83 84 85 86 87 88 89 90 91 92 93 94 95 96 97 98 99 100 101 102 103 104 105 106 107 108 109 110 111 112 113 114 115 116 117 118 119 120 121 122 123 124 125 126 127 128 129 130 131 132 133 134 135 136 137 138 139 140 141 142 143 144 145 146 147 148 149 150 151 152 153 154 155 156 157 158 159 160 161 162 163 164 165 166 167 168 169 170 171 172 173 174 175 176 177 178 179 180 181 182
$end

$molecule
read incoords.mol
$end

--------------------------------------------------------------

   22   -2123.7386639349      7.84E-09 Convergence criterion met
 Total energy in the final basis set = -2123.73866393
   21   -2123.7395607916      7.37E-09 Convergence criterion met
 Total energy in the final basis set = -2123.73956079
   20   -2123.7397740001      7.65E-09 Convergence criterion met
 Total energy in the final basis set = -2123.73977400
   19   -2123.7398744225      9.99E-09 Convergence criterion met
 Total energy in the final basis set = -2123.73987442
   19   -2123.7399257133      9.21E-09 Convergence criterion met
 Total energy in the final basis set = -2123.73992571
   19   -2123.7400320223      9.99E-09 Convergence criterion met
 Total energy in the final basis set = -2123.74003202
   21   -2123.7400841251      7.06E-09 Convergence criterion met
   20   -2123.7412435747      7.61E-09 Convergence criterion met
 Total energy in the final basis set = -2123.74124357
   19   -2123.7413039711      9.19E-09 Convergence criterion met
 Total energy in the final basis set = -2123.74130397
   19   -2123.7413069976      9.93E-09 Convergence criterion met
 Total energy in the final basis set = -2123.74130700
   20   -2123.7413133374      7.52E-09 Convergence criterion met
 Total energy in the final basis set = -2123.74131334
   20   -2123.7413186369      7.36E-09 Convergence criterion met
 Total energy in the final basis set = -2123.74131864
   19   -2123.7413200017      9.99E-09 Convergence criterion met
 Total energy in the final basis set = -2123.74132000

             Standard Nuclear Orientation (Angstroms)
    I     Atom           X                Y                Z
 ----------------------------------------------------------------
    1      C       2.4675824748    -1.5922263220     0.3715884840
    2      C       3.4443001848    -1.2817556832    -0.6259340922
    3      B       4.4674403878    -2.3467971234    -1.0172875048
    4      C       4.4975153319    -3.7063728202    -0.3203704818
    5      C       3.5091655364    -4.0122391200     0.6652720375
    6      B       2.4462916725    -2.9718288424     1.0539226698
    7      C       5.4362665980    -4.6973946004    -0.6880454964
    8      C       5.3871857966    -5.9478196012    -0.1263669727
    9      C       4.3787622817    -6.2640347401     0.8333222228
   10      C       3.4744321646    -5.3052983242     1.2232733859
   11      C       1.4594762371    -0.6515800498     0.6556140195
   12      C       1.4036571148     0.5461326019    -0.0167936904
   13      C       2.3931661799     0.8686217427    -0.9937762351
   14      C       3.3872688708    -0.0325616178    -1.2864000869
   15      C       7.2204305597    -7.4938602866    -1.1924733769
   16      C       7.6820708352    -8.8313286530    -1.1910696507
   17      C       7.1096948975    -9.8123563347    -0.4128421961
   18      C       6.0170080565    -9.4976788455     0.4315434565
   19      C       5.5965521722    -8.1688165314     0.4257482209
   20      C       6.1683556576    -7.1600255760    -0.3753988691
   21      C       5.2819365542   -10.3859355108     1.2555854088
   22      C       4.2127448996    -9.9183671276     1.9860141844
   23      C       3.8037798165    -8.5638119132     1.9581675420
   24      C       4.5043730427    -7.6801447303     1.1728969114
   25      C       1.8443861889     4.1271523337    -2.9405126728
   26      C       2.5481620813     2.9529594725    -2.5816473170
   27      C       2.0328980519     2.1567921464    -1.5888355701
   28      C       0.8270275588     2.5522427366    -0.9733843172
   29      C       0.0989025468     3.6864220394    -1.3248349378
   30      C       0.6568380913     4.4931325750    -2.3468952415
   31      C       0.4056909962     1.6094414456    -0.0130311451
   32      C      -0.7915811725     1.8145127233     0.6277765636
   33      C      -1.5462013269     2.9643473990     0.2967281314
   34      C      -1.1297534399     3.8786448582    -0.6449286510
   35      C       7.5525452984    -1.3960528075    -3.1762514086
   36      C       6.7335867815    -1.5706533959    -2.0954625303
   37      C       5.4150781690    -2.1204363855    -2.2559628470
   38      C       4.9641980135    -2.4923037970    -3.5656443391
   39      C       5.7874520733    -2.3119821201    -4.6365707578
   40      C       7.0886373606    -1.7632181910    -4.4604216713
   41      C       7.1869288434    -1.2036483738    -0.7230803701
   42      C       3.5991715972    -3.0763012374    -3.7404546519
   43      O       7.7832746032    -1.6376524164    -5.5522048987
   44      C       9.1126212545    -1.1067523105    -5.5398205890
   45      C       0.4903548991    -3.4323657668     4.3743744814
   46      C       1.4873790868    -3.1070392094     3.4661218773
   47      C       1.3129609356    -3.3411646838     2.0933421720
   48      C       0.1105198752    -3.9144212997     1.6697566055
   49      C      -0.8923068672    -4.2398268226     2.5848538160
   50      C      -0.7059219824    -3.9977485453     3.9396557387
   51      C       2.7714073972    -2.4994249233     3.9576727323
   52      C      -0.1182366538    -4.1948164271     0.2091170498
   53      O      -1.6207312063    -4.2750154984     4.8966511675
   54      C      -2.8619617025    -4.8115024412     4.5021493227
   55      H       6.1894435733    -4.4821236604    -1.4406322692
   56      H       2.7038222637    -5.5473991985     1.9483681489
   57      H       0.6970597915    -0.9006170788     1.3869258643
   58      H       4.1158431036     0.2043491790    -2.0565831340
   59      H       7.6938331847    -6.7674005778    -1.8414082265
   60      H       8.5107030289    -9.0922849417    -1.8372394722
   61      H       7.4868601454   -10.8271694502    -0.4554342587
   62      H       5.5530227962   -11.4338897339     1.3011696806
   63      H       3.6551721578   -10.6123433163     2.6024316218
   64      H       2.9458325458    -8.2541836889     2.5422735751
   65      H       2.2514506108     4.7517208313    -3.7256031308
   66      H       3.4630610404     2.6980976451    -3.1024006084
   67      H       0.1444363871     5.3913300954    -2.6697030037
   68      H      -1.1742888973     1.1152783621     1.3612952824
   69      H      -2.4925683854     3.1224275121     0.7984607271
   70      H      -1.7476351587     4.7382517917    -0.8747383112
   71      H       8.5430176511    -0.9822380370    -3.0439334542
   72      H       5.4768706663    -2.5808007345    -5.6390171431
   73      H       8.1913263254    -0.7851100745    -0.7248065546
   74      H       7.1750264868    -2.0803145712    -0.0723531460
   75      H       6.5059293272    -0.4768660479    -0.2763190397
   76      H       3.3997310483    -3.3173596084    -4.7831643025
   77      H       2.8319331135    -2.3820724116    -3.3948728335
   78      H       3.4890065132    -3.9867562881    -3.1492553793
   79      H       9.4445750663    -1.1241545495    -6.5723722917
   80      H       9.7702337051    -1.7273964152    -4.9321011228
   81      H       9.1147085503    -0.0816814750    -5.1707630439
   82      H       0.6318674330    -3.2447879657     5.4330450882
   83      H      -1.8107937352    -4.6794322883     2.2157669189
   84      H       2.9649197820    -1.5399239241     3.4738431434
   85      H       3.6239923521    -3.1431352005     3.7305997394
   86      H       2.7563530329    -2.3340321224     5.0348370059
   87      H       0.6099736699    -4.9119491413    -0.1759959536
   88      H      -0.0152355772    -3.2892772848    -0.3921124748
   89      H      -1.1124728933    -4.6027541423     0.0256297715
   90      H      -3.4478461253    -4.9414749719     5.4096127785
   91      H      -3.4059410041    -4.1425442567     3.8285843042
   92      H      -2.7562492511    -5.7847853272     4.0136588718
 ----------------------------------------------------------------

   19   -2123.7413199007      9.80E-09 Convergence criterion met
 Total energy in the final basis set = -2123.74131990
 Final energy is   -2123.74131990066
 **  OPTIMIZATION CONVERGED  **

                    Orbital Energies (a.u.)
 --------------------------------------------------------------

 Alpha MOs
 -- Occupied --
-19.598 -19.521 -10.580 -10.514 -10.506 -10.498 -10.497 -10.485
-10.484 -10.484 -10.479 -10.458 -10.458 -10.455 -10.455 -10.455
-10.455 -10.454 -10.453 -10.453 -10.453 -10.453 -10.452 -10.452
-10.452 -10.451 -10.451 -10.451 -10.450 -10.448 -10.448 -10.446
-10.445 -10.445 -10.444 -10.444 -10.444 -10.444 -10.441 -10.441
-10.439 -10.439 -10.438 -10.427 -10.425 -10.420 -10.420 -10.419
-10.418 -10.414 -10.413 -10.405  -6.914  -6.906  -1.250  -1.176
 -1.006  -1.006  -0.996  -0.950  -0.947  -0.945  -0.925  -0.925
 -0.916  -0.898  -0.889  -0.887  -0.864  -0.849  -0.843  -0.842
 -0.838  -0.838  -0.829  -0.810  -0.804  -0.801  -0.795  -0.791
 -0.784  -0.782  -0.758  -0.748  -0.724  -0.720  -0.717  -0.709
 -0.698  -0.680  -0.679  -0.669  -0.669  -0.654  -0.646  -0.636
 -0.634  -0.634  -0.626  -0.603  -0.594  -0.584  -0.583  -0.579
 -0.577  -0.573  -0.569  -0.565  -0.564  -0.556  -0.551  -0.532
 -0.529  -0.528  -0.522  -0.517  -0.516  -0.509  -0.505  -0.500
 -0.498  -0.496  -0.491  -0.485  -0.483  -0.482  -0.481  -0.479
 -0.478  -0.477  -0.477  -0.472  -0.470  -0.465  -0.464  -0.464
 -0.459  -0.457  -0.455  -0.452  -0.451  -0.450  -0.445  -0.434
 -0.432  -0.432  -0.430  -0.425  -0.420  -0.416  -0.415  -0.413
 -0.410  -0.406  -0.394  -0.390  -0.390  -0.389  -0.386  -0.383
 -0.381  -0.373  -0.369  -0.364  -0.362  -0.359  -0.352  -0.341
 -0.328  -0.327  -0.321  -0.316  -0.309  -0.292  -0.290  -0.278
 -0.271  -0.260  -0.249  -0.247  -0.242  -0.158

 Beta MOs
 -- Occupied --
-19.604 -19.521 -10.583 -10.513 -10.506 -10.497 -10.496 -10.493
-10.486 -10.485 -10.479 -10.459 -10.459 -10.456 -10.456 -10.454
-10.454 -10.454 -10.454 -10.453 -10.453 -10.452 -10.452 -10.451
-10.451 -10.451 -10.451 -10.450 -10.450 -10.448 -10.448 -10.445
-10.444 -10.444 -10.444 -10.444 -10.444 -10.444 -10.441 -10.441
-10.439 -10.439 -10.439 -10.427 -10.425 -10.421 -10.421 -10.419
-10.418 -10.413 -10.413 -10.405  -6.910  -6.904  -1.262  -1.176
 -1.006  -1.006  -1.005  -0.949  -0.946  -0.945  -0.924  -0.924
 -0.917  -0.903  -0.893  -0.887  -0.864  -0.848  -0.842  -0.841
 -0.837  -0.837  -0.833  -0.808  -0.803  -0.801  -0.798  -0.793
 -0.790  -0.782  -0.758  -0.748  -0.722  -0.718  -0.716  -0.709
 -0.703  -0.682  -0.678  -0.669  -0.667  -0.652  -0.646  -0.636
 -0.634  -0.634  -0.630  -0.606  -0.594  -0.592  -0.583  -0.582
 -0.578  -0.576  -0.573  -0.564  -0.564  -0.557  -0.551  -0.532
 -0.528  -0.528  -0.524  -0.517  -0.516  -0.509  -0.509  -0.505
 -0.500  -0.496  -0.491  -0.485  -0.484  -0.482  -0.481  -0.479
 -0.478  -0.476  -0.476  -0.472  -0.470  -0.466  -0.466  -0.464
 -0.463  -0.459  -0.457  -0.455  -0.451  -0.450  -0.444  -0.435
 -0.433  -0.432  -0.429  -0.421  -0.419  -0.415  -0.413  -0.412
 -0.412  -0.407  -0.405  -0.394  -0.389  -0.387  -0.387  -0.386
 -0.383  -0.379  -0.367  -0.364  -0.360  -0.355  -0.352  -0.340
 -0.332  -0.328  -0.327  -0.309  -0.305  -0.301  -0.288  -0.288
 -0.271  -0.267  -0.252  -0.246  -0.242  -0.240

          Ground-State Mulliken Net Atomic Charges

     Atom                 Charge (a.u.)    Spin (a.u.)
  --------------------------------------------------------
      1 C                    -0.145965       0.073034
      2 C                    -0.138415      -0.025746
      3 B                     0.548924       0.388695
      4 C                    -0.135613      -0.024173
      5 C                    -0.148001       0.071845
      6 B                     0.560592       0.265659
      7 C                    -0.408990      -0.003498
      8 C                     0.065041       0.026838
      9 C                     0.062960       0.101074
     10 C                    -0.407099      -0.065253
     11 C                    -0.405198      -0.066449
     12 C                     0.063242       0.103243
     13 C                     0.064557       0.025307
     14 C                    -0.411454      -0.000944
     15 C                    -0.406394       0.063526
     16 C                    -0.232440      -0.042884
     17 C                    -0.359263       0.058900
     18 C                     0.216607      -0.036739
     19 C                    -0.076206       0.023050
     20 C                     0.174837      -0.041280
     21 C                    -0.359869       0.078008
     22 C                    -0.231716      -0.053182
     23 C                    -0.406241       0.086395
     24 C                     0.174383      -0.059361
     25 C                    -0.232008      -0.043093
     26 C                    -0.406690       0.063580
     27 C                     0.172217      -0.041220
     28 C                    -0.074921       0.023352
     29 C                     0.217053      -0.037094
     30 C                    -0.359727       0.059026
     31 C                     0.171273      -0.060307
     32 C                    -0.403268       0.087691
     33 C                    -0.232345      -0.053954
     34 C                    -0.359958       0.079469
     35 C                    -0.409304      -0.061759
     36 C                     0.099219       0.019875
     37 C                    -0.128449      -0.563554
     38 C                     0.061668       0.115283
     39 C                    -0.367733      -0.141282
     40 C                     0.470473      -0.206944
     41 C                    -0.758999       0.001305
     42 C                    -0.758976      -0.005223
     43 O                    -0.387377      -0.153961
     44 C                    -0.451933       0.014835
     45 C                    -0.409264      -0.000678
     46 C                     0.043087       0.002951
     47 C                    -0.193748      -0.023836
     48 C                     0.034148       0.002906
     49 C                    -0.457613      -0.000498
     50 C                     0.383356       0.000284
     51 C                    -0.761944       0.000714
     52 C                    -0.761568       0.000411
     53 O                    -0.473883       0.000010
     54 C                    -0.426245      -0.000002
     55 H                     0.215310       0.000699
     56 H                     0.232381       0.002554
     57 H                     0.232664       0.002639
     58 H                     0.215851       0.000188
     59 H                     0.237542      -0.003712
     60 H                     0.248499       0.002104
     61 H                     0.246285      -0.003390
     62 H                     0.245668      -0.004562
     63 H                     0.249903       0.002544
     64 H                     0.244235      -0.005027
     65 H                     0.248434       0.002116
     66 H                     0.238160      -0.003711
     67 H                     0.246168      -0.003395
     68 H                     0.244388      -0.005098
     69 H                     0.249810       0.002580
     70 H                     0.245390      -0.004652
     71 H                     0.302973       0.005505
     72 H                     0.294526       0.009428
     73 H                     0.263783       0.002996
     74 H                     0.276359      -0.004201
     75 H                     0.276170      -0.004016
     76 H                     0.262926       0.002749
     77 H                     0.272520       0.000372
     78 H                     0.273309       0.000130
     79 H                     0.287795       0.000009
     80 H                     0.263987      -0.009837
     81 H                     0.264179      -0.009864
     82 H                     0.232953       0.000348
     83 H                     0.248627       0.000285
     84 H                     0.244433      -0.000786
     85 H                     0.243308      -0.000632
     86 H                     0.241691       0.001399
     87 H                     0.243634      -0.000606
     88 H                     0.245170      -0.000795
     89 H                     0.240232       0.001275
     90 H                     0.250560       0.000007
     91 H                     0.217800       0.000003
     92 H                     0.217549       0.000003
  --------------------------------------------------------
  Sum of atomic charges =    -0.000000

                    Cartesian Multipole Moments
 -----------------------------------------------------------------
    Charge (ESU x 10^10)
                -0.0000
    Dipole Moment (Debye)
         X      12.5767      Y       3.1258      Z     -15.2831
       Tot      20.0379
    Quadrupole Moments (Debye-Ang)
        XX    -133.6305     XY       5.2452     YY    -320.2490
        XZ    -119.3412     YZ      20.0212     ZZ    -256.0748

 Total job time:  54720.00s(wall), 206463.80s(cpu)
        *  Thank you very much for using Q-Chem.  Have a nice day.  *
