 Q-Chem 5.0, Q-Chem, Inc., Pleasanton, CA (2017)
 Q-Chem 5.0.1 for Intel X86 EM64T Linux

User input:
--------------------------------------------------------------
$rem
threads 8
jobtype	sp
method PBEh-3c
basis def2-mSVP
mem_static	1024
mem_total	8000
sym_ignore	true
unrestricted true
scf_convergence	9
solvent_method	pcm
$end

$molecule
read incoords.mol
$end

$solvent
dielectric	1.0001
$end

$pcm
theory iefpcm
$end
--------------------------------------------------------------

   17   -2123.7873966240      6.85E-10 Convergence criterion met
 Total energy in the final basis set = -2123.78739662
 Total job time:  2101.39s(wall), 8166.21s(cpu)
        *  Thank you very much for using Q-Chem.  Have a nice day.  *
 Q-Chem 5.0, Q-Chem, Inc., Pleasanton, CA (2017)
 Q-Chem 5.0.1 for Intel X86 EM64T Linux

User input:
--------------------------------------------------------------

$rem
threads 8
jobtype opt
method PBEh-3c
basis def2-mSVP
scf_guess	read
mem_static      1024
mem_total       8000
sym_ignore      true
unrestricted true
mom_start       1
scf_algorithm	diis
scf_max_cycles	250
solvent_method	pcm
geom_opt_tol_energy 25
geom_opt_tol_gradient 75
$end

$solvent
dielectric      1.0001
$end

$pcm
theory iefpcm
$end

$occupied
1 2 3 4 5 6 7 8 9 10 11 12 13 14 15 16 17 18 19 20 21 22 23 24 25 26 27 28 29 30 31 32 33 34 35 36 37 38 39 40 41 42 43 44 45 46 47 48 49 50 51 52 53 54 55 56 57 58 59 60 61 62 63 64 65 66 67 68 69 70 71 72 73 74 75 76 77 78 79 80 81 82 83 84 85 86 87 88 89 90 91 92 93 94 95 96 97 98 99 100 101 102 103 104 105 106 107 108 109 110 111 112 113 114 115 116 117 118 119 120 121 122 123 124 125 126 127 128 129 130 131 132 133 134 135 136 137 138 139 140 141 142 143 144 145 146 147 148 149 150 151 152 153 154 155 156 157 158 159 160 161 162 163 164 165 166 167 168 169 170 171 172 173 174 175 176 177 178 179 180 181  183
1 2 3 4 5 6 7 8 9 10 11 12 13 14 15 16 17 18 19 20 21 22 23 24 25 26 27 28 29 30 31 32 33 34 35 36 37 38 39 40 41 42 43 44 45 46 47 48 49 50 51 52 53 54 55 56 57 58 59 60 61 62 63 64 65 66 67 68 69 70 71 72 73 74 75 76 77 78 79 80 81 82 83 84 85 86 87 88 89 90 91 92 93 94 95 96 97 98 99 100 101 102 103 104 105 106 107 108 109 110 111 112 113 114 115 116 117 118 119 120 121 122 123 124 125 126 127 128 129 130 131 132 133 134 135 136 137 138 139 140 141 142 143 144 145 146 147 148 149 150 151 152 153 154 155 156 157 158 159 160 161 162 163 164 165 166 167 168 169 170 171 172 173 174 175 176 177 178 179 180 181 182
$end

$molecule
read incoords.mol
$end

--------------------------------------------------------------

   28   -2123.6967227825      5.61E-09 Convergence criterion met
 Total energy in the final basis set = -2123.69672278
   23   -2123.6970649362      8.36E-09 Convergence criterion met
 Total energy in the final basis set = -2123.69706494
   24   -2123.6977171864      7.91E-09 Convergence criterion met
 Total energy in the final basis set = -2123.69771719
   23   -2123.6977841418      9.92E-09 Convergence criterion met
 Total energy in the final basis set = -2123.69778414
   20   -2123.6990386834      8.46E-09 Convergence criterion met
 Total energy in the final basis set = -2123.69903868
   21   -2123.7019103815      7.96E-09 Convergence criterion met
 Total energy in the final basis set = -2123.70191038
   19   -2123.7040013091      9.38E-09 Convergence criterion met
 Total energy in the final basis set = -2123.70504338
   17   -2123.7051228922      9.27E-09 Convergence criterion met
 Total energy in the final basis set = -2123.70512289
   16   -2123.7054004910      7.27E-09 Convergence criterion met
 Total energy in the final basis set = -2123.70540049
   15   -2123.7056717823      9.93E-09 Convergence criterion met
 Total energy in the final basis set = -2123.70567178
   15   -2123.7058453496      8.41E-09 Convergence criterion met
 Total energy in the final basis set = -2123.70584535
   15   -2123.7059531084      6.62E-09 Convergence criterion met
 Total energy in the final basis set = -2123.70595311
   14   -2123.7059494910      7.00E-09 Convergence criterion met
 Total energy in the final basis set = -2123.70594949

             Standard Nuclear Orientation (Angstroms)
    I     Atom           X                Y                Z
 ----------------------------------------------------------------
    1      C       2.4561040844    -1.6138878160     0.3917910063
    2      C       3.4462893555    -1.3050043187    -0.6331778488
    3      B       4.4783064682    -2.3544542300    -1.0596702921
    4      C       4.4845060499    -3.7026762477    -0.3328979334
    5      C       3.4856722805    -4.0135903235     0.6800719040
    6      B       2.4334240494    -2.9794522364     1.0870267358
    7      C       5.4214745006    -4.6863558378    -0.6998091405
    8      C       5.3661984352    -5.9351900660    -0.1415837654
    9      C       4.3422363009    -6.2579372003     0.8334078509
   10      C       3.4440316018    -5.3050396236     1.2349927083
   11      C       1.4469172495    -0.6784790887     0.6745937649
   12      C       1.3901531026     0.5064438944    -0.0109320286
   13      C       2.3965822050     0.8327640474    -1.0038427492
   14      C       3.3948015418    -0.0616299630    -1.2910090348
   15      C       7.1811531803    -7.4731949674    -1.2169745679
   16      C       7.6348943943    -8.8087760629    -1.2222530909
   17      C       7.0608558251    -9.7907558371    -0.4454743865
   18      C       5.9737800334    -9.4810470863     0.4044159309
   19      C       5.5574064124    -8.1509215293     0.4062883700
   20      C       6.1330343397    -7.1410559900    -0.3929800550
   21      C       5.2380408211   -10.3652433777     1.2274143278
   22      C       4.1724989405    -9.9002255117     1.9663914911
   23      C       3.7672645421    -8.5493470066     1.9475984398
   24      C       4.4685927453    -7.6657523128     1.1618858537
   25      C       1.8322871688     4.0549550371    -2.9691175044
   26      C       2.5430361189     2.8933503073    -2.6007747844
   27      C       2.0298150559     2.1037659854    -1.6004437644
   28      C       0.8183769805     2.4941710400    -0.9894495143
   29      C       0.0833232354     3.6200964035    -1.3529826568
   30      C       0.6405772536     4.4171381227    -2.3800200181
   31      C       0.3977256444     1.5595084628    -0.0196490119
   32      C      -0.8020765661     1.7612900984     0.6191623081
   33      C      -1.5591871359     2.8996552555     0.2758368518
   34      C      -1.1442935542     3.8062826035    -0.6754295897
   35      C       7.5733090778    -1.4075081732    -3.2077918930
   36      C       6.7279064940    -1.5993405133    -2.1147280660
   37      C       5.4412623786    -2.1110846858    -2.2836838259
   38      C       5.0172481604    -2.4356894117    -3.5837188755
   39      C       5.8591863130    -2.2428645012    -4.6659158782
   40      C       7.1393765430    -1.7274155181    -4.4866906247
   41      C       7.2181292409    -1.2609786085    -0.7342133168
   42      C       3.6420542038    -3.0008914864    -3.8098784685
   43      O       7.8783140056    -1.5743904531    -5.6077113648
   44      C       9.1722263593    -1.0512564759    -5.4893849469
   45      C       0.4993222067    -3.4067581868     4.4164860115
   46      C       1.4922156481    -3.0944828750     3.5027066794
   47      C       1.3088355355    -3.3404560281     2.1331342318
   48      C       0.1035603204    -3.9121906888     1.7182494225
   49      C      -0.8946237909    -4.2233688180     2.6411474058
   50      C      -0.7004167520    -3.9697378751     3.9918652278
   51      C       2.7811737782    -2.4866812005     3.9792244974
   52      C      -0.1320251889    -4.2033226462     0.2609149083
   53      O      -1.6103655641    -4.2325858847     4.9558777391
   54      C      -2.8486477816    -4.7682505283     4.5772817918
   55      H       6.1596864544    -4.4557354017    -1.4595129609
   56      H       2.6760336512    -5.5401001417     1.9635958578
   57      H       0.6910699289    -0.9278968479     1.4109706656
   58      H       4.1275158129     0.1537646487    -2.0606871272
   59      H       7.6513559605    -6.7435375372    -1.8633371315
   60      H       8.4589908017    -9.0721963700    -1.8722599769
   61      H       7.4357076403   -10.8056749133    -0.4959266306
   62      H       5.5043173528   -11.4143117074     1.2684638865
   63      H       3.6182975840   -10.5976794604     2.5809287587
   64      H       2.9140286656    -8.2368629175     2.5358291347
   65      H       2.2337658598     4.6760337240    -3.7590527605
   66      H       3.4597028605     2.6367446912    -3.1158332058
   67      H       0.1245120584     5.3088095795    -2.7136303228
   68      H      -1.1784213785     1.0654908154     1.3582165197
   69      H      -2.5072550321     3.0598709269     0.7723992221
   70      H      -1.7688276160     4.6585273034    -0.9130354895
   71      H       8.5643845396    -1.0074034505    -3.0354057289
   72      H       5.5312787509    -2.4915353116    -5.6685611064
   73      H       8.2059832543    -0.8008683786    -0.7539663655
   74      H       7.2813753845    -2.1531347194    -0.1072230498
   75      H       6.5401896973    -0.5708092937    -0.2285707927
   76      H       3.4617737391    -3.2110787183    -4.8640149912
   77      H       2.8648959440    -2.3118638129    -3.4731219643
   78      H       3.4966251818    -3.9322573052    -3.2583599366
   79      H       9.5841963332    -1.0076794840    -6.4957769706
   80      H       9.8236516387    -1.6828403951    -4.8759223726
   81      H       9.1762647488    -0.0399669748    -5.0691145287
   82      H       0.6418261642    -3.2131581177     5.4730435919
   83      H      -1.8164261914    -4.6621451417     2.2800902472
   84      H       2.9701787022    -1.5271059818     3.4937908605
   85      H       3.6321499482    -3.1299880912     3.7454155654
   86      H       2.7777401598    -2.3196857264     5.0560231057
   87      H       0.5945532091    -4.9212903393    -0.1253652480
   88      H      -0.0371801969    -3.3027444487    -0.3489521381
   89      H      -1.1258120373    -4.6156344892     0.0853003005
   90      H      -3.4288501698    -4.8886760569     5.4900490063
   91      H      -3.4000247856    -4.1065396073     3.9007219143
   92      H      -2.7513394672    -5.7479526135     4.0973547007
 ----------------------------------------------------------------

   14   -2123.7059254169      4.93E-09 Convergence criterion met
 Total energy in the final basis set = -2123.70592542

                    Orbital Energies (a.u.)
 --------------------------------------------------------------

 Alpha MOs
 -- Occupied --
-19.517 -19.517 -10.492 -10.492 -10.485 -10.484 -10.473 -10.472
-10.472 -10.472 -10.469 -10.469 -10.467 -10.467 -10.467 -10.466
-10.466 -10.466 -10.466 -10.466 -10.465 -10.465 -10.465 -10.465
-10.463 -10.463 -10.463 -10.462 -10.459 -10.458 -10.452 -10.451
-10.451 -10.451 -10.442 -10.441 -10.441 -10.441 -10.441 -10.440
-10.440 -10.440 -10.425 -10.424 -10.419 -10.419 -10.419 -10.419
-10.416 -10.416 -10.402 -10.402  -6.910  -6.910  -1.175  -1.175
 -1.020  -1.019  -0.962  -0.960  -0.943  -0.942  -0.938  -0.937
 -0.907  -0.899  -0.863  -0.861  -0.861  -0.860  -0.852  -0.851
 -0.844  -0.844  -0.818  -0.816  -0.815  -0.799  -0.783  -0.782
 -0.757  -0.756  -0.748  -0.746  -0.736  -0.733  -0.732  -0.722
 -0.692  -0.685  -0.681  -0.669  -0.654  -0.645  -0.643  -0.643
 -0.634  -0.634  -0.600  -0.596  -0.592  -0.590  -0.586  -0.578
 -0.577  -0.577  -0.577  -0.550  -0.550  -0.545  -0.540  -0.533
 -0.530  -0.529  -0.528  -0.523  -0.511  -0.510  -0.505  -0.500
 -0.495  -0.494  -0.486  -0.485  -0.485  -0.484  -0.483  -0.483
 -0.482  -0.469  -0.468  -0.466  -0.465  -0.464  -0.459  -0.456
 -0.455  -0.455  -0.448  -0.448  -0.446  -0.439  -0.435  -0.433
 -0.430  -0.427  -0.418  -0.418  -0.415  -0.411  -0.411  -0.409
 -0.403  -0.400  -0.399  -0.399  -0.394  -0.392  -0.392  -0.391
 -0.375  -0.368  -0.365  -0.359  -0.355  -0.349  -0.346  -0.339
 -0.334  -0.329  -0.328  -0.322  -0.300  -0.298  -0.268  -0.266
 -0.266  -0.263  -0.258  -0.240  -0.238  -0.162

 Beta MOs
 -- Occupied --
-19.517 -19.517 -10.492 -10.492 -10.485 -10.484 -10.474 -10.473
-10.473 -10.473 -10.470 -10.469 -10.467 -10.467 -10.466 -10.466
-10.465 -10.465 -10.465 -10.465 -10.465 -10.465 -10.465 -10.464
-10.463 -10.463 -10.463 -10.463 -10.460 -10.460 -10.452 -10.450
-10.450 -10.450 -10.443 -10.443 -10.442 -10.442 -10.442 -10.441
-10.440 -10.440 -10.425 -10.424 -10.419 -10.419 -10.419 -10.419
-10.416 -10.416 -10.403 -10.402  -6.907  -6.907  -1.175  -1.175
 -1.023  -1.022  -0.964  -0.962  -0.942  -0.942  -0.937  -0.937
 -0.910  -0.902  -0.862  -0.861  -0.861  -0.860  -0.851  -0.850
 -0.844  -0.843  -0.822  -0.816  -0.815  -0.806  -0.783  -0.782
 -0.756  -0.755  -0.747  -0.746  -0.736  -0.732  -0.732  -0.723
 -0.692  -0.683  -0.683  -0.670  -0.654  -0.647  -0.644  -0.643
 -0.633  -0.633  -0.598  -0.596  -0.590  -0.589  -0.585  -0.578
 -0.577  -0.577  -0.576  -0.549  -0.549  -0.546  -0.540  -0.531
 -0.531  -0.529  -0.528  -0.522  -0.511  -0.510  -0.505  -0.500
 -0.496  -0.494  -0.492  -0.491  -0.485  -0.484  -0.483  -0.482
 -0.482  -0.469  -0.467  -0.467  -0.464  -0.464  -0.459  -0.456
 -0.455  -0.454  -0.448  -0.448  -0.446  -0.440  -0.436  -0.433
 -0.432  -0.427  -0.426  -0.418  -0.415  -0.411  -0.411  -0.409
 -0.403  -0.399  -0.398  -0.398  -0.394  -0.392  -0.392  -0.391
 -0.375  -0.373  -0.365  -0.362  -0.356  -0.353  -0.348  -0.346
 -0.334  -0.329  -0.324  -0.320  -0.299  -0.299  -0.283  -0.266
 -0.266  -0.263  -0.261  -0.257  -0.240  -0.238

          Ground-State Mulliken Net Atomic Charges

     Atom                 Charge (a.u.)    Spin (a.u.)
  --------------------------------------------------------
      1 C                    -0.117452      -0.132927
      2 C                    -0.120789      -0.146486
      3 B                     0.583175       0.350872
      4 C                    -0.116508      -0.140946
      5 C                    -0.119472      -0.137035
      6 B                     0.583303       0.348188
      7 C                    -0.390023       0.054429
      8 C                     0.107282      -0.073543
      9 C                     0.103023      -0.079792
     10 C                    -0.391970       0.056849
     11 C                    -0.388677       0.054721
     12 C                     0.102697      -0.078356
     13 C                     0.107541      -0.078469
     14 C                    -0.391775       0.057675
     15 C                    -0.377113       0.054859
     16 C                    -0.203211      -0.027447
     17 C                    -0.334833       0.033098
     18 C                     0.250713      -0.001063
     19 C                    -0.059520      -0.085681
     20 C                     0.198248      -0.011361
     21 C                    -0.333921       0.030339
     22 C                    -0.203342      -0.026550
     23 C                    -0.376816       0.052657
     24 C                     0.198632      -0.010514
     25 C                    -0.202633      -0.028124
     26 C                    -0.377330       0.056193
     27 C                     0.196195      -0.010882
     28 C                    -0.058198      -0.088539
     29 C                     0.251403      -0.001150
     30 C                    -0.335391       0.034014
     31 C                     0.195431      -0.011635
     32 C                    -0.373311       0.054920
     33 C                    -0.203946      -0.027702
     34 C                    -0.333877       0.031880
     35 C                    -0.428664      -0.001367
     36 C                     0.062247       0.005514
     37 C                    -0.209353      -0.032374
     38 C                     0.053887       0.005289
     39 C                    -0.384535      -0.001758
     40 C                     0.399501       0.001417
     41 C                    -0.744925      -0.000361
     42 C                    -0.750140      -0.000846
     43 O                    -0.455419       0.000146
     44 C                    -0.403556      -0.000021
     45 C                    -0.379678      -0.001479
     46 C                     0.064227       0.004938
     47 C                    -0.213181      -0.032213
     48 C                     0.052813       0.005430
     49 C                    -0.434939      -0.001462
     50 C                     0.399988       0.001209
     51 C                    -0.748576      -0.000323
     52 C                    -0.747088      -0.000627
     53 O                    -0.455638       0.000098
     54 C                    -0.403836      -0.000014
     55 H                     0.240253      -0.002675
     56 H                     0.240748      -0.002791
     57 H                     0.241396      -0.002662
     58 H                     0.239562      -0.002802
     59 H                     0.225167      -0.003138
     60 H                     0.229306       0.001353
     61 H                     0.222301      -0.001968
     62 H                     0.222423      -0.001806
     63 H                     0.229433       0.001324
     64 H                     0.225472      -0.003002
     65 H                     0.229509       0.001386
     66 H                     0.225436      -0.003217
     67 H                     0.222517      -0.002020
     68 H                     0.226007      -0.003129
     69 H                     0.229639       0.001381
     70 H                     0.222534      -0.001902
     71 H                     0.217332       0.000427
     72 H                     0.217186       0.000443
     73 H                     0.225262       0.001507
     74 H                     0.238825      -0.000524
     75 H                     0.241494      -0.000909
     76 H                     0.231490       0.001501
     77 H                     0.240776      -0.000653
     78 H                     0.241453      -0.000813
     79 H                     0.236588       0.000009
     80 H                     0.201146       0.000021
     81 H                     0.201811       0.000019
     82 H                     0.217054       0.000453
     83 H                     0.217508       0.000404
     84 H                     0.240658      -0.000845
     85 H                     0.239573      -0.000692
     86 H                     0.230626       0.001585
     87 H                     0.240855      -0.000606
     88 H                     0.242231      -0.000827
     89 H                     0.225779       0.001432
     90 H                     0.236868       0.000008
     91 H                     0.201760       0.000016
     92 H                     0.201351       0.000016
  --------------------------------------------------------
  Sum of atomic charges =    -0.000000

                    Cartesian Multipole Moments
 -----------------------------------------------------------------
    Charge (ESU x 10^10)
                -0.0000
    Dipole Moment (Debye)
         X      -0.5796      Y      -0.3481      Z      -0.9983
       Tot       1.2057
    Quadrupole Moments (Debye-Ang)
        XX    -269.0187     XY     -11.1563     YY    -253.9116
        XZ     -16.6236     YZ     -12.2887     ZZ    -314.3939
