 Q-Chem 5.0, Q-Chem, Inc., Pleasanton, CA (2017)
 Q-Chem 5.0.1 for Intel X86 EM64T Linux

User input:
--------------------------------------------------------------
$rem
threads 8
jobtype	sp
method PBEh-3c
basis def2-mSVP
mem_static	1024
mem_total	8000
sym_ignore	true
unrestricted true
scf_convergence	9
solvent_method	pcm
$end

$molecule
read incoords.mol
$end

$solvent
dielectric	4.33
$end

$pcm
theory iefpcm
$end
--------------------------------------------------------------

   17   -2123.8186826412      3.33E-10 Convergence criterion met
 Total energy in the final basis set = -2123.81868264
 Total job time:  2314.77s(wall), 8698.55s(cpu)
        *  Thank you very much for using Q-Chem.  Have a nice day.  *
 Q-Chem 5.0, Q-Chem, Inc., Pleasanton, CA (2017)
 Q-Chem 5.0.1 for Intel X86 EM64T Linux

User input:
--------------------------------------------------------------

$rem
threads 8
jobtype opt
method PBEh-3c
basis def2-mSVP
scf_guess	read
mem_static      1024
mem_total       8000
sym_ignore      true
unrestricted true
mom_start       1
scf_algorithm	diis
scf_max_cycles	250
solvent_method	pcm
geom_opt_tol_energy 25
geom_opt_tol_gradient 75
$end

$solvent
dielectric      4.33
$end

$pcm
theory iefpcm
$end

$occupied
1 2 3 4 5 6 7 8 9 10 11 12 13 14 15 16 17 18 19 20 21 22 23 24 25 26 27 28 29 30 31 32 33 34 35 36 37 38 39 40 41 42 43 44 45 46 47 48 49 50 51 52 53 54 55 56 57 58 59 60 61 62 63 64 65 66 67 68 69 70 71 72 73 74 75 76 77 78 79 80 81 82 83 84 85 86 87 88 89 90 91 92 93 94 95 96 97 98 99 100 101 102 103 104 105 106 107 108 109 110 111 112 113 114 115 116 117 118 119 120 121 122 123 124 125 126 127 128 129 130 131 132 133 134 135 136 137 138 139 140 141 142 143 144 145 146 147 148 149 150 151 152 153 154 155 156 157 158 159 160 161 162 163 164 165 166 167 168 169 170 171 172 173 174 175 176 177 178 179 180 181  183
1 2 3 4 5 6 7 8 9 10 11 12 13 14 15 16 17 18 19 20 21 22 23 24 25 26 27 28 29 30 31 32 33 34 35 36 37 38 39 40 41 42 43 44 45 46 47 48 49 50 51 52 53 54 55 56 57 58 59 60 61 62 63 64 65 66 67 68 69 70 71 72 73 74 75 76 77 78 79 80 81 82 83 84 85 86 87 88 89 90 91 92 93 94 95 96 97 98 99 100 101 102 103 104 105 106 107 108 109 110 111 112 113 114 115 116 117 118 119 120 121 122 123 124 125 126 127 128 129 130 131 132 133 134 135 136 137 138 139 140 141 142 143 144 145 146 147 148 149 150 151 152 153 154 155 156 157 158 159 160 161 162 163 164 165 166 167 168 169 170 171 172 173 174 175 176 177 178 179 180 181 182
$end

$molecule
read incoords.mol
$end

--------------------------------------------------------------

   27   -2123.7161518260      8.09E-09 Convergence criterion met
 Total energy in the final basis set = -2123.71615183
   22   -2123.7232736164      7.85E-09 Convergence criterion met
 Total energy in the final basis set = -2123.72327362
   20   -2123.7248134313      7.17E-09 Convergence criterion met
 Total energy in the final basis set = -2123.72481343
   21   -2123.7250338140      9.70E-09 Convergence criterion met
 Total energy in the final basis set = -2123.72503381
   19   -2123.7250088617      7.53E-09 Convergence criterion met
 Total energy in the final basis set = -2123.72500886
   19   -2123.7250152987      9.80E-09 Convergence criterion met
 Total energy in the final basis set = -2123.72501530

                    Orbital Energies (a.u.)
 --------------------------------------------------------------

 Alpha MOs
 -- Occupied --
-19.560 -19.558 -10.538 -10.536 -10.499 -10.498 -10.475 -10.474
-10.471 -10.470 -10.455 -10.455 -10.455 -10.455 -10.454 -10.453
-10.452 -10.452 -10.451 -10.451 -10.451 -10.451 -10.450 -10.450
-10.450 -10.450 -10.450 -10.450 -10.449 -10.449 -10.449 -10.449
-10.445 -10.445 -10.445 -10.443 -10.442 -10.442 -10.440 -10.440
-10.438 -10.438 -10.438 -10.438 -10.430 -10.430 -10.428 -10.428
-10.416 -10.415 -10.415 -10.414  -6.909  -6.908  -1.213  -1.212
 -1.003  -1.003  -0.971  -0.970  -0.946  -0.944  -0.922  -0.922
 -0.894  -0.889  -0.888  -0.884  -0.870  -0.867  -0.841  -0.841
 -0.836  -0.836  -0.810  -0.808  -0.803  -0.799  -0.799  -0.789
 -0.776  -0.775  -0.768  -0.767  -0.721  -0.718  -0.715  -0.707
 -0.682  -0.678  -0.674  -0.667  -0.659  -0.657  -0.654  -0.651
 -0.633  -0.632  -0.603  -0.602  -0.586  -0.584  -0.581  -0.578
 -0.577  -0.577  -0.571  -0.562  -0.562  -0.550  -0.549  -0.544
 -0.540  -0.530  -0.515  -0.514  -0.507  -0.503  -0.502  -0.495
 -0.489  -0.489  -0.486  -0.485  -0.483  -0.478  -0.477  -0.476
 -0.475  -0.474  -0.474  -0.473  -0.472  -0.470  -0.468  -0.468
 -0.465  -0.457  -0.453  -0.450  -0.446  -0.444  -0.436  -0.435
 -0.433  -0.432  -0.429  -0.428  -0.420  -0.415  -0.414  -0.413
 -0.412  -0.404  -0.389  -0.389  -0.387  -0.387  -0.387  -0.384
 -0.381  -0.378  -0.364  -0.363  -0.360  -0.358  -0.358  -0.338
 -0.332  -0.323  -0.313  -0.306  -0.296  -0.295  -0.289  -0.287
 -0.275  -0.257  -0.246  -0.244  -0.220  -0.155

 Beta MOs
 -- Occupied --
-19.563 -19.561 -10.539 -10.538 -10.499 -10.498 -10.475 -10.474
-10.470 -10.469 -10.456 -10.456 -10.456 -10.455 -10.455 -10.454
-10.453 -10.453 -10.451 -10.451 -10.451 -10.450 -10.450 -10.450
-10.450 -10.450 -10.450 -10.449 -10.449 -10.449 -10.448 -10.448
-10.448 -10.446 -10.444 -10.444 -10.442 -10.441 -10.441 -10.440
-10.438 -10.438 -10.438 -10.438 -10.430 -10.430 -10.428 -10.428
-10.416 -10.415 -10.415 -10.414  -6.906  -6.905  -1.219  -1.218
 -1.003  -1.003  -0.975  -0.974  -0.945  -0.943  -0.922  -0.921
 -0.894  -0.889  -0.888  -0.885  -0.874  -0.872  -0.840  -0.840
 -0.835  -0.835  -0.810  -0.808  -0.803  -0.799  -0.798  -0.787
 -0.778  -0.777  -0.771  -0.770  -0.720  -0.716  -0.714  -0.707
 -0.682  -0.678  -0.675  -0.666  -0.659  -0.658  -0.654  -0.650
 -0.634  -0.632  -0.605  -0.604  -0.584  -0.583  -0.580  -0.578
 -0.578  -0.577  -0.571  -0.562  -0.561  -0.560  -0.559  -0.545
 -0.541  -0.530  -0.515  -0.514  -0.506  -0.503  -0.503  -0.497
 -0.491  -0.489  -0.489  -0.486  -0.484  -0.478  -0.477  -0.477
 -0.475  -0.474  -0.473  -0.473  -0.473  -0.470  -0.469  -0.468
 -0.465  -0.457  -0.453  -0.449  -0.446  -0.443  -0.442  -0.440
 -0.435  -0.435  -0.429  -0.429  -0.418  -0.416  -0.414  -0.413
 -0.409  -0.403  -0.391  -0.390  -0.387  -0.385  -0.384  -0.383
 -0.383  -0.381  -0.380  -0.372  -0.361  -0.359  -0.353  -0.337
 -0.333  -0.329  -0.306  -0.302  -0.298  -0.297  -0.285  -0.285
 -0.275  -0.270  -0.264  -0.249  -0.244  -0.237

          Ground-State Mulliken Net Atomic Charges

     Atom                 Charge (a.u.)    Spin (a.u.)
  --------------------------------------------------------
      1 C                    -0.142713       0.019967
      2 C                    -0.411808      -0.039280
      3 H                     0.218964       0.002214
      4 C                     0.085897       0.065659
      5 C                     0.059536       0.065010
      6 C                    -0.402593      -0.038621
      7 H                     0.218640       0.002240
      8 C                    -0.138744       0.015942
      9 C                     0.179076      -0.051556
     10 C                    -0.399947       0.076967
     11 H                     0.233052      -0.004513
     12 C                    -0.075648       0.023187
     13 C                     0.228977      -0.037443
     14 C                     0.180917      -0.050801
     15 C                    -0.409386       0.075955
     16 H                     0.233403      -0.004458
     17 C                    -0.227139      -0.049204
     18 H                     0.241953       0.002395
     19 C                    -0.356336       0.070785
     20 H                     0.237817      -0.004143
     21 C                    -0.224320      -0.048974
     22 H                     0.241551       0.002388
     23 C                    -0.360446       0.069345
     24 H                     0.238267      -0.004049
     25 B                     0.570180       0.319830
     26 B                     0.563933       0.330251
     27 C                    -0.137891       0.015546
     28 C                    -0.402242      -0.038043
     29 H                     0.219286       0.002310
     30 C                     0.061140       0.063927
     31 C                     0.082349       0.065912
     32 C                    -0.410375      -0.039874
     33 H                     0.219531       0.002327
     34 C                    -0.142389       0.020258
     35 C                     0.182550      -0.050769
     36 C                    -0.407982       0.075851
     37 H                     0.233536      -0.004453
     38 C                    -0.077251       0.023172
     39 C                     0.226021      -0.037293
     40 C                     0.180688      -0.051101
     41 C                    -0.400597       0.076286
     42 H                     0.232931      -0.004475
     43 C                    -0.224650      -0.048774
     44 H                     0.241592       0.002378
     45 C                    -0.359007       0.069122
     46 H                     0.238309      -0.004035
     47 C                    -0.226935      -0.048786
     48 H                     0.241960       0.002375
     49 C                    -0.355181       0.069916
     50 H                     0.237902      -0.004088
     51 C                    -0.163488      -0.280889
     52 C                     0.061422       0.001794
     53 C                    -0.437859      -0.018747
     54 H                     0.267480       0.002280
     55 C                     0.426742      -0.106773
     56 O                    -0.430334      -0.074916
     57 C                    -0.383470      -0.061382
     58 H                     0.259084       0.004408
     59 C                     0.059141       0.050054
     60 C                    -0.436637       0.007507
     61 H                     0.267206       0.000017
     62 H                     0.237567      -0.005021
     63 H                     0.237506      -0.004948
     64 C                    -0.759863       0.001225
     65 H                     0.246373       0.002138
     66 H                     0.263857      -0.002997
     67 H                     0.263332      -0.002957
     68 C                    -0.757060      -0.001969
     69 H                     0.247179       0.002071
     70 H                     0.260085      -0.000765
     71 H                     0.259158      -0.000538
     72 C                    -0.161401      -0.270096
     73 C                     0.066540       0.000487
     74 C                    -0.437795      -0.018705
     75 H                     0.266863       0.002258
     76 C                     0.425295      -0.105366
     77 O                    -0.431074      -0.072968
     78 C                    -0.388456      -0.057282
     79 H                     0.258048       0.004171
     80 C                     0.055152       0.047083
     81 C                    -0.436232       0.007349
     82 H                     0.266582       0.000019
     83 H                     0.236680      -0.004891
     84 H                     0.236540      -0.004865
     85 C                    -0.759891      -0.001696
     86 H                     0.247447       0.002103
     87 H                     0.260235      -0.000760
     88 H                     0.259965      -0.000750
     89 C                    -0.760114       0.001291
     90 H                     0.245815       0.002198
     91 H                     0.263231      -0.003009
     92 H                     0.262771      -0.002948
  --------------------------------------------------------
  Sum of atomic charges =    -0.000000

                    Cartesian Multipole Moments
 -----------------------------------------------------------------
    Charge (ESU x 10^10)
                -0.0000
    Dipole Moment (Debye)
         X      -0.0614      Y      -0.5915      Z      -0.3357
       Tot       0.6828
    Quadrupole Moments (Debye-Ang)
        XX    -208.3071     XY      13.9983     YY    -309.0619
        XZ      61.7430     YZ      10.2898     ZZ    -275.0671

             Standard Nuclear Orientation (Angstroms)
    I     Atom           X                Y                Z
 ----------------------------------------------------------------
    1      C       0.0326419691     0.4736089642     0.0677586840
    2      C       0.0126201432     0.3407930203     1.4755178923
    3      H       0.9505386059     0.2381790099     2.0133606417
    4      C      -1.1779333292     0.3354636286     2.1643967181
    5      C      -2.4050932713     0.4692339189     1.4486775110
    6      C      -2.4078822717     0.5955522506     0.0830156562
    7      H      -3.3497697231     0.6898393106    -0.4499864745
    8      C      -1.1989942500     0.6001313921    -0.6394861709
    9      C      -3.5040903612     0.4225492175     2.4036030533
   10      C      -4.8721374895     0.4951066688     2.3104328392
   11      H      -5.3744179813     0.6237002761     1.3591779630
   12      C      -2.9171520364     0.2557409090     3.6724600369
   13      C      -3.6451641366     0.1518035189     4.8545141870
   14      C      -1.5097671343     0.1971474445     3.5841456972
   15      C      -0.8002711743     0.0262502634     4.7459899335
   16      H       0.2811319872    -0.0302409933     4.7518869404
   17      C      -5.6347060249     0.3965661235     3.4963676709
   18      H      -6.7136158257     0.4536721299     3.4241079263
   19      C      -5.0553555105     0.2291176518     4.7341741595
   20      H      -5.6793197228     0.1559283143     5.6166461549
   21      C      -1.5117384974    -0.0812699565     5.9650506728
   22      H      -0.9471932748    -0.2166476388     6.8787173782
   23      C      -2.8854364558    -0.0228399041     6.0358569496
   24      H      -3.3833356825    -0.1119001806     6.9936860597
   25      B       1.3575704842     0.4652279935    -0.7092036169
   26      B      -1.2140214110     0.7265664275    -2.1675607534
   27      C       0.1144838325     0.7407352654    -2.9317680171
   28      C       0.1236383654     0.8580020420    -4.3352895082
   29      H      -0.8158236614     0.9575465590    -4.8710312890
   30      C       1.3048027176     0.8367129154    -5.0307272617
   31      C       2.5479387587     0.7009840942    -4.3439044420
   32      C       2.5581111979     0.5947340051    -2.9736047432
   33      H       3.5014516474     0.4890287205    -2.4462729272
   34      C       1.3509734487     0.6105616804    -2.2381159310
   35      C       3.6114705511     0.6788326328    -5.3516205964
   36      C       4.9785500127     0.5539462640    -5.3365164408
   37      H       5.5330098836     0.4519965496    -4.4118833397
   38      C       2.9717775999     0.7998951738    -6.6039042127
   39      C       3.6285502732     0.7981786846    -7.8329090095
   40      C       1.5734095360     0.9016336764    -6.4632898537
   41      C       0.8018383912     1.0122530996    -7.5947200185
   42      H      -0.2775199216     1.0918213576    -7.5459371665
   43      C       5.6738313039     0.5535911496    -6.5697624371
   44      H       6.7516642424     0.4538074355    -6.5518307856
   45      C       5.0374945443     0.6699011651    -7.7848113063
   46      H       5.6136474217     0.6598350994    -8.7021989020
   47      C       1.4451853765     1.0176137183    -8.8540571287
   48      H       0.8367029016     1.1039431845    -9.7455944404
   49      C       2.8115265621     0.9136995543    -8.9853192167
   50      H       3.2617771787     0.9177909546    -9.9706937434
   51      C      -2.5740330220     0.7998411000    -2.9600965682
   52      C      -3.1871020842    -0.3878501865    -3.4341156319
   53      C      -4.3675249207    -0.3382528653    -4.1506388653
   54      H      -4.8104589438    -1.2607694424    -4.5026079718
   55      C      -4.9716439865     0.8963477928    -4.4135566177
   56      O      -6.1040084148     1.0453278462    -5.0898683110
   57      C      -4.3757891231     2.0832145525    -3.9504029741
   58      H      -4.8607186207     3.0273992749    -4.1677627666
   59      C      -3.2004271750     2.0411626906    -3.2374793569
   60      C      -6.7752542111    -0.0945301809    -5.5998898353
   61      H      -7.6652947158     0.2759415794    -6.1006094464
   62      H      -6.1584600368    -0.6337187087    -6.3219189905
   63      H      -7.0729908484    -0.7761429995    -4.8005332692
   64      C      -2.5437399913    -1.7121682795    -3.1597623789
   65      H      -3.1314075586    -2.5380317014    -3.5589917719
   66      H      -1.5469284922    -1.7602284342    -3.6024481150
   67      H      -2.4172611600    -1.8712684383    -2.0873620409
   68      C      -2.5676854041     3.3082466970    -2.7492642438
   69      H      -3.1429630588     4.1861416092    -3.0403284134
   70      H      -1.5570253588     3.4171931411    -3.1468585272
   71      H      -2.4792604837     3.3046242976    -1.6614627591
   72      C       2.7195034750     0.2850879521     0.0484545955
   73      C       3.4374897867     1.4100688290     0.5188239891
   74      C       4.6426027069     1.2526891152     1.1768277332
   75      H       5.1724660912     2.1287413469     1.5271901031
   76      C       5.1597262318    -0.0326942175     1.3798320440
   77      O       6.3058945272    -0.2858943494     2.0006612479
   78      C       4.4559845889    -1.1587770654     0.9156281997
   79      H       4.8780710711    -2.1423539845     1.0843783542
   80      C       3.2556175132    -1.0090420442     0.2609636514
   81      C       7.0813488954     0.7856078792     2.5080406648
   82      H       7.9585749195     0.3363547486     2.9650112757
   83      H       6.5357949293     1.3524910939     3.2654684359
   84      H       7.4005489308     1.4623205232     1.7126768773
   85      C       2.5057285904    -2.2083958475    -0.2363867553
   86      H       3.0244963615    -3.1364818266     0.0003362361
   87      H       2.3685741095    -2.1624987606    -1.3184378123
   88      H       1.5076265755    -2.2553984327     0.2032079161
   89      C       2.8760664195     2.7796673898     0.2909968092
   90      H       3.5210684699     3.5572362009     0.6979535232
   91      H       2.7410432062     2.9717745002    -0.7753669089
   92      H       1.8906146719     2.8788915223     0.7507893822
 ----------------------------------------------------------------
