 Q-Chem 5.0, Q-Chem, Inc., Pleasanton, CA (2017)
 Q-Chem 5.0.1 for Intel X86 EM64T Linux

User input:
--------------------------------------------------------------
$rem
threads 8
jobtype	sp
method PBEh-3c
basis def2-mSVP
mem_static	1024
mem_total	8000
sym_ignore	true
unrestricted true
scf_convergence	9
solvent_method	pcm
$end

$molecule
read incoords.mol
$end

$solvent
dielectric	2.38
$end

$pcm
theory iefpcm
$end
--------------------------------------------------------------

   17   -2123.8009581912      4.13E-10 Convergence criterion met
 Total energy in the final basis set = -2123.80095819
 Total job time:  2261.95s(wall), 8565.80s(cpu)
        *  Thank you very much for using Q-Chem.  Have a nice day.  *
 Q-Chem 5.0, Q-Chem, Inc., Pleasanton, CA (2017)
 Q-Chem 5.0.1 for Intel X86 EM64T Linux

User input:
--------------------------------------------------------------

$rem
threads 8
jobtype opt
method PBEh-3c
basis def2-mSVP
scf_guess	read
mem_static      1024
mem_total       8000
sym_ignore      true
unrestricted true
mom_start       1
scf_algorithm	diis
scf_max_cycles	250
solvent_method	pcm
geom_opt_tol_energy 25
geom_opt_tol_gradient 75
$end

$solvent
dielectric      2.38
$end

$pcm
theory iefpcm
$end

$occupied
1 2 3 4 5 6 7 8 9 10 11 12 13 14 15 16 17 18 19 20 21 22 23 24 25 26 27 28 29 30 31 32 33 34 35 36 37 38 39 40 41 42 43 44 45 46 47 48 49 50 51 52 53 54 55 56 57 58 59 60 61 62 63 64 65 66 67 68 69 70 71 72 73 74 75 76 77 78 79 80 81 82 83 84 85 86 87 88 89 90 91 92 93 94 95 96 97 98 99 100 101 102 103 104 105 106 107 108 109 110 111 112 113 114 115 116 117 118 119 120 121 122 123 124 125 126 127 128 129 130 131 132 133 134 135 136 137 138 139 140 141 142 143 144 145 146 147 148 149 150 151 152 153 154 155 156 157 158 159 160 161 162 163 164 165 166 167 168 169 170 171 172 173 174 175 176 177 178 179 180 181  183
1 2 3 4 5 6 7 8 9 10 11 12 13 14 15 16 17 18 19 20 21 22 23 24 25 26 27 28 29 30 31 32 33 34 35 36 37 38 39 40 41 42 43 44 45 46 47 48 49 50 51 52 53 54 55 56 57 58 59 60 61 62 63 64 65 66 67 68 69 70 71 72 73 74 75 76 77 78 79 80 81 82 83 84 85 86 87 88 89 90 91 92 93 94 95 96 97 98 99 100 101 102 103 104 105 106 107 108 109 110 111 112 113 114 115 116 117 118 119 120 121 122 123 124 125 126 127 128 129 130 131 132 133 134 135 136 137 138 139 140 141 142 143 144 145 146 147 148 149 150 151 152 153 154 155 156 157 158 159 160 161 162 163 164 165 166 167 168 169 170 171 172 173 174 175 176 177 178 179 180 181 182
$end

$molecule
read incoords.mol
$end

--------------------------------------------------------------

   21   -2123.7183867146      8.57E-09 Convergence criterion met
 Total energy in the final basis set = -2123.71838671
   17   -2123.7188808942      7.03E-09 Convergence criterion met
 Total energy in the final basis set = -2123.71888089
   16   -2123.7190303401      9.67E-09 Convergence criterion met
 Total energy in the final basis set = -2123.71903034
   16   -2123.7191185993      9.21E-09 Convergence criterion met
 Total energy in the final basis set = -2123.71911860
   16   -2123.7191999379      8.64E-09 Convergence criterion met
 Total energy in the final basis set = -2123.71919994
   16   -2123.7192948484      8.85E-09 Convergence criterion met
 Total energy in the final basis set = -2123.71929485
   16   -2123.7193269414      8.92E-09 Convergence criterion met
   16   -2123.7206938168      8.87E-09 Convergence criterion met
 Total energy in the final basis set = -2123.72069382
   16   -2123.7206728239      9.05E-09 Convergence criterion met
 Total energy in the final basis set = -2123.72067282
   16   -2123.7206477727      9.02E-09 Convergence criterion met
 Total energy in the final basis set = -2123.72064777
   16   -2123.7206349561      9.39E-09 Convergence criterion met
 Total energy in the final basis set = -2123.72063496
   16   -2123.7206315537      9.20E-09 Convergence criterion met
 Total energy in the final basis set = -2123.72063155
   17   -2123.7206351485      8.28E-09 Convergence criterion met
 Total energy in the final basis set = -2123.72063515

             Standard Nuclear Orientation (Angstroms)
    I     Atom           X                Y                Z
 ----------------------------------------------------------------
    1      C       2.4762678102    -1.5847476016     0.3783304514
    2      C       3.4518515411    -1.2731832152    -0.6176877669
    3      B       4.4735926663    -2.3390818654    -1.0041102200
    4      C       4.5067718179    -3.7002266845    -0.3132070092
    5      C       3.5187026060    -4.0057874675     0.6706413371
    6      B       2.4554213446    -2.9653334133     1.0592601272
    7      C       5.4427541122    -4.6931895834    -0.6834541365
    8      C       5.3907374145    -5.9439004874    -0.1248707750
    9      C       4.3833568837    -6.2585191004     0.8348237802
   10      C       3.4817623908    -5.2981260066     1.2269681675
   11      C       1.4666459686    -0.6473386960     0.6613968159
   12      C       1.4071560041     0.5490521902    -0.0129342611
   13      C       2.3947856766     0.8728642806    -0.9897697542
   14      C       3.3913502146    -0.0249950653    -1.2799882668
   15      C       7.2169317512    -7.4947694246    -1.1958229866
   16      C       7.6741349595    -8.8330612672    -1.1982080113
   17      C       7.0993809105    -9.8127778167    -0.4213990821
   18      C       6.0095209677    -9.4963444390     0.4248189077
   19      C       5.5939019137    -8.1666116455     0.4220743869
   20      C       6.1676835717    -7.1583702843    -0.3774138205
   21      C       5.2726804371   -10.3829372260     1.2482405073
   22      C       4.2069655300    -9.9128603627     1.9806087775
   23      C       3.8030781380    -8.5573092833     1.9556558902
   24      C       4.5049743999    -7.6750058314     1.1713112395
   25      C       1.8332171533     4.1245050154    -2.9438495940
   26      C       2.5411816212     2.9546813086    -2.5814979008
   27      C       2.0296073266     2.1584873351    -1.5878642624
   28      C       0.8222109628     2.5502898603    -0.9742959760
   29      C       0.0895864721     3.6798992849    -1.3285728146
   30      C       0.6444065666     4.4860477394    -2.3518029789
   31      C       0.4053130765     1.6078688248    -0.0122001296
   32      C      -0.7924918732     1.8092517506     0.6271716621
   33      C      -1.5519480596     2.9544424591     0.2933936709
   34      C      -1.1396826866     3.8680015050    -0.6496196888
   35      C       7.5533006049    -1.4043047297    -3.1750961736
   36      C       6.7381041569    -1.5749063553    -2.0895152010
   37      C       5.4146344998    -2.1179699936    -2.2442741732
   38      C       4.9585913401    -2.4887352183    -3.5547122764
   39      C       5.7802275533    -2.3104117887    -4.6273498188
   40      C       7.0826388630    -1.7682989773    -4.4555674565
   41      C       7.1942464631    -1.2127374174    -0.7180455875
   42      C       3.5920187905    -3.0685719413    -3.7207685494
   43      O       7.7763150910    -1.6453152097    -5.5537535245
   44      C       9.1043247083    -1.1235384463    -5.5406700429
   45      C       0.4919514437    -3.4325329709     4.3708330245
   46      C       1.4908128943    -3.1047997750     3.4669617412
   47      C       1.3202070375    -3.3369214411     2.0937423097
   48      C       0.1206667323    -3.9100410994     1.6645298351
   49      C      -0.8837863901    -4.2377146107     2.5760771442
   50      C      -0.7015684286    -3.9980516875     3.9312375809
   51      C       2.7735980041    -2.4965229739     3.9599305327
   52      C      -0.1011552572    -4.1867091638     0.2023042141
   53      O      -1.6191855637    -4.2781524923     4.8856331569
   54      C      -2.8550830869    -4.8132930126     4.4869784968
   55      H       6.1963301440    -4.4786373196    -1.4365189471
   56      H       2.7105513973    -5.5366886992     1.9524294470
   57      H       0.7063295396    -0.8998483754     1.3935297982
   58      H       4.1197484597     0.2131110995    -2.0505582846
   59      H       7.6922542433    -6.7686961885    -1.8438398639
   60      H       8.5010656378    -9.0961248635    -1.8457519957
   61      H       7.4732219973   -10.8286931210    -0.4666186619
   62      H       5.5398495008   -11.4319337322     1.2920872880
   63      H       3.6479962502   -10.6058052599     2.5968747825
   64      H       2.9474536181    -8.2449461323     2.5414346679
   65      H       2.2377015860     4.7494965811    -3.7299773974
   66      H       3.4577040695     2.7029631275    -3.1009623146
   67      H       0.1285808494     5.3813801652    -2.6770667368
   68      H      -1.1716494335     1.1097093504     1.3620176893
   69      H      -2.4990419165     3.1095415196     0.7946273752
   70      H      -1.7615701669     4.7242157704    -0.8810865286
   71      H       8.5461777096    -0.9954240254    -3.0454955151
   72      H       5.4666628198    -2.5774686044    -5.6292553236
   73      H       8.2005659448    -0.7982211590    -0.7167987024
   74      H       7.1744604403    -2.0903936818    -0.0686544945
   75      H       6.5137205250    -0.4870755115    -0.2685377413
   76      H       3.3837512919    -3.3105072345    -4.7616937511
   77      H       2.8300679978    -2.3726665623    -3.3671279217
   78      H       3.4841944816    -3.9763995125    -3.1251405323
   79      H       9.4383206567    -1.1407491217    -6.5729479945
   80      H       9.7629778793    -1.7467130340    -4.9355412140
   81      H       9.1170396746    -0.0976359628    -5.1722439193
   82      H       0.6277322921    -3.2478176137     5.4303887707
   83      H      -1.8005066806    -4.6776149533     2.2030984176
   84      H       2.9643084029    -1.5350543701     3.4789952947
   85      H       3.6268721357    -3.1381690022     3.7299363715
   86      H       2.7587337037    -2.3346145606     5.0376624296
   87      H       0.6304792657    -4.9010032460    -0.1813745459
   88      H       0.0016125127    -3.2787878252    -0.3952871255
   89      H      -1.0937149126    -4.5965951195     0.0132357483
   90      H      -3.4445215003    -4.9457569552     5.3921028907
   91      H      -3.3993636250    -4.1442576008     3.8127004594
   92      H      -2.7490068385    -5.7864657480     3.9968955627
 ----------------------------------------------------------------

   17   -2123.7206381340      8.47E-09 Convergence criterion met
 Total energy in the final basis set = -2123.72063813
 Final energy is   -2123.72063813403
 **  OPTIMIZATION CONVERGED  **

                    Orbital Energies (a.u.)
 --------------------------------------------------------------

 Alpha MOs
 -- Occupied --
-19.607 -19.513 -10.589 -10.531 -10.515 -10.506 -10.494 -10.492
-10.492 -10.487 -10.476 -10.452 -10.451 -10.451 -10.450 -10.450
-10.449 -10.449 -10.448 -10.448 -10.447 -10.447 -10.446 -10.446
-10.446 -10.445 -10.445 -10.445 -10.445 -10.445 -10.444 -10.441
-10.441 -10.438 -10.438 -10.437 -10.437 -10.435 -10.434 -10.434
-10.434 -10.430 -10.430 -10.419 -10.415 -10.414 -10.414 -10.411
-10.409 -10.406 -10.406 -10.395  -6.908  -6.899  -1.261  -1.169
 -1.005  -0.999  -0.999  -0.943  -0.940  -0.936  -0.924  -0.919
 -0.919  -0.903  -0.888  -0.880  -0.855  -0.843  -0.839  -0.837
 -0.834  -0.833  -0.832  -0.805  -0.803  -0.799  -0.795  -0.789
 -0.784  -0.775  -0.749  -0.740  -0.718  -0.715  -0.712  -0.706
 -0.704  -0.688  -0.673  -0.664  -0.663  -0.648  -0.640  -0.638
 -0.629  -0.628  -0.627  -0.612  -0.595  -0.583  -0.579  -0.578
 -0.573  -0.570  -0.567  -0.561  -0.559  -0.555  -0.543  -0.535
 -0.527  -0.522  -0.522  -0.516  -0.512  -0.511  -0.508  -0.503
 -0.501  -0.491  -0.487  -0.486  -0.478  -0.478  -0.476  -0.475
 -0.474  -0.473  -0.469  -0.469  -0.466  -0.464  -0.463  -0.461
 -0.457  -0.456  -0.451  -0.450  -0.448  -0.442  -0.442  -0.440
 -0.428  -0.425  -0.424  -0.421  -0.416  -0.415  -0.409  -0.408
 -0.405  -0.400  -0.386  -0.386  -0.383  -0.383  -0.383  -0.381
 -0.378  -0.372  -0.361  -0.358  -0.355  -0.354  -0.343  -0.334
 -0.330  -0.321  -0.320  -0.308  -0.301  -0.285  -0.283  -0.270
 -0.261  -0.253  -0.242  -0.239  -0.233  -0.152

 Beta MOs
 -- Occupied --
-19.613 -19.513 -10.592 -10.531 -10.515 -10.505 -10.500 -10.495
-10.494 -10.487 -10.476 -10.452 -10.452 -10.451 -10.450 -10.450
-10.449 -10.449 -10.448 -10.448 -10.447 -10.447 -10.447 -10.446
-10.446 -10.446 -10.445 -10.444 -10.444 -10.444 -10.444 -10.441
-10.441 -10.438 -10.438 -10.436 -10.435 -10.435 -10.434 -10.434
-10.433 -10.431 -10.431 -10.419 -10.415 -10.415 -10.415 -10.411
-10.409 -10.405 -10.404 -10.395  -6.904  -6.897  -1.272  -1.169
 -1.014  -0.999  -0.999  -0.942  -0.939  -0.936  -0.926  -0.918
 -0.918  -0.911  -0.887  -0.880  -0.855  -0.846  -0.840  -0.836
 -0.834  -0.832  -0.831  -0.807  -0.805  -0.799  -0.795  -0.794
 -0.783  -0.775  -0.749  -0.740  -0.718  -0.715  -0.711  -0.709
 -0.703  -0.691  -0.673  -0.663  -0.661  -0.646  -0.641  -0.640
 -0.629  -0.629  -0.627  -0.615  -0.604  -0.596  -0.578  -0.577
 -0.572  -0.570  -0.568  -0.562  -0.559  -0.555  -0.543  -0.536
 -0.528  -0.522  -0.522  -0.516  -0.516  -0.512  -0.510  -0.508
 -0.500  -0.491  -0.489  -0.485  -0.480  -0.478  -0.477  -0.476
 -0.475  -0.473  -0.472  -0.468  -0.468  -0.466  -0.464  -0.461
 -0.457  -0.456  -0.451  -0.450  -0.448  -0.444  -0.442  -0.438
 -0.430  -0.425  -0.424  -0.423  -0.415  -0.413  -0.413  -0.407
 -0.405  -0.404  -0.399  -0.386  -0.383  -0.381  -0.381  -0.381
 -0.378  -0.373  -0.359  -0.359  -0.355  -0.348  -0.345  -0.335
 -0.332  -0.328  -0.320  -0.305  -0.301  -0.297  -0.282  -0.281
 -0.261  -0.260  -0.245  -0.239  -0.233  -0.232

          Ground-State Mulliken Net Atomic Charges

     Atom                 Charge (a.u.)    Spin (a.u.)
  --------------------------------------------------------
      1 C                    -0.146078       0.083623
      2 C                    -0.130823      -0.045324
      3 B                     0.543436       0.408479
      4 C                    -0.128253      -0.044057
      5 C                    -0.148423       0.083184
      6 B                     0.587443       0.252194
      7 C                    -0.406035       0.009496
      8 C                     0.078123       0.011329
      9 C                     0.073809       0.113547
     10 C                    -0.401076      -0.075052
     11 C                    -0.398983      -0.075464
     12 C                     0.074244       0.115274
     13 C                     0.077424       0.009604
     14 C                    -0.408541       0.012526
     15 C                    -0.400220       0.057352
     16 C                    -0.218026      -0.039835
     17 C                    -0.352017       0.053711
     18 C                     0.234100      -0.035769
     19 C                    -0.073363       0.022621
     20 C                     0.186655      -0.036695
     21 C                    -0.352782       0.079555
     22 C                    -0.217199      -0.053818
     23 C                    -0.398849       0.088512
     24 C                     0.185695      -0.061708
     25 C                    -0.217634      -0.039918
     26 C                    -0.400555       0.057213
     27 C                     0.183915      -0.036523
     28 C                    -0.071980       0.022858
     29 C                     0.234411      -0.036018
     30 C                    -0.352449       0.053650
     31 C                     0.182458      -0.062487
     32 C                    -0.395768       0.089532
     33 C                    -0.217898      -0.054438
     34 C                    -0.352781       0.080788
     35 C                    -0.412462      -0.031758
     36 C                     0.101284      -0.017121
     37 C                    -0.122795      -0.545294
     38 C                     0.064963       0.086963
     39 C                    -0.367537      -0.106935
     40 C                     0.464579      -0.221830
     41 C                    -0.753893       0.004146
     42 C                    -0.754363      -0.002818
     43 O                    -0.392591      -0.138027
     44 C                    -0.443590       0.013887
     45 C                    -0.395732      -0.000591
     46 C                     0.053879       0.002745
     47 C                    -0.198855      -0.023174
     48 C                     0.043730       0.002624
     49 C                    -0.447659      -0.000352
     50 C                     0.390055      -0.000068
     51 C                    -0.758631       0.000731
     52 C                    -0.757904       0.000434
     53 O                    -0.466654      -0.000115
     54 C                    -0.415111       0.000013
     55 H                     0.190593      -0.000080
     56 H                     0.231126       0.003107
     57 H                     0.231220       0.003160
     58 H                     0.191468      -0.000634
     59 H                     0.214280      -0.003410
     60 H                     0.230369       0.001997
     61 H                     0.228785      -0.003118
     62 H                     0.227977      -0.004726
     63 H                     0.234480       0.002597
     64 H                     0.231746      -0.005187
     65 H                     0.230455       0.002002
     66 H                     0.215476      -0.003396
     67 H                     0.228671      -0.003112
     68 H                     0.231858      -0.005242
     69 H                     0.234326       0.002626
     70 H                     0.227688      -0.004802
     71 H                     0.281708       0.004169
     72 H                     0.281251       0.007863
     73 H                     0.249278       0.003262
     74 H                     0.283891      -0.005931
     75 H                     0.283411      -0.005708
     76 H                     0.250441       0.002868
     77 H                     0.280634      -0.000857
     78 H                     0.281925      -0.001110
     79 H                     0.283136       0.000035
     80 H                     0.252798      -0.009107
     81 H                     0.253049      -0.009131
     82 H                     0.222693       0.000339
     83 H                     0.230137       0.000271
     84 H                     0.245202      -0.000753
     85 H                     0.243870      -0.000618
     86 H                     0.232689       0.001351
     87 H                     0.244188      -0.000598
     88 H                     0.246148      -0.000771
     89 H                     0.229157       0.001246
     90 H                     0.242662       0.000007
     91 H                     0.209544      -0.000006
     92 H                     0.208976      -0.000006
  --------------------------------------------------------
  Sum of atomic charges =    -0.000000

                    Cartesian Multipole Moments
 -----------------------------------------------------------------
    Charge (ESU x 10^10)
                -0.0000
    Dipole Moment (Debye)
         X      10.9125      Y       2.6951      Z     -13.1715
       Tot      17.3158
    Quadrupole Moments (Debye-Ang)
        XX    -156.9061     XY       7.0889     YY    -324.2752
        XZ    -104.3256     YZ      17.5364     ZZ    -263.7236

 Total job time:  51565.42s(wall), 195523.93s(cpu)
        *  Thank you very much for using Q-Chem.  Have a nice day.  *
