 Q-Chem 5.0, Q-Chem, Inc., Pleasanton, CA (2017)
 Q-Chem 5.0.1 for Intel X86 EM64T Linux

User input:
--------------------------------------------------------------
$rem
threads 8
jobtype	sp
method PBEh-3c
basis def2-mSVP
mem_static	1024
mem_total	8000
sym_ignore	true
unrestricted true
scf_convergence	9
solvent_method	pcm
$end

$molecule
read incoords.mol
$end

$solvent
dielectric	2.03
$end

$pcm
theory iefpcm
$end
--------------------------------------------------------------

   17   -2123.8096314868      4.34E-10 Convergence criterion met
 Total energy in the final basis set = -2123.80963149
 Total job time:  2117.43s(wall), 8334.10s(cpu)
        *  Thank you very much for using Q-Chem.  Have a nice day.  *
 Q-Chem 5.0, Q-Chem, Inc., Pleasanton, CA (2017)
 Q-Chem 5.0.1 for Intel X86 EM64T Linux

User input:
--------------------------------------------------------------

$rem
threads 8
jobtype opt
method PBEh-3c
basis def2-mSVP
scf_guess	read
mem_static      1024
mem_total       8000
sym_ignore      true
unrestricted true
mom_start       1
scf_algorithm	diis
scf_max_cycles	250
solvent_method	pcm
geom_opt_tol_energy 25
geom_opt_tol_gradient 75
$end

$solvent
dielectric      2.03
$end
$pcm
theory iefpcm
$end

$occupied
1 2 3 4 5 6 7 8 9 10 11 12 13 14 15 16 17 18 19 20 21 22 23 24 25 26 27 28 29 30 31 32 33 34 35 36 37 38 39 40 41 42 43 44 45 46 47 48 49 50 51 52 53 54 55 56 57 58 59 60 61 62 63 64 65 66 67 68 69 70 71 72 73 74 75 76 77 78 79 80 81 82 83 84 85 86 87 88 89 90 91 92 93 94 95 96 97 98 99 100 101 102 103 104 105 106 107 108 109 110 111 112 113 114 115 116 117 118 119 120 121 122 123 124 125 126 127 128 129 130 131 132 133 134 135 136 137 138 139 140 141 142 143 144 145 146 147 148 149 150 151 152 153 154 155 156 157 158 159 160 161 162 163 164 165 166 167 168 169 170 171 172 173 174 175 176 177 178 179 180 181  183
1 2 3 4 5 6 7 8 9 10 11 12 13 14 15 16 17 18 19 20 21 22 23 24 25 26 27 28 29 30 31 32 33 34 35 36 37 38 39 40 41 42 43 44 45 46 47 48 49 50 51 52 53 54 55 56 57 58 59 60 61 62 63 64 65 66 67 68 69 70 71 72 73 74 75 76 77 78 79 80 81 82 83 84 85 86 87 88 89 90 91 92 93 94 95 96 97 98 99 100 101 102 103 104 105 106 107 108 109 110 111 112 113 114 115 116 117 118 119 120 121 122 123 124 125 126 127 128 129 130 131 132 133 134 135 136 137 138 139 140 141 142 143 144 145 146 147 148 149 150 151 152 153 154 155 156 157 158 159 160 161 162 163 164 165 166 167 168 169 170 171 172 173 174 175 176 177 178 179 180 181 182
$end

$molecule
read incoords.mol
$end

--------------------------------------------------------------

  130   -2123.7050703604      5.10E-09 Convergence criterion met
 Total energy in the final basis set = -2123.70507036
   28   -2123.7118396841      9.51E-09 Convergence criterion met
 Total energy in the final basis set = -2123.71183968

                    Orbital Energies (a.u.)
 --------------------------------------------------------------

 Alpha MOs
 -- Occupied --
-19.564 -19.555 -10.542 -10.532 -10.506 -10.501 -10.479 -10.474
-10.471 -10.466 -10.460 -10.457 -10.453 -10.451 -10.450 -10.450
-10.448 -10.448 -10.447 -10.447 -10.447 -10.446 -10.446 -10.446
-10.446 -10.446 -10.446 -10.446 -10.446 -10.445 -10.445 -10.445
-10.445 -10.439 -10.439 -10.438 -10.438 -10.438 -10.435 -10.435
-10.434 -10.434 -10.433 -10.433 -10.433 -10.429 -10.429 -10.426
-10.411 -10.411 -10.411 -10.410  -6.907  -6.905  -1.216  -1.209
 -0.999  -0.998  -0.976  -0.968  -0.942  -0.940  -0.918  -0.918
 -0.892  -0.890  -0.885  -0.880  -0.873  -0.866  -0.837  -0.836
 -0.832  -0.832  -0.811  -0.806  -0.801  -0.796  -0.795  -0.784
 -0.778  -0.773  -0.771  -0.765  -0.717  -0.714  -0.711  -0.703
 -0.682  -0.676  -0.672  -0.663  -0.661  -0.656  -0.652  -0.647
 -0.630  -0.629  -0.608  -0.601  -0.583  -0.582  -0.581  -0.577
 -0.575  -0.574  -0.567  -0.559  -0.558  -0.555  -0.549  -0.543
 -0.538  -0.526  -0.512  -0.511  -0.508  -0.504  -0.502  -0.493
 -0.488  -0.487  -0.485  -0.484  -0.483  -0.480  -0.475  -0.475
 -0.472  -0.472  -0.471  -0.470  -0.469  -0.468  -0.467  -0.465
 -0.461  -0.455  -0.450  -0.450  -0.446  -0.442  -0.436  -0.435
 -0.432  -0.431  -0.426  -0.425  -0.419  -0.415  -0.412  -0.410
 -0.407  -0.401  -0.395  -0.388  -0.383  -0.382  -0.382  -0.380
 -0.377  -0.374  -0.365  -0.361  -0.356  -0.356  -0.355  -0.334
 -0.331  -0.317  -0.307  -0.300  -0.298  -0.292  -0.285  -0.283
 -0.269  -0.252  -0.242  -0.239  -0.222  -0.149

 Beta MOs
 -- Occupied --
-19.567 -19.558 -10.543 -10.534 -10.506 -10.501 -10.479 -10.473
-10.471 -10.466 -10.461 -10.458 -10.453 -10.452 -10.451 -10.451
-10.450 -10.447 -10.447 -10.447 -10.447 -10.447 -10.446 -10.446
-10.446 -10.446 -10.446 -10.446 -10.446 -10.445 -10.445 -10.444
-10.444 -10.441 -10.438 -10.438 -10.437 -10.437 -10.436 -10.436
-10.435 -10.435 -10.433 -10.433 -10.432 -10.429 -10.429 -10.426
-10.411 -10.411 -10.411 -10.411  -6.904  -6.903  -1.222  -1.214
 -0.998  -0.998  -0.980  -0.972  -0.941  -0.939  -0.917  -0.917
 -0.893  -0.890  -0.886  -0.881  -0.878  -0.870  -0.836  -0.835
 -0.831  -0.831  -0.812  -0.807  -0.800  -0.796  -0.795  -0.783
 -0.780  -0.775  -0.775  -0.769  -0.716  -0.712  -0.710  -0.703
 -0.683  -0.677  -0.672  -0.663  -0.662  -0.657  -0.651  -0.646
 -0.631  -0.629  -0.610  -0.603  -0.583  -0.581  -0.580  -0.577
 -0.575  -0.574  -0.568  -0.565  -0.558  -0.558  -0.557  -0.544
 -0.539  -0.526  -0.511  -0.511  -0.509  -0.503  -0.502  -0.497
 -0.489  -0.489  -0.487  -0.484  -0.483  -0.481  -0.475  -0.475
 -0.473  -0.471  -0.471  -0.471  -0.468  -0.468  -0.467  -0.465
 -0.461  -0.455  -0.451  -0.450  -0.446  -0.445  -0.441  -0.438
 -0.435  -0.432  -0.426  -0.426  -0.420  -0.414  -0.410  -0.409
 -0.404  -0.401  -0.396  -0.389  -0.386  -0.382  -0.380  -0.380
 -0.380  -0.378  -0.377  -0.369  -0.358  -0.356  -0.348  -0.333
 -0.331  -0.325  -0.301  -0.301  -0.296  -0.294  -0.281  -0.280
 -0.278  -0.268  -0.259  -0.245  -0.239  -0.232

          Ground-State Mulliken Net Atomic Charges

     Atom                 Charge (a.u.)    Spin (a.u.)
  --------------------------------------------------------
      1 C                    -0.142105       0.017991
      2 C                    -0.402380      -0.040294
      3 H                     0.213105       0.002227
      4 C                     0.083697       0.067293
      5 C                     0.068944       0.060187
      6 C                    -0.397470      -0.034925
      7 H                     0.208826       0.002130
      8 C                    -0.137845       0.005401
      9 C                     0.187720      -0.049628
     10 C                    -0.395922       0.074375
     11 H                     0.219229      -0.004408
     12 C                    -0.073952       0.022535
     13 C                     0.239605      -0.036655
     14 C                     0.188238      -0.050482
     15 C                    -0.400919       0.075379
     16 H                     0.221206      -0.004463
     17 C                    -0.215632      -0.047762
     18 H                     0.229630       0.002353
     19 C                    -0.350560       0.068317
     20 H                     0.225117      -0.004035
     21 C                    -0.214845      -0.048477
     22 H                     0.229649       0.002386
     23 C                    -0.353283       0.068914
     24 H                     0.225304      -0.004071
     25 B                     0.580934       0.316685
     26 B                     0.570505       0.336486
     27 C                    -0.133786       0.005825
     28 C                    -0.396651      -0.035148
     29 H                     0.208530       0.002102
     30 C                     0.069497       0.059941
     31 C                     0.082081       0.070059
     32 C                    -0.401181      -0.043589
     33 H                     0.213501       0.002408
     34 C                    -0.142679       0.021051
     35 C                     0.187423      -0.051713
     36 C                    -0.399783       0.076715
     37 H                     0.221454      -0.004537
     38 C                    -0.074142       0.023114
     39 C                     0.237783      -0.037106
     40 C                     0.187334      -0.050106
     41 C                    -0.395698       0.074824
     42 H                     0.219055      -0.004434
     43 C                    -0.215072      -0.049189
     44 H                     0.229697       0.002422
     45 C                    -0.352529       0.069828
     46 H                     0.225385      -0.004128
     47 C                    -0.215389      -0.048048
     48 H                     0.229718       0.002370
     49 C                    -0.350006       0.068399
     50 H                     0.225281      -0.004040
     51 C                    -0.153854      -0.284892
     52 C                     0.071770      -0.011847
     53 C                    -0.423740      -0.012282
     54 H                     0.256339       0.002067
     55 C                     0.428997      -0.120433
     56 O                    -0.428168      -0.075850
     57 C                    -0.378084      -0.052284
     58 H                     0.253667       0.003979
     59 C                     0.053098       0.043768
     60 C                    -0.431294       0.007867
     61 H                     0.262541       0.000038
     62 H                     0.229478      -0.005288
     63 H                     0.229471      -0.005300
     64 C                    -0.751906       0.002027
     65 H                     0.237768       0.002193
     66 H                     0.266090      -0.003396
     67 H                     0.265049      -0.003571
     68 C                    -0.755906      -0.001236
     69 H                     0.241113       0.002138
     70 H                     0.265372      -0.001285
     71 H                     0.263886      -0.000776
     72 C                    -0.163450      -0.240005
     73 C                     0.061173      -0.008076
     74 C                    -0.433069      -0.009109
     75 H                     0.250952       0.001681
     76 C                     0.421366      -0.100538
     77 O                    -0.433412      -0.063383
     78 C                    -0.380104      -0.045416
     79 H                     0.248026       0.003495
     80 C                     0.064954       0.036431
     81 C                    -0.427925       0.006597
     82 H                     0.259053       0.000027
     83 H                     0.226171      -0.004432
     84 H                     0.226342      -0.004386
     85 C                    -0.756420      -0.001108
     86 H                     0.239198       0.002170
     87 H                     0.261242      -0.001032
     88 H                     0.260259      -0.000954
     89 C                    -0.756034       0.002112
     90 H                     0.236402       0.001998
     91 H                     0.264216      -0.003096
     92 H                     0.262749      -0.003088
  --------------------------------------------------------
  Sum of atomic charges =    -0.000000

                    Cartesian Multipole Moments
 -----------------------------------------------------------------
    Charge (ESU x 10^10)
                -0.0000
    Dipole Moment (Debye)
         X      -1.3828      Y       1.3114      Z      -0.8254
       Tot       2.0769
    Quadrupole Moments (Debye-Ang)
        XX    -219.9519     XY      13.9277     YY    -308.2174
        XZ      59.2696     YZ       6.5293     ZZ    -281.1689

             Standard Nuclear Orientation (Angstroms)
    I     Atom           X                Y                Z
 ----------------------------------------------------------------
    1      C       0.0437060210     0.3394043707     0.0400851952
    2      C       0.0244242404     0.2438448887     1.4501941771
    3      H       0.9623507357     0.1770088630     1.9931579003
    4      C      -1.1675467631     0.2321941222     2.1374357431
    5      C      -2.3954746311     0.3096418024     1.4191713251
    6      C      -2.3988431985     0.4094985578     0.0512539328
    7      H      -3.3424245123     0.4733831261    -0.4832796054
    8      C      -1.1892598954     0.4299677389    -0.6688090416
    9      C      -3.4933592291     0.2982210078     2.3767768137
   10      C      -4.8610029970     0.3684828509     2.2847846101
   11      H      -5.3669439721     0.4387909041     1.3293968437
   12      C      -2.9024031025     0.2153206118     3.6521164205
   13      C      -3.6249652473     0.2071283996     4.8415299367
   14      C      -1.4946587916     0.1740864617     3.5638290178
   15      C      -0.7794530599     0.1200300011     4.7326951932
   16      H       0.3028956414     0.0900553786     4.7384192269
   17      C      -5.6191543074     0.3530334957     3.4772774066
   18      H      -6.6982312870     0.4069003311     3.4051351720
   19      C      -5.0353469033     0.2759317151     4.7212103997
   20      H      -5.6561561650     0.2703771190     5.6088797296
   21      C      -1.4856293765     0.1045720895     5.9591493926
   22      H      -0.9168103127     0.0603232980     6.8790767012
   23      C      -2.8593538101     0.1463449226     6.0299025685
   24      H      -3.3531032281     0.1351016806     6.9939279798
   25      B       1.3706781551     0.3500512668    -0.7345451096
   26      B      -1.2016917555     0.5632621029    -2.1953861360
   27      C       0.1227400440     0.5513166089    -2.9621014700
   28      C       0.1291468862     0.6423618272    -4.3669087459
   29      H      -0.8112336078     0.7099479402    -4.9061124014
   30      C       1.3108147900     0.6389795686    -5.0612913768
   31      C       2.5554860416     0.5603972451    -4.3723652904
   32      C       2.5681687920     0.4676808652    -3.0002873335
   33      H       3.5140139848     0.3941145332    -2.4726259212
   34      C       1.3608528798     0.4571373145    -2.2656533329
   35      C       3.6221678479     0.6254464996    -5.3761373200
   36      C       4.9945516478     0.6314238225    -5.3557681931
   37      H       5.5522507021     0.5545688415    -4.4308107113
   38      C       2.9797751595     0.7319034053    -6.6285974902
   39      C       3.6379574557     0.8441866071    -7.8512259886
   40      C       1.5777685539     0.7432546479    -6.4910996111
   41      C       0.8039872334     0.8598392652    -7.6198284750
   42      H      -0.2782417668     0.8756414624    -7.5727403052
   43      C       5.6911019855     0.7384084271    -6.5832414506
   44      H       6.7734635241     0.7398618871    -6.5620649656
   45      C       5.0518032822     0.8424644505    -7.7973760454
   46      H       5.6301970347     0.9241979115    -8.7097280547
   47      C       1.4480731642     0.9644184284    -8.8737266339
   48      H       0.8375889678     1.0537591696    -9.7636092441
   49      C       2.8180167188     0.9600780992    -9.0012877173
   50      H       3.2691681561     1.0458738412    -9.9825384455
   51      C      -2.5601506711     0.7227994782    -2.9725320131
   52      C      -3.2396282694    -0.4051415302    -3.5001897996
   53      C      -4.4333890345    -0.2594736497    -4.1797441302
   54      H      -4.9297344601    -1.1383795340    -4.5686693989
   55      C      -4.9795713179     1.0166885695    -4.3520409114
   56      O      -6.1189144927     1.2598576747    -4.9914413865
   57      C      -4.3190346298     2.1465717303    -3.8371309880
   58      H      -4.7639295831     3.1224275854    -3.9881249799
   59      C      -3.1306219297     2.0101133243    -3.1601408401
   60      C      -6.8523859671     0.1903589206    -5.5519893232
   61      H      -7.7294739674     0.6316245223    -6.0178210435
   62      H      -6.2774967520    -0.3403820541    -6.3148741475
   63      H      -7.1786663482    -0.5222689925    -4.7905652327
   64      C      -2.6525951845    -1.7688760057    -3.3126651534
   65      H      -3.2769168548    -2.5440843923    -3.7554346150
   66      H      -1.6603166126    -1.8325904401    -3.7632732242
   67      H      -2.5274996006    -1.9968325676    -2.2525299224
   68      C      -2.4343580339     3.2157698326    -2.6104782180
   69      H      -2.9447625109     4.1363759480    -2.8907021720
   70      H      -1.4058614941     3.2721359346    -2.9701686471
   71      H      -2.3851303800     3.1708251469    -1.5211708821
   72      C       2.7313730295     0.2342042342     0.0365943948
   73      C       3.4026335570     1.3923927445     0.4891468955
   74      C       4.5932559587     1.2895470962     1.1876155097
   75      H       5.0857692812     2.1911893924     1.5267309896
   76      C       5.1381836479     0.0283058858     1.4458993761
   77      O       6.2756041929    -0.1752689143     2.1091484653
   78      C       4.4824036074    -1.1303417466     0.9981739946
   79      H       4.9267537305    -2.0951845295     1.2103410239
   80      C       3.2985896352    -1.0352033455     0.3033242905
   81      C       7.0090977385     0.9314694847     2.5870548756
   82      H       7.8939970660     0.5272972245     3.0717891197
   83      H       6.4400245737     1.5104918565     3.3188521912
   84      H       7.3213951205     1.5928010472     1.7750314466
   85      C       2.5921372761    -2.2676208663    -0.1748352953
   86      H       3.1495330498    -3.1729029706     0.0629480258
   87      H       2.4392331732    -2.2361841025    -1.2550584580
   88      H       1.6020601133    -2.3495686187     0.2779489501
   89      C       2.8040218017     2.7368282880     0.2119233444
   90      H       3.4295029066     3.5462211663     0.5868502448
   91      H       2.6586899602     2.8862995061    -0.8595502229
   92      H       1.8187812000     2.8256865504     0.6741342962
 ----------------------------------------------------------------
