 Q-Chem 5.0, Q-Chem, Inc., Pleasanton, CA (2017)
 Q-Chem 5.0.1 for Intel X86 EM64T Linux

User input:
--------------------------------------------------------------
$rem
threads 8
jobtype	sp
method PBEh-3c
basis def2-mSVP
mem_static	1024
mem_total	8000
sym_ignore	true
unrestricted true
scf_convergence	9
solvent_method	pcm
$end

$molecule
read incoords.mol
$end

$solvent
dielectric	2.38
$end

$pcm
theory iefpcm
$end
--------------------------------------------------------------

   17   -2123.8118210471      4.04E-10 Convergence criterion met
 Total energy in the final basis set = -2123.81182105
 Total job time:  2337.59s(wall), 8825.91s(cpu)
        *  Thank you very much for using Q-Chem.  Have a nice day.  *
 Q-Chem 5.0, Q-Chem, Inc., Pleasanton, CA (2017)
 Q-Chem 5.0.1 for Intel X86 EM64T Linux

User input:
--------------------------------------------------------------

$rem
threads 8
jobtype opt
method PBEh-3c
basis def2-mSVP
scf_guess	read
mem_static      1024
mem_total       8000
sym_ignore      true
unrestricted true
mom_start       1
scf_algorithm	diis
scf_max_cycles	250
solvent_method	pcm
geom_opt_tol_energy 25
geom_opt_tol_gradient 75
$end

$solvent
dielectric      2.38
$end

$pcm
theory iefpcm
$end

$occupied
1 2 3 4 5 6 7 8 9 10 11 12 13 14 15 16 17 18 19 20 21 22 23 24 25 26 27 28 29 30 31 32 33 34 35 36 37 38 39 40 41 42 43 44 45 46 47 48 49 50 51 52 53 54 55 56 57 58 59 60 61 62 63 64 65 66 67 68 69 70 71 72 73 74 75 76 77 78 79 80 81 82 83 84 85 86 87 88 89 90 91 92 93 94 95 96 97 98 99 100 101 102 103 104 105 106 107 108 109 110 111 112 113 114 115 116 117 118 119 120 121 122 123 124 125 126 127 128 129 130 131 132 133 134 135 136 137 138 139 140 141 142 143 144 145 146 147 148 149 150 151 152 153 154 155 156 157 158 159 160 161 162 163 164 165 166 167 168 169 170 171 172 173 174 175 176 177 178 179 180 181  183
1 2 3 4 5 6 7 8 9 10 11 12 13 14 15 16 17 18 19 20 21 22 23 24 25 26 27 28 29 30 31 32 33 34 35 36 37 38 39 40 41 42 43 44 45 46 47 48 49 50 51 52 53 54 55 56 57 58 59 60 61 62 63 64 65 66 67 68 69 70 71 72 73 74 75 76 77 78 79 80 81 82 83 84 85 86 87 88 89 90 91 92 93 94 95 96 97 98 99 100 101 102 103 104 105 106 107 108 109 110 111 112 113 114 115 116 117 118 119 120 121 122 123 124 125 126 127 128 129 130 131 132 133 134 135 136 137 138 139 140 141 142 143 144 145 146 147 148 149 150 151 152 153 154 155 156 157 158 159 160 161 162 163 164 165 166 167 168 169 170 171 172 173 174 175 176 177 178 179 180 181 182
$end

$molecule
read incoords.mol
$end

--------------------------------------------------------------

   37   -2123.7077332019      7.66E-09 Convergence criterion met
 Total energy in the final basis set = -2123.70773320
   23   -2123.7146155818      9.81E-09 Convergence criterion met
 Total energy in the final basis set = -2123.71461558
   22   -2123.7161377080      9.70E-09 Convergence criterion met
 Total energy in the final basis set = -2123.71613771
   30   -2123.7162458720      6.26E-09 Convergence criterion met
 Total energy in the final basis set = -2123.71624587
   25   -2123.7162715070      6.51E-09 Convergence criterion met
 Total energy in the final basis set = -2123.71627151

                    Orbital Energies (a.u.)
 --------------------------------------------------------------

 Alpha MOs
 -- Occupied --
-19.562 -19.558 -10.540 -10.535 -10.504 -10.502 -10.476 -10.472
-10.471 -10.468 -10.458 -10.455 -10.453 -10.452 -10.452 -10.451
-10.449 -10.449 -10.448 -10.448 -10.448 -10.448 -10.447 -10.447
-10.447 -10.447 -10.446 -10.446 -10.446 -10.446 -10.446 -10.446
-10.445 -10.441 -10.441 -10.441 -10.438 -10.438 -10.437 -10.436
-10.434 -10.434 -10.434 -10.434 -10.431 -10.429 -10.428 -10.426
-10.412 -10.412 -10.411 -10.410  -6.906  -6.904  -1.216  -1.213
 -0.999  -0.999  -0.972  -0.968  -0.943  -0.941  -0.919  -0.919
 -0.891  -0.889  -0.887  -0.881  -0.871  -0.867  -0.838  -0.837
 -0.833  -0.833  -0.810  -0.808  -0.802  -0.797  -0.796  -0.785
 -0.776  -0.774  -0.768  -0.766  -0.718  -0.715  -0.712  -0.704
 -0.682  -0.676  -0.673  -0.664  -0.659  -0.656  -0.653  -0.648
 -0.630  -0.629  -0.605  -0.602  -0.583  -0.582  -0.579  -0.578
 -0.576  -0.575  -0.568  -0.559  -0.559  -0.553  -0.551  -0.543
 -0.539  -0.527  -0.512  -0.512  -0.506  -0.504  -0.503  -0.492
 -0.487  -0.487  -0.485  -0.484  -0.483  -0.478  -0.476  -0.475
 -0.472  -0.472  -0.471  -0.470  -0.470  -0.467  -0.467  -0.466
 -0.462  -0.455  -0.450  -0.450  -0.446  -0.443  -0.435  -0.435
 -0.434  -0.433  -0.427  -0.425  -0.418  -0.415  -0.413  -0.412
 -0.408  -0.401  -0.391  -0.388  -0.384  -0.383  -0.383  -0.381
 -0.378  -0.375  -0.364  -0.361  -0.357  -0.356  -0.356  -0.334
 -0.330  -0.320  -0.309  -0.302  -0.296  -0.293  -0.286  -0.284
 -0.270  -0.253  -0.242  -0.240  -0.219  -0.152

 Beta MOs
 -- Occupied --
-19.565 -19.560 -10.541 -10.536 -10.504 -10.502 -10.476 -10.472
-10.471 -10.467 -10.458 -10.456 -10.454 -10.452 -10.452 -10.452
-10.449 -10.449 -10.448 -10.447 -10.447 -10.447 -10.447 -10.447
-10.447 -10.447 -10.447 -10.446 -10.446 -10.446 -10.446 -10.445
-10.445 -10.445 -10.440 -10.440 -10.437 -10.437 -10.437 -10.437
-10.434 -10.434 -10.434 -10.434 -10.431 -10.428 -10.428 -10.426
-10.412 -10.412 -10.411 -10.410  -6.903  -6.901  -1.221  -1.218
 -0.999  -0.999  -0.977  -0.972  -0.942  -0.940  -0.918  -0.918
 -0.891  -0.890  -0.887  -0.881  -0.876  -0.871  -0.837  -0.836
 -0.832  -0.832  -0.811  -0.809  -0.800  -0.796  -0.795  -0.784
 -0.778  -0.776  -0.772  -0.769  -0.717  -0.713  -0.711  -0.704
 -0.682  -0.677  -0.673  -0.663  -0.661  -0.657  -0.652  -0.647
 -0.630  -0.629  -0.607  -0.604  -0.582  -0.581  -0.580  -0.577
 -0.576  -0.574  -0.568  -0.563  -0.560  -0.559  -0.559  -0.544
 -0.540  -0.527  -0.512  -0.512  -0.507  -0.504  -0.502  -0.495
 -0.489  -0.487  -0.487  -0.485  -0.483  -0.479  -0.476  -0.475
 -0.472  -0.471  -0.471  -0.470  -0.469  -0.468  -0.467  -0.466
 -0.462  -0.455  -0.451  -0.450  -0.447  -0.444  -0.442  -0.441
 -0.435  -0.433  -0.427  -0.426  -0.418  -0.415  -0.411  -0.410
 -0.405  -0.401  -0.392  -0.388  -0.385  -0.382  -0.381  -0.381
 -0.380  -0.379  -0.378  -0.370  -0.358  -0.357  -0.349  -0.333
 -0.331  -0.327  -0.302  -0.299  -0.297  -0.295  -0.282  -0.281
 -0.275  -0.268  -0.260  -0.245  -0.240  -0.233

          Ground-State Mulliken Net Atomic Charges

     Atom                 Charge (a.u.)    Spin (a.u.)
  --------------------------------------------------------
      1 C                    -0.140146       0.013811
      2 C                    -0.410111      -0.036563
      3 H                     0.210977       0.002132
      4 C                     0.093606       0.062185
      5 C                     0.065305       0.067320
      6 C                    -0.399801      -0.040661
      7 H                     0.212827       0.002330
      8 C                    -0.137585       0.018468
      9 C                     0.185243      -0.052015
     10 C                    -0.395599       0.077245
     11 H                     0.223764      -0.004558
     12 C                    -0.074363       0.023026
     13 C                     0.238417      -0.037167
     14 C                     0.187037      -0.049792
     15 C                    -0.405802       0.074468
     16 H                     0.223180      -0.004402
     17 C                    -0.219120      -0.049272
     18 H                     0.232802       0.002414
     19 C                    -0.351936       0.070972
     20 H                     0.228095      -0.004185
     21 C                    -0.216003      -0.048243
     22 H                     0.232156       0.002374
     23 C                    -0.356377       0.068088
     24 H                     0.228608      -0.004002
     25 B                     0.574015       0.326386
     26 B                     0.569683       0.326244
     27 C                    -0.136869       0.018236
     28 C                    -0.399639      -0.040130
     29 H                     0.213626       0.002381
     30 C                     0.066638       0.066318
     31 C                     0.090275       0.062539
     32 C                    -0.409150      -0.037314
     33 H                     0.211605       0.002251
     34 C                    -0.139835       0.014119
     35 C                     0.189038      -0.049820
     36 C                    -0.404556       0.074450
     37 H                     0.223299      -0.004402
     38 C                    -0.076211       0.023038
     39 C                     0.235291      -0.037067
     40 C                     0.187092      -0.051605
     41 C                    -0.396138       0.076658
     42 H                     0.223637      -0.004525
     43 C                    -0.216253      -0.048102
     44 H                     0.232207       0.002366
     45 C                    -0.354887       0.067958
     46 H                     0.228654      -0.003992
     47 C                    -0.219026      -0.048915
     48 H                     0.232763       0.002398
     49 C                    -0.350686       0.070200
     50 H                     0.228175      -0.004136
     51 C                    -0.167898      -0.262678
     52 C                     0.065008      -0.002243
     53 C                    -0.437043      -0.013923
     54 H                     0.254643       0.001992
     55 C                     0.424114      -0.101913
     56 O                    -0.430656      -0.067137
     57 C                    -0.380942      -0.053282
     58 H                     0.250339       0.003971
     59 C                     0.063148       0.043767
     60 C                    -0.429642       0.006862
     61 H                     0.262569       0.000019
     62 H                     0.231433      -0.004511
     63 H                     0.231365      -0.004466
     64 C                    -0.757357       0.001555
     65 H                     0.238604       0.002102
     66 H                     0.264847      -0.003031
     67 H                     0.264161      -0.003034
     68 C                    -0.754410      -0.001487
     69 H                     0.240793       0.002030
     70 H                     0.260959      -0.000916
     71 H                     0.259311      -0.000665
     72 C                    -0.157152      -0.281688
     73 C                     0.069997      -0.006543
     74 C                    -0.433633      -0.014545
     75 H                     0.257682       0.002139
     76 C                     0.428252      -0.114964
     77 O                    -0.427967      -0.074592
     78 C                    -0.382275      -0.056354
     79 H                     0.253422       0.004205
     80 C                     0.057442       0.045983
     81 C                    -0.431661       0.007637
     82 H                     0.264138       0.000025
     83 H                     0.232770      -0.005070
     84 H                     0.232448      -0.005004
     85 C                    -0.757115      -0.001438
     86 H                     0.242187       0.002172
     87 H                     0.263162      -0.000935
     88 H                     0.262520      -0.000902
     89 C                    -0.757416       0.001881
     90 H                     0.239522       0.002311
     91 H                     0.266568      -0.003417
     92 H                     0.265841      -0.003418
  --------------------------------------------------------
  Sum of atomic charges =    -0.000000

                    Cartesian Multipole Moments
 -----------------------------------------------------------------
    Charge (ESU x 10^10)
                -0.0000
    Dipole Moment (Debye)
         X       0.7973      Y      -0.6269      Z       0.2430
       Tot       1.0430
    Quadrupole Moments (Debye-Ang)
        XX    -215.5352     XY      13.5397     YY    -309.5971
        XZ      58.0544     YZ      10.1452     ZZ    -281.5793

             Standard Nuclear Orientation (Angstroms)
    I     Atom           X                Y                Z
 ----------------------------------------------------------------
    1      C       0.0362310634     0.4731001819     0.0627621992
    2      C       0.0160472886     0.3381176375     1.4702677626
    3      H       0.9545767678     0.2350939794     2.0070564147
    4      C      -1.1737038207     0.3317400864     2.1594870726
    5      C      -2.4008023673     0.4671619569     1.4440840786
    6      C      -2.4035453678     0.5950949177     0.0791960323
    7      H      -3.3452872390     0.6901409394    -0.4540889587
    8      C      -1.1949612373     0.5993695384    -0.6439230310
    9      C      -3.4994730036     0.4210784909     2.3990087816
   10      C      -4.8669457869     0.4977500962     2.3062986871
   11      H      -5.3686731318     0.6278342574     1.3549992399
   12      C      -2.9129540032     0.2529329373     3.6676219250
   13      C      -3.6409655352     0.1521479861     4.8496246438
   14      C      -1.5058618955     0.1930788666     3.5788965158
   15      C      -0.7970184632     0.0229874204     4.7408376575
   16      H       0.2842742645    -0.0348142509     4.7465882723
   17      C      -5.6295960524     0.4015657229     3.4919071592
   18      H      -6.7083606693     0.4617871905     3.4200530453
   19      C      -5.0505703399     0.2332157798     4.7292883037
   20      H      -5.6747710312     0.1623034854     5.6117604215
   21      C      -1.5082079824    -0.0823616955     5.9598293654
   22      H      -0.9438014763    -0.2174224596     6.8736268399
   23      C      -2.8813823297    -0.0219572921     6.0307566451
   24      H      -3.3789990269    -0.1089945559     6.9888897981
   25      B       1.3599466423     0.4677008093    -0.7154261562
   26      B      -1.2093163966     0.7249226462    -2.1714283749
   27      C       0.1175394262     0.7383656294    -2.9368268200
   28      C       0.1264088474     0.8517136106    -4.3407111388
   29      H      -0.8136055064     0.9481555476    -4.8762552055
   30      C       1.3067748814     0.8295997168    -5.0362909570
   31      C       2.5505756131     0.6976965703    -4.3498299276
   32      C       2.5606363994     0.5944575381    -2.9798234569
   33      H       3.5034403975     0.4902294980    -2.4510747578
   34      C       1.3538345559     0.6107644492    -2.2438882139
   35      C       3.6131115760     0.6759548706    -5.3582664379
   36      C       4.9803963060     0.5573362479    -5.3444171756
   37      H       5.5359024779     0.4587085180    -4.4200788026
   38      C       2.9726238747     0.7928379786    -6.6103674237
   39      C       3.6284677300     0.7931339356    -7.8395763348
   40      C       1.5744444839     0.8922373032    -6.4688863381
   41      C       0.8023249455     1.0010655230    -7.5996945118
   42      H      -0.2770952437     1.0785640090    -7.5499039359
   43      C       5.6748982378     0.5583596159    -6.5776468636
   44      H       6.7531562559     0.4632220972    -6.5601413872
   45      C       5.0376360357     0.6706989875    -7.7921170123
   46      H       5.6135062410     0.6623659822    -8.7096622570
   47      C       1.4443979233     1.0070822540    -8.8591881482
   48      H       0.8353225557     1.0917836503    -9.7504832421
   49      C       2.8105168333     0.9062977821    -8.9911129570
   50      H       3.2600823768     0.9112704355    -9.9767758037
   51      C      -2.5699617412     0.7980566306    -2.9616946742
   52      C      -3.1834645010    -0.3881854973    -3.4394349143
   53      C      -4.3680434249    -0.3361258768    -4.1482797657
   54      H      -4.8112285545    -1.2575210258    -4.5028591528
   55      C      -4.9762748119     0.8987165000    -4.3999067562
   56      O      -6.1141732314     1.0497975988    -5.0676176674
   57      C      -4.3799562500     2.0838184160    -3.9337022577
   58      H      -4.8690862635     3.0275512301    -4.1429854346
   59      C      -3.1999068009     2.0401306990    -3.2294668398
   60      C      -6.7846208555    -0.0861790552    -5.5820487653
   61      H      -7.6771645669     0.2862049356    -6.0770582476
   62      H      -6.1708963118    -0.6204582578    -6.3106643038
   63      H      -7.0794992599    -0.7743078405    -4.7868333410
   64      C      -2.5335368918    -1.7109775473    -3.1760932840
   65      H      -3.1149079671    -2.5371844360    -3.5839727917
   66      H      -1.5349304031    -1.7481826261    -3.6155399492
   67      H      -2.4086178657    -1.8775677618    -2.1046017615
   68      C      -2.5662796651     3.3041044669    -2.7357003262
   69      H      -3.1328670779     4.1849360238    -3.0349531031
   70      H      -1.5498105658     3.4060081351    -3.1195495284
   71      H      -2.4917597568     3.3004140206    -1.6467374500
   72      C       2.7205522222     0.2873236187     0.0438884116
   73      C       3.4356577493     1.4121653167     0.5185494897
   74      C       4.6355426756     1.2541217044     1.1862453488
   75      H       5.1624106643     2.1302616969     1.5409906237
   76      C       5.1506064950    -0.0307262103     1.3938720279
   77      O       6.2925452819    -0.2842646960     2.0247842209
   78      C       4.4507857901    -1.1561541485     0.9238237943
   79      H       4.8726699028    -2.1391005453     1.0962496974
   80      C       3.2556468014    -1.0065016146     0.2598009274
   81      C       7.0629546297     0.7869630997     2.5346105323
   82      H       7.9390526868     0.3393708510     2.9956568299
   83      H       6.5140564936     1.3537718972     3.2901710809
   84      H       7.3858793696     1.4650412724     1.7415224769
   85      C       2.5072338748    -2.2042621817    -0.2427220700
   86      H       3.0293493731    -3.1327622423    -0.0149611557
   87      H       2.3642504771    -2.1503466979    -1.3235246598
   88      H       1.5112847076    -2.2561971109     0.2012858730
   89      C       2.8742877377     2.7809187137     0.2864764797
   90      H       3.5206652413     3.5604360002     0.6876721661
   91      H       2.7346016293     2.9678038854    -0.7800861621
   92      H       1.8902411195     2.8818108953     0.7490748492
 ----------------------------------------------------------------
