 Q-Chem 5.0, Q-Chem, Inc., Pleasanton, CA (2017)
 Q-Chem 5.0.1 for Intel X86 EM64T Linux

User input:
--------------------------------------------------------------
$rem
threads 8
jobtype	sp
method PBEh-3c
basis def2-mSVP
mem_static	1024
mem_total	8000
sym_ignore	true
unrestricted true
scf_convergence	9
solvent_method	pcm
$end

$molecule
read incoords.mol
$end

$solvent
dielectric	4.33
$end

$pcm
theory iefpcm
$end
--------------------------------------------------------------

   17   -2123.8079555061      3.47E-10 Convergence criterion met
 Total energy in the final basis set = -2123.80795551
 Total job time:  2151.30s(wall), 8333.60s(cpu)
        *  Thank you very much for using Q-Chem.  Have a nice day.  *
 Q-Chem 5.0, Q-Chem, Inc., Pleasanton, CA (2017)
 Q-Chem 5.0.1 for Intel X86 EM64T Linux

User input:
--------------------------------------------------------------

$rem
threads 8
jobtype opt
method PBEh-3c
basis def2-mSVP
scf_guess	read
mem_static      1024
mem_total       8000
sym_ignore      true
unrestricted true
mom_start       1
scf_algorithm	diis
scf_max_cycles	250
solvent_method	pcm
geom_opt_tol_energy 25
geom_opt_tol_gradient 75
$end

$solvent
dielectric      4.33
$end

$pcm
theory iefpcm
$end

$occupied
1 2 3 4 5 6 7 8 9 10 11 12 13 14 15 16 17 18 19 20 21 22 23 24 25 26 27 28 29 30 31 32 33 34 35 36 37 38 39 40 41 42 43 44 45 46 47 48 49 50 51 52 53 54 55 56 57 58 59 60 61 62 63 64 65 66 67 68 69 70 71 72 73 74 75 76 77 78 79 80 81 82 83 84 85 86 87 88 89 90 91 92 93 94 95 96 97 98 99 100 101 102 103 104 105 106 107 108 109 110 111 112 113 114 115 116 117 118 119 120 121 122 123 124 125 126 127 128 129 130 131 132 133 134 135 136 137 138 139 140 141 142 143 144 145 146 147 148 149 150 151 152 153 154 155 156 157 158 159 160 161 162 163 164 165 166 167 168 169 170 171 172 173 174 175 176 177 178 179 180 181  183
1 2 3 4 5 6 7 8 9 10 11 12 13 14 15 16 17 18 19 20 21 22 23 24 25 26 27 28 29 30 31 32 33 34 35 36 37 38 39 40 41 42 43 44 45 46 47 48 49 50 51 52 53 54 55 56 57 58 59 60 61 62 63 64 65 66 67 68 69 70 71 72 73 74 75 76 77 78 79 80 81 82 83 84 85 86 87 88 89 90 91 92 93 94 95 96 97 98 99 100 101 102 103 104 105 106 107 108 109 110 111 112 113 114 115 116 117 118 119 120 121 122 123 124 125 126 127 128 129 130 131 132 133 134 135 136 137 138 139 140 141 142 143 144 145 146 147 148 149 150 151 152 153 154 155 156 157 158 159 160 161 162 163 164 165 166 167 168 169 170 171 172 173 174 175 176 177 178 179 180 181 182
$end

$molecule
read incoords.mol
$end

--------------------------------------------------------------

   21   -2123.7296150962      9.26E-09 Convergence criterion met
 Total energy in the final basis set = -2123.72961510
   19   -2123.7303265304      6.78E-09 Convergence criterion met
 Total energy in the final basis set = -2123.73032653
   18   -2123.7305091201      8.40E-09 Convergence criterion met
 Total energy in the final basis set = -2123.73050912
   18   -2123.7305988887      8.75E-09 Convergence criterion met
 Total energy in the final basis set = -2123.73059889
   18   -2123.7306631247      8.42E-09 Convergence criterion met
 Total energy in the final basis set = -2123.73066312
   18   -2123.7307612980      8.37E-09 Convergence criterion met
 Total energy in the final basis set = -2123.73076130
   17   -2123.7308107754      9.19E-09 Convergence criterion met
   18   -2123.7320803331      7.96E-09 Convergence criterion met
 Total energy in the final basis set = -2123.73208033
   18   -2123.7321167126      8.41E-09 Convergence criterion met
 Total energy in the final basis set = -2123.73211671
   18   -2123.7320872149      8.64E-09 Convergence criterion met
 Total energy in the final basis set = -2123.73208721
   18   -2123.7320788286      8.55E-09 Convergence criterion met
 Total energy in the final basis set = -2123.73207883
   18   -2123.7320770055      8.55E-09 Convergence criterion met
 Total energy in the final basis set = -2123.73207701
   18   -2123.7320793148      8.58E-09 Convergence criterion met
 Total energy in the final basis set = -2123.73207931

             Standard Nuclear Orientation (Angstroms)
    I     Atom           X                Y                Z
 ----------------------------------------------------------------
    1      C       2.4712577238    -1.5887274574     0.3743441826
    2      C       3.4473064751    -1.2779371853    -0.6227149293
    3      B       4.4697097092    -2.3434193651    -1.0117987932
    4      C       4.5012493094    -3.7036275056    -0.3175993327
    5      C       3.5131433675    -4.0092980277     0.6673623164
    6      B       2.4503344904    -2.9686852377     1.0561184635
    7      C       5.4385985188    -4.6956173331    -0.6864009932
    8      C       5.3881231580    -5.9462316848    -0.1262605370
    9      C       4.3801220697    -6.2616437618     0.8333836051
   10      C       3.4772132724    -5.3020585805     1.2244585102
   11      C       1.4625339723    -0.6495283857     0.6580357135
   12      C       1.4049599278     0.5475344378    -0.0153069765
   13      C       2.3934553902     0.8705174104    -0.9924097488
   14      C       3.3885464902    -0.0292639716    -1.2840289606
   15      C       7.2180180440    -7.4948089103    -1.1945498474
   16      C       7.6774178790    -8.8327284088    -1.1949059238
   17      C       7.1037506362    -9.8131060498    -0.4174052020
   18      C       6.0123371131    -9.4974532749     0.4277480074
   19      C       5.5943133297    -8.1681218569     0.4233704080
   20      C       6.1672019970    -7.1595944209    -0.3769468249
   21      C       5.2762575375   -10.3848823008     1.2514184179
   22      C       4.2086913622    -9.9159986450     1.9826935701
   23      C       3.8022861458    -8.5609154012     1.9562188383
   24      C       4.5036632313    -7.6779528283     1.1714423520
   25      C       1.8386227576     4.1258316551    -2.9426560997
   26      C       2.5443199771     2.9536392667    -2.5822148137
   27      C       2.0308827152     2.1574815905    -1.5889068430
   28      C       0.8244163314     2.5513794400    -0.9741558697
   29      C       0.0942147809     3.6834719044    -1.3268698670
   30      C       0.6505900330     4.4898642260    -2.3495970275
   31      C       0.4052580922     1.6088115980    -0.0128651057
   32      C      -0.7921532366     1.8123009426     0.6274775588
   33      C      -1.5490087892     2.9600049398     0.2951922481
   34      C      -1.1346254730     3.8739069296    -0.6472265686
   35      C       7.5535077834    -1.3989221767    -3.1746710427
   36      C       6.7356566969    -1.5716681646    -2.0921816066
   37      C       5.4151175961    -2.1189588897    -2.2508118661
   38      C       4.9626580420    -2.4905293506    -3.5610616694
   39      C       5.7857854695    -2.3111310890    -4.6322754334
   40      C       7.0874132252    -1.7650653771    -4.4574458100
   41      C       7.1893469117    -1.2063518488    -0.7200507318
   42      C       3.5971345575    -3.0728972349    -3.7325491274
   43      O       7.7821296909    -1.6408243900    -5.5516265090
   44      C       9.1108637669    -1.1135422210    -5.5386797031
   45      C       0.4920711133    -3.4322725135     4.3732402553
   46      C       1.4894561657    -3.1054691641     3.4665470284
   47      C       1.3164292082    -3.3390367078     2.0936998313
   48      C       0.1154480957    -3.9128787528     1.6680567594
   49      C      -0.8876105612    -4.2397488259     2.5819764235
   50      C      -0.7027807823    -3.9984572174     3.9368389886
   51      C       2.7728435750    -2.4969218813     3.9581193821
   52      C      -0.1104608334    -4.1918337328     0.2067889400
   53      O      -1.6184411168    -4.2773987370     4.8930472587
   54      C      -2.8571531309    -4.8138960656     4.4970625990
   55      H       6.1918791665    -4.4806165247    -1.4392561028
   56      H       2.7063598803    -5.5425583581     1.9497442693
   57      H       0.7012048941    -0.9000207584     1.3898992160
   58      H       4.1168567699     0.2080034867    -2.0546161980
   59      H       7.6925156950    -6.7686346527    -1.8430362805
   60      H       8.5052842364    -9.0947703636    -1.8416578961
   61      H       7.4792531043   -10.8284854940    -0.4612165598
   62      H       5.5453663685   -11.4333716962     1.2961891322
   63      H       3.6503207586   -10.6094226543     2.5990038488
   64      H       2.9454443475    -8.2498844320     2.5410791946
   65      H       2.2443998872     4.7505548717    -3.7283217150
   66      H       3.4598897125     2.7001912968    -3.1025113805
   67      H       0.1366290366     5.3867656154    -2.6735335256
   68      H      -1.1731011154     1.1129957179     1.3617446763
   69      H      -2.4956207578     3.1167797085     0.7968661117
   70      H      -1.7543860547     4.7319605507    -0.8777287374
   71      H       8.5448992506    -0.9870806273    -3.0430686880
   72      H       5.4745177028    -2.5793572575    -5.6346387457
   73      H       8.1944580148    -0.7892806414    -0.7199354747
   74      H       7.1737747114    -2.0831721679    -0.0695561784
   75      H       6.5081289496    -0.4802575810    -0.2724474674
   76      H       3.3941698563    -3.3142605250    -4.7745692821
   77      H       2.8319009293    -2.3782617088    -3.3834702159
   78      H       3.4878353757    -3.9822362357    -3.1394953722
   79      H       9.4440950552    -1.1313496245    -6.5709694730
   80      H       9.7688439633    -1.7348219335    -4.9315367894
   81      H       9.1171086901    -0.0878717761    -5.1705496690
   82      H       0.6312654046    -3.2457255363     5.4322426674
   83      H      -1.8052046618    -4.6800663284     2.2115525494
   84      H       2.9642936882    -1.5363939190     3.4755614279
   85      H       3.6259345794    -3.1392050260     3.7290639406
   86      H       2.7583887143    -2.3332730203     5.0355846225
   87      H       0.6195943268    -4.9072767142    -0.1778552826
   88      H      -0.0081095502    -3.2852352686    -0.3929058487
   89      H      -1.1038105899    -4.6011609399     0.0210927853
   90      H      -3.4443423983    -4.9451547418     5.4036448596
   91      H      -3.4017481217    -4.1451911718     3.8232899052
   92      H      -2.7509546322    -5.7871549758     4.0079887814
 ----------------------------------------------------------------

   18   -2123.7320811876      8.60E-09 Convergence criterion met
 Total energy in the final basis set = -2123.73208119
 Final energy is   -2123.73208118765
 **  OPTIMIZATION CONVERGED  **

                    Orbital Energies (a.u.)
 --------------------------------------------------------------

 Alpha MOs
 -- Occupied --
-19.602 -19.518 -10.584 -10.521 -10.510 -10.501 -10.492 -10.489
-10.488 -10.487 -10.478 -10.455 -10.455 -10.453 -10.453 -10.452
-10.452 -10.450 -10.450 -10.450 -10.450 -10.450 -10.450 -10.449
-10.449 -10.449 -10.449 -10.448 -10.448 -10.447 -10.445 -10.445
-10.442 -10.441 -10.441 -10.441 -10.441 -10.440 -10.439 -10.438
-10.438 -10.435 -10.434 -10.424 -10.420 -10.417 -10.417 -10.415
-10.414 -10.410 -10.410 -10.400  -6.911  -6.903  -1.255  -1.173
 -1.003  -1.003  -1.000  -0.947  -0.944  -0.941  -0.922  -0.922
 -0.919  -0.898  -0.890  -0.884  -0.860  -0.846  -0.840  -0.839
 -0.836  -0.836  -0.833  -0.807  -0.801  -0.799  -0.798  -0.788
 -0.786  -0.779  -0.754  -0.745  -0.721  -0.718  -0.715  -0.707
 -0.702  -0.683  -0.676  -0.667  -0.666  -0.651  -0.643  -0.633
 -0.631  -0.631  -0.631  -0.607  -0.594  -0.582  -0.581  -0.577
 -0.575  -0.574  -0.570  -0.563  -0.562  -0.556  -0.548  -0.530
 -0.527  -0.526  -0.525  -0.514  -0.514  -0.510  -0.507  -0.501
 -0.500  -0.494  -0.489  -0.485  -0.482  -0.480  -0.479  -0.476
 -0.476  -0.474  -0.473  -0.470  -0.468  -0.467  -0.462  -0.460
 -0.459  -0.457  -0.453  -0.453  -0.451  -0.447  -0.443  -0.437
 -0.430  -0.429  -0.427  -0.422  -0.417  -0.415  -0.412  -0.412
 -0.410  -0.403  -0.390  -0.387  -0.387  -0.387  -0.384  -0.381
 -0.381  -0.373  -0.365  -0.361  -0.359  -0.357  -0.348  -0.338
 -0.326  -0.325  -0.323  -0.312  -0.305  -0.289  -0.287  -0.274
 -0.266  -0.256  -0.246  -0.243  -0.238  -0.155

 Beta MOs
 -- Occupied --
-19.608 -19.518 -10.587 -10.521 -10.510 -10.500 -10.496 -10.492
-10.489 -10.489 -10.478 -10.456 -10.456 -10.453 -10.453 -10.452
-10.452 -10.451 -10.451 -10.451 -10.450 -10.449 -10.449 -10.449
-10.449 -10.448 -10.448 -10.447 -10.447 -10.447 -10.445 -10.444
-10.441 -10.441 -10.441 -10.440 -10.440 -10.440 -10.439 -10.438
-10.437 -10.436 -10.435 -10.424 -10.420 -10.418 -10.418 -10.415
-10.414 -10.409 -10.409 -10.401  -6.907  -6.900  -1.266  -1.173
 -1.009  -1.002  -1.002  -0.946  -0.943  -0.941  -0.921  -0.921
 -0.921  -0.906  -0.890  -0.884  -0.860  -0.845  -0.839  -0.839
 -0.836  -0.835  -0.835  -0.806  -0.802  -0.801  -0.798  -0.794
 -0.787  -0.779  -0.753  -0.744  -0.720  -0.716  -0.714  -0.706
 -0.706  -0.686  -0.676  -0.666  -0.664  -0.650  -0.643  -0.635
 -0.633  -0.632  -0.631  -0.610  -0.597  -0.594  -0.581  -0.580
 -0.575  -0.573  -0.571  -0.563  -0.561  -0.556  -0.547  -0.530
 -0.529  -0.525  -0.525  -0.516  -0.514  -0.510  -0.510  -0.507
 -0.501  -0.493  -0.488  -0.486  -0.482  -0.479  -0.479  -0.477
 -0.476  -0.473  -0.472  -0.470  -0.469  -0.469  -0.467  -0.461
 -0.460  -0.459  -0.453  -0.453  -0.451  -0.446  -0.441  -0.439
 -0.431  -0.429  -0.427  -0.419  -0.417  -0.416  -0.411  -0.410
 -0.410  -0.408  -0.402  -0.390  -0.386  -0.384  -0.384  -0.384
 -0.381  -0.376  -0.364  -0.362  -0.358  -0.352  -0.349  -0.337
 -0.331  -0.329  -0.324  -0.305  -0.303  -0.301  -0.285  -0.285
 -0.266  -0.264  -0.249  -0.243  -0.238  -0.236

          Ground-State Mulliken Net Atomic Charges

     Atom                 Charge (a.u.)    Spin (a.u.)
  --------------------------------------------------------
      1 C                    -0.146071       0.077889
      2 C                    -0.134829      -0.034034
      3 B                     0.547905       0.397107
      4 C                    -0.132147      -0.032547
      5 C                    -0.148224       0.077014
      6 B                     0.573772       0.259492
      7 C                    -0.407766       0.002032
      8 C                     0.071189       0.019958
      9 C                     0.067898       0.106826
     10 C                    -0.404338      -0.069738
     11 C                    -0.402346      -0.070632
     12 C                     0.068268       0.108799
     13 C                     0.070580       0.018379
     14 C                    -0.410316       0.004748
     15 C                    -0.404092       0.060889
     16 C                    -0.226155      -0.041599
     17 C                    -0.356380       0.056721
     18 C                     0.224696      -0.036391
     19 C                    -0.074840       0.022899
     20 C                     0.180328      -0.039250
     21 C                    -0.357066       0.078912
     22 C                    -0.225338      -0.053568
     23 C                    -0.403091       0.087534
     24 C                     0.179613      -0.060469
     25 C                    -0.225747      -0.041756
     26 C                    -0.404377       0.060866
     27 C                     0.177633      -0.039152
     28 C                    -0.073516       0.023175
     29 C                     0.225092      -0.036699
     30 C                    -0.356833       0.056772
     31 C                     0.176431      -0.061348
     32 C                    -0.400073       0.088708
     33 C                    -0.226002      -0.054274
     34 C                    -0.357124       0.080266
     35 C                    -0.411112      -0.048489
     36 C                     0.099682       0.003654
     37 C                    -0.126318      -0.556639
     38 C                     0.062908       0.103304
     39 C                    -0.367851      -0.126529
     40 C                     0.467764      -0.213577
     41 C                    -0.756710       0.002547
     42 C                    -0.756989      -0.004213
     43 O                    -0.389649      -0.147070
     44 C                    -0.448415       0.014435
     45 C                    -0.403452      -0.000639
     46 C                     0.048101       0.002859
     47 C                    -0.196098      -0.023423
     48 C                     0.038551       0.002798
     49 C                    -0.453447      -0.000445
     50 C                     0.386284       0.000181
     51 C                    -0.760753       0.000725
     52 C                    -0.760148       0.000424
     53 O                    -0.470871      -0.000022
     54 C                    -0.421426       0.000002
     55 H                     0.203520       0.000372
     56 H                     0.231915       0.002806
     57 H                     0.232101       0.002879
     58 H                     0.204293      -0.000159
     59 H                     0.226815      -0.003587
     60 H                     0.240325       0.002060
     61 H                     0.238395      -0.003278
     62 H                     0.237651      -0.004648
     63 H                     0.243019       0.002572
     64 H                     0.238827      -0.005109
     65 H                     0.240331       0.002070
     66 H                     0.227722      -0.003581
     67 H                     0.238273      -0.003279
     68 H                     0.238972      -0.005172
     69 H                     0.242898       0.002606
     70 H                     0.237360      -0.004732
     71 H                     0.293717       0.004921
     72 H                     0.288929       0.008762
     73 H                     0.257198       0.003106
     74 H                     0.280124      -0.004971
     75 H                     0.279830      -0.004763
     76 H                     0.257251       0.002804
     77 H                     0.276536      -0.000151
     78 H                     0.277630      -0.000396
     79 H                     0.286169       0.000019
     80 H                     0.259135      -0.009514
     81 H                     0.259368      -0.009544
     82 H                     0.228239       0.000343
     83 H                     0.240051       0.000279
     84 H                     0.245165      -0.000769
     85 H                     0.243949      -0.000626
     86 H                     0.237344       0.001379
     87 H                     0.244268      -0.000600
     88 H                     0.246035      -0.000782
     89 H                     0.234837       0.001263
     90 H                     0.247164       0.000007
     91 H                     0.214134       0.000001
     92 H                     0.213728       0.000001
  --------------------------------------------------------
  Sum of atomic charges =    -0.000000

                    Cartesian Multipole Moments
 -----------------------------------------------------------------
    Charge (ESU x 10^10)
                -0.0000
    Dipole Moment (Debye)
         X      11.8520      Y       2.9406      Z     -14.3385
       Tot      18.8337
    Quadrupole Moments (Debye-Ang)
        XX    -144.0335     XY       6.2985     YY    -322.6377
        XZ    -112.6250     YZ      19.0049     ZZ    -259.5273

 Total job time:  53565.67s(wall), 207347.31s(cpu)
        *  Thank you very much for using Q-Chem.  Have a nice day.  *
