 Q-Chem 5.0, Q-Chem, Inc., Pleasanton, CA (2017)
 Q-Chem 5.0.1 for Intel X86 EM64T Linux

User input:
--------------------------------------------------------------
$rem
threads 8
jobtype sp
method PBEh-3c
basis def2-mSVP
mem_static      1024
mem_total       8000
sym_ignore      true
unrestricted true
scf_algorithm	diis
scf_max_cycles	250
solvent_method  pcm
$end

$pcm
theory  iefpcm
$end

$solvent
dielectric      1.0001
$end

$molecule
read uincoords.mol
$end

--------------------------------------------------------------

   99   -2123.7021705188      6.22E-06 Convergence criterion met
 Total energy in the final basis set = -2123.70217052
 Total job time:  6934.83s(wall), 23731.20s(cpu)
        *  Thank you very much for using Q-Chem.  Have a nice day.  *
 Q-Chem 5.0, Q-Chem, Inc., Pleasanton, CA (2017)
 Q-Chem 5.0.1 for Intel X86 EM64T Linux

User input:
--------------------------------------------------------------

$rem
threads 8
jobtype opt
method PBEh-3c
basis def2-mSVP
mem_static      1024
mem_total       8000
sym_ignore      true
unrestricted true
scf_algorithm   diis
scf_max_cycles  250
solvent_method  pcm
geom_opt_tol_energy 25
geom_opt_tol_gradient 75
scf_guess	read
mom_start	1
$end

$pcm
theory  iefpcm
$end

$solvent
dielectric      1.0001
$end

$molecule
read uincoords.mol
$end

--------------------------------------------------------------

   26   -2123.7015311620      6.59E-09 Convergence criterion met
 Total energy in the final basis set = -2123.70153116
   22   -2123.7124012771      9.54E-09 Convergence criterion met
 Total energy in the final basis set = -2123.71240128
   22   -2123.7135812002      9.50E-09 Convergence criterion met
 Total energy in the final basis set = -2123.71358120
   18   -2123.7136637724      6.94E-09 Convergence criterion met
 Total energy in the final basis set = -2123.71366377
   16   -2123.7137475820      7.78E-09 Convergence criterion met
 Total energy in the final basis set = -2123.71374758
   17   -2123.7138693655      9.89E-09 Convergence criterion met
 Total energy in the final basis set = -2123.71386937
   17   -2123.7139386270      8.19E-09 Convergence criterion met
 Total energy in the final basis set = -2123.71394644
   18   -2123.7140033729      5.96E-09 Convergence criterion met
 Total energy in the final basis set = -2123.71400337
   17   -2123.7140267472      9.45E-09 Convergence criterion met
 Total energy in the final basis set = -2123.71402675
   17   -2123.7141250801      8.54E-09 Convergence criterion met
 Total energy in the final basis set = -2123.71412508
   18   -2123.7141662910      8.82E-09 Convergence criterion met
 Total energy in the final basis set = -2123.71416629
   18   -2123.7143360545      9.76E-09 Convergence criterion met
 Total energy in the final basis set = -2123.71433605
   19   -2123.7146257299      9.68E-09 Convergence criterion met
 Total energy in the final basis set = -2123.71462573
   18   -2123.7149098103      6.76E-09 Convergence criterion met
 Total energy in the final basis set = -2123.71490981

                    Orbital Energies (a.u.)
 --------------------------------------------------------------

 Alpha MOs
 -- Occupied --
-19.518 -19.518 -10.493 -10.493 -10.485 -10.485 -10.474 -10.473
-10.473 -10.473 -10.467 -10.467 -10.466 -10.465 -10.465 -10.465
-10.465 -10.465 -10.464 -10.464 -10.464 -10.464 -10.464 -10.464
-10.461 -10.461 -10.461 -10.461 -10.459 -10.458 -10.451 -10.451
-10.451 -10.450 -10.444 -10.443 -10.443 -10.443 -10.442 -10.442
-10.442 -10.442 -10.426 -10.426 -10.421 -10.421 -10.421 -10.420
-10.418 -10.418 -10.404 -10.404  -6.916  -6.916  -1.176  -1.176
 -1.021  -1.021  -0.965  -0.962  -0.945  -0.944  -0.936  -0.936
 -0.911  -0.902  -0.864  -0.863  -0.862  -0.860  -0.851  -0.850
 -0.846  -0.845  -0.824  -0.816  -0.815  -0.807  -0.784  -0.784
 -0.759  -0.757  -0.749  -0.748  -0.736  -0.734  -0.733  -0.722
 -0.692  -0.687  -0.682  -0.671  -0.655  -0.646  -0.645  -0.644
 -0.636  -0.635  -0.599  -0.596  -0.591  -0.591  -0.585  -0.579
 -0.578  -0.578  -0.577  -0.552  -0.551  -0.546  -0.541  -0.533
 -0.531  -0.530  -0.529  -0.523  -0.512  -0.510  -0.505  -0.500
 -0.495  -0.494  -0.493  -0.491  -0.485  -0.485  -0.484  -0.483
 -0.482  -0.470  -0.468  -0.467  -0.466  -0.465  -0.460  -0.458
 -0.457  -0.455  -0.450  -0.450  -0.445  -0.441  -0.440  -0.435
 -0.435  -0.430  -0.429  -0.420  -0.417  -0.412  -0.412  -0.410
 -0.402  -0.400  -0.400  -0.398  -0.395  -0.394  -0.392  -0.392
 -0.380  -0.378  -0.367  -0.365  -0.358  -0.355  -0.352  -0.348
 -0.337  -0.332  -0.331  -0.324  -0.303  -0.301  -0.292  -0.271
 -0.269  -0.267  -0.267  -0.259  -0.242  -0.240  -0.170

 Beta MOs
 -- Occupied --
-19.518 -19.518 -10.493 -10.493 -10.485 -10.485 -10.470 -10.470
-10.470 -10.469 -10.468 -10.468 -10.466 -10.466 -10.466 -10.465
-10.464 -10.463 -10.463 -10.463 -10.463 -10.463 -10.462 -10.462
-10.462 -10.462 -10.462 -10.462 -10.456 -10.456 -10.453 -10.452
-10.452 -10.452 -10.443 -10.443 -10.442 -10.442 -10.440 -10.440
-10.439 -10.439 -10.426 -10.426 -10.421 -10.421 -10.421 -10.420
-10.418 -10.418 -10.404 -10.404  -6.914  -6.914  -1.176  -1.176
 -1.018  -1.018  -0.960  -0.957  -0.944  -0.944  -0.935  -0.935
 -0.906  -0.898  -0.863  -0.863  -0.861  -0.859  -0.849  -0.848
 -0.845  -0.845  -0.815  -0.814  -0.813  -0.796  -0.784  -0.784
 -0.758  -0.757  -0.749  -0.748  -0.734  -0.730  -0.730  -0.720
 -0.690  -0.681  -0.679  -0.666  -0.655  -0.644  -0.644  -0.642
 -0.635  -0.635  -0.597  -0.594  -0.589  -0.589  -0.584  -0.578
 -0.578  -0.577  -0.575  -0.551  -0.551  -0.543  -0.539  -0.531
 -0.530  -0.530  -0.529  -0.522  -0.511  -0.508  -0.503  -0.499
 -0.493  -0.493  -0.485  -0.484  -0.483  -0.483  -0.482  -0.481
 -0.481  -0.470  -0.468  -0.466  -0.466  -0.465  -0.459  -0.457
 -0.457  -0.454  -0.450  -0.449  -0.444  -0.438  -0.436  -0.434
 -0.428  -0.423  -0.419  -0.414  -0.413  -0.412  -0.412  -0.408
 -0.401  -0.397  -0.395  -0.395  -0.394  -0.394  -0.391  -0.391
 -0.374  -0.367  -0.366  -0.356  -0.354  -0.350  -0.347  -0.338
 -0.334  -0.330  -0.322  -0.318  -0.296  -0.295  -0.267  -0.267
 -0.260  -0.255  -0.248  -0.242  -0.240

          Ground-State Mulliken Net Atomic Charges

     Atom                 Charge (a.u.)    Spin (a.u.)
  --------------------------------------------------------
      1 C                    -0.124756       0.217299
      2 C                    -0.124668       0.228624
      3 B                     0.602313       0.200234
      4 C                    -0.122739       0.231013
      5 C                    -0.124476       0.222524
      6 B                     0.602805       0.203133
      7 C                    -0.389337      -0.147582
      8 C                     0.105973       0.237008
      9 C                     0.097482       0.244666
     10 C                    -0.388054      -0.150246
     11 C                    -0.386382      -0.148116
     12 C                     0.099417       0.241975
     13 C                     0.104700       0.235289
     14 C                    -0.390866      -0.146294
     15 C                    -0.376830       0.138575
     16 C                    -0.203343      -0.098484
     17 C                    -0.334960       0.145157
     18 C                     0.249322      -0.094293
     19 C                    -0.059638       0.140956
     20 C                     0.197355      -0.116021
     21 C                    -0.334084       0.149445
     22 C                    -0.203440      -0.099887
     23 C                    -0.376456       0.141804
     24 C                     0.197850      -0.117142
     25 C                    -0.202951      -0.098421
     26 C                    -0.377031       0.138144
     27 C                     0.194701      -0.115897
     28 C                    -0.058288       0.140247
     29 C                     0.249858      -0.094039
     30 C                    -0.335322       0.144697
     31 C                     0.194654      -0.116717
     32 C                    -0.372965       0.141994
     33 C                    -0.203972      -0.100018
     34 C                    -0.334196       0.150211
     35 C                    -0.428601      -0.000066
     36 C                     0.063894       0.001920
     37 C                    -0.211807      -0.017989
     38 C                     0.054605       0.001607
     39 C                    -0.384355      -0.000066
     40 C                     0.400415      -0.000250
     41 C                    -0.746944       0.001094
     42 C                    -0.752296       0.001316
     43 O                    -0.455226      -0.000023
     44 C                    -0.404006       0.000005
     45 C                    -0.378438      -0.000150
     46 C                     0.062995       0.001926
     47 C                    -0.215182      -0.018328
     48 C                     0.054541       0.001644
     49 C                    -0.434602       0.000050
     50 C                     0.400641      -0.000241
     51 C                    -0.749436       0.001508
     52 C                    -0.749320       0.001077
     53 O                    -0.455262      -0.000029
     54 C                    -0.404402       0.000004
     55 H                     0.239976       0.005836
     56 H                     0.240083       0.005979
     57 H                     0.240997       0.005885
     58 H                     0.239206       0.005794
     59 H                     0.223779      -0.008236
     60 H                     0.228398       0.004849
     61 H                     0.221551      -0.008542
     62 H                     0.221736      -0.008796
     63 H                     0.228629       0.004899
     64 H                     0.224339      -0.008434
     65 H                     0.228432       0.004849
     66 H                     0.224074      -0.008200
     67 H                     0.221566      -0.008516
     68 H                     0.224504      -0.008435
     69 H                     0.228545       0.004904
     70 H                     0.221623      -0.008848
     71 H                     0.218215       0.000268
     72 H                     0.218127       0.000242
     73 H                     0.226608       0.001097
     74 H                     0.239719      -0.000462
     75 H                     0.241760      -0.000668
     76 H                     0.232860       0.001049
     77 H                     0.240926      -0.000544
     78 H                     0.242751      -0.000808
     79 H                     0.237007       0.000008
     80 H                     0.201437      -0.000002
     81 H                     0.201617      -0.000003
     82 H                     0.217532       0.000272
     83 H                     0.218222       0.000233
     84 H                     0.243736      -0.000979
     85 H                     0.238575      -0.000360
     86 H                     0.231424       0.001089
     87 H                     0.239570      -0.000431
     88 H                     0.245414      -0.000876
     89 H                     0.227049       0.001040
     90 H                     0.237340       0.000006
     91 H                     0.202066      -0.000003
     92 H                     0.201716      -0.000003
  --------------------------------------------------------
  Sum of atomic charges =    -0.000000

                    Cartesian Multipole Moments
 -----------------------------------------------------------------
    Charge (ESU x 10^10)
                -0.0000
    Dipole Moment (Debye)
         X      -0.4904      Y      -0.4166      Z      -0.9104
       Tot       1.1148
    Quadrupole Moments (Debye-Ang)
        XX    -268.2214     XY      -9.8934     YY    -258.0444
        XZ     -17.0522     YZ     -12.0499     ZZ    -313.5330

             Standard Nuclear Orientation (Angstroms)
    I     Atom           X                Y                Z
 ----------------------------------------------------------------
    1      C       2.4485429948    -1.6116150591     0.3822368978
    2      C       3.4366241717    -1.3057630090    -0.6437854645
    3      B       4.4691462177    -2.3559533736    -1.0650399486
    4      C       4.4797559225    -3.7021894478    -0.3352563635
    5      C       3.4763999652    -4.0135650442     0.6731826157
    6      B       2.4227270625    -2.9791923886     1.0732452099
    7      C       5.4219782012    -4.6827652895    -0.6965771266
    8      C       5.3716038671    -5.9298540909    -0.1335412455
    9      C       4.3373326818    -6.2554340346     0.8394132425
   10      C       3.4323979095    -5.3037191734     1.2304605911
   11      C       1.4447328891    -0.6725004445     0.6726842752
   12      C       1.3882683532     0.5136529208    -0.0115174820
   13      C       2.3937288827     0.8357269492    -1.0146246617
   14      C       3.3857605235    -0.0642679494    -1.3058244547
   15      C       7.2000204426    -7.4636914262    -1.1890984104
   16      C       7.6582608137    -8.7971557450    -1.1868686511
   17      C       7.0809399505    -9.7790375513    -0.4114982471
   18      C       5.9854977776    -9.4702731451     0.4289793429
   19      C       5.5644164363    -8.1423442605     0.4241569914
   20      C       6.1430417153    -7.1323663479    -0.3738629115
   21      C       5.2465537332   -10.3561586835     1.2485054673
   22      C       4.1728837346    -9.8939103452     1.9784061042
   23      C       3.7625266966    -8.5453464468     1.9533623184
   24      C       4.4670671204    -7.6595944880     1.1702695444
   25      C       1.8281752092     4.0563654171    -2.9804318394
   26      C       2.5373738633     2.8935140838    -2.6143752896
   27      C       2.0273027332     2.1061074752    -1.6091488328
   28      C       0.8203446740     2.5013296606    -0.9914488780
   29      C       0.0870984466     3.6281778616    -1.3527882546
   30      C       0.6405829025     4.4226449664    -2.3847342548
   31      C       0.4014835989     1.5693127290    -0.0175689618
   32      C      -0.7953503556     1.7767022306     0.6276505961
   33      C      -1.5504384571     2.9165130441     0.2862186764
   34      C      -1.1371516802     3.8200608817    -0.6691825481
   35      C       7.5609964147    -1.3972665655    -3.2089752330
   36      C       6.7173565692    -1.5953471221    -2.1162759351
   37      C       5.4336204018    -2.1124426318    -2.2868179159
   38      C       5.0091558748    -2.4356109927    -3.5864493344
   39      C       5.8496058446    -2.2362088486    -4.6682173971
   40      C       7.1277705909    -1.7155772303    -4.4889287460
   41      C       7.2035140456    -1.2553766466    -0.7345241645
   42      C       3.6337774449    -3.0007923324    -3.8125335558
   43      O       7.8633973033    -1.5544342758    -5.6103207610
   44      C       9.1676993914    -1.0567170231    -5.4914796366
   45      C       0.5180375199    -3.4508077139     4.4094460720
   46      C       1.5053776443    -3.1315995655     3.4926394228
   47      C       1.3014963019    -3.3409257529     2.1199779286
   48      C       0.0884925255    -3.8923050342     1.7042440424
   49      C      -0.9025847533    -4.2147662506     2.6308333302
   50      C      -0.6928959442    -3.9899036677     3.9844377348
   51      C       2.8166078414    -2.5697418501     3.9663567775
   52      C      -0.1550061411    -4.1637697667     0.2448328057
   53      O      -1.5961148860    -4.2625512091     4.9517769223
   54      C      -2.8448327525    -4.7755717081     4.5756307885
   55      H       6.1612970354    -4.4512630811    -1.4548851880
   56      H       2.6566565045    -5.5416290651     1.9499138876
   57      H       0.6917371537    -0.9195174137     1.4126500465
   58      H       4.1152880210     0.1467242640    -2.0797405566
   59      H       7.6728680173    -6.7340738772    -1.8335599692
   60      H       8.4885831978    -9.0597022868    -1.8292647421
   61      H       7.4594763769   -10.7928733887    -0.4556906911
   62      H       5.5169681083   -11.4039840768     1.2938878613
   63      H       3.6168587022   -10.5924175484     2.5901133138
   64      H       2.9035673177    -8.2347515277     2.5341907507
   65      H       2.2267858401     4.6752127432    -3.7735765170
   66      H       3.4504282391     2.6333424220    -3.1340706189
   67      H       0.1248084950     5.3151677278    -2.7165333664
   68      H      -1.1697856941     1.0834685342     1.3700700695
   69      H      -2.4954485539     3.0808662807     0.7872688454
   70      H      -1.7598061415     4.6740663331    -0.9054058325
   71      H       8.5503204935    -0.9927840605    -3.0366005118
   72      H       5.5232270624    -2.4839412316    -5.6717303086
   73      H       8.2004671584    -0.8152644425    -0.7492849112
   74      H       7.2436485902    -2.1430496554    -0.0992875262
   75      H       6.5359892245    -0.5464511314    -0.2406171140
   76      H       3.4680326304    -3.2501136865    -4.8604600719
   77      H       2.8570478461    -2.2927890902    -3.5157374329
   78      H       3.4723161459    -3.9091147756    -3.2283054782
   79      H       9.5808408827    -1.0226016915    -6.4976690908
   80      H       9.8054805505    -1.7004538287    -4.8765748196
   81      H       9.1915786355    -0.0449593780    -5.0730680239
   82      H       0.6730126845    -3.2813655952     5.4684051694
   83      H      -1.8312710986    -4.6388802464     2.2703179202
   84      H       3.0639219320    -1.6422866692     3.4460120274
   85      H       3.6327840088    -3.2681824902     3.7692582571
   86      H       2.8076039426    -2.3589779245     5.0350890078
   87      H       0.5535649798    -4.8985938752    -0.1443846065
   88      H      -0.0385971541    -3.2627738561    -0.3602613654
   89      H      -1.1591673429    -4.5489793759     0.0666242696
   90      H      -3.4178453662    -4.9050285763     5.4916636116
   91      H      -3.3939831471    -4.0949131242     3.9163677599
   92      H      -2.7645965138    -5.7477876228     4.0777637527
 ----------------------------------------------------------------
