 Q-Chem 5.0, Q-Chem, Inc., Pleasanton, CA (2017)
 Q-Chem 5.0.1 for Intel X86 EM64T Linux

User input:
--------------------------------------------------------------
$rem
threads 8
jobtype opt
method PBEh-3c
basis def2-mSVP
mem_static      1024
mem_total       8000
sym_ignore      true
unrestricted true
scf_algorithm   diis
scf_max_cycles  250
solvent_method  pcm
geom_opt_tol_energy 25
geom_opt_tol_gradient 75
$end

$pcm
theory  iefpcm
$end

$solvent
dielectric      2.03
$end

$molecule
read uincoords.mol
$end

--------------------------------------------------------------

   22   -2123.7149020930      9.98E-09 Convergence criterion met
 Total energy in the final basis set = -2123.71490209
   17   -2123.7152390616      9.10E-09 Convergence criterion met
 Total energy in the final basis set = -2123.71523906
   17   -2123.7153207013      9.05E-09 Convergence criterion met
 Total energy in the final basis set = -2123.71532070
   17   -2123.7153758935      9.14E-09 Convergence criterion met
 Total energy in the final basis set = -2123.71537589
   17   -2123.7154214294      9.14E-09 Convergence criterion met
 Total energy in the final basis set = -2123.71542143
   17   -2123.7154608511      8.79E-09 Convergence criterion met
 Total energy in the final basis set = -2123.71546085
   17   -2123.7154974047      8.42E-09 Convergence criterion met
 Total energy in the final basis set = -2123.71549740
   17   -2123.7155268508      8.83E-09 Convergence criterion met
   17   -2123.7168719762      8.58E-09 Convergence criterion met
 Total energy in the final basis set = -2123.71687198
   17   -2123.7168498721      8.32E-09 Convergence criterion met
 Total energy in the final basis set = -2123.71684987
   17   -2123.7168291598      8.27E-09 Convergence criterion met
 Total energy in the final basis set = -2123.71682916
   17   -2123.7168312625      8.26E-09 Convergence criterion met
 Total energy in the final basis set = -2123.71683126
   17   -2123.7168382777      8.33E-09 Convergence criterion met
 Total energy in the final basis set = -2123.71683828
   17   -2123.7168513348      8.28E-09 Convergence criterion met
 Total energy in the final basis set = -2123.71685133

             Standard Nuclear Orientation (Angstroms)
    I     Atom           X                Y                Z
 ----------------------------------------------------------------
    1      C       2.4746340416    -1.5672281046     0.3892584526
    2      C       3.4545415744    -1.2470426635    -0.5989745734
    3      B       4.4815393808    -2.3074119085    -0.9862531913
    4      C       4.5204106236    -3.6703106994    -0.2986172976
    5      C       3.5262267259    -3.9843080696     0.6769573624
    6      B       2.4542704700    -2.9516615105     1.0620994848
    7      C       5.4616989383    -4.6598464422    -0.6676265756
    8      C       5.4131276435    -5.9111872753    -0.1112505185
    9      C       4.4025014233    -6.2323658156     0.8427823415
   10      C       3.4934716198    -5.2771191224     1.2311048883
   11      C       1.4600967490    -0.6352793416     0.6716149635
   12      C       1.3990957114     0.5634832635     0.0017946902
   13      C       2.3908358487     0.8959980631    -0.9676409331
   14      C       3.3932485825     0.0041103264    -1.2556834610
   15      C       7.2539381264    -7.4511588115    -1.1730317915
   16      C       7.7185546620    -8.7867420980    -1.1737599356
   17      C       7.1448847796    -9.7700290497    -0.4008372297
   18      C       6.0487245359    -9.4602415224     0.4393919487
   19      C       5.6258421907    -8.1329166834     0.4351171730
   20      C       6.1984501967    -7.1210213728    -0.3603208712
   21      C       5.3123491137   -10.3511800638     1.2583578060
   22      C       4.2402298093    -9.8874507014     1.9853884105
   23      C       3.8291238795    -8.5343817416     1.9591479698
   24      C       4.5302382441    -7.6477550422     1.1788545287
   25      C       1.8264635496     4.1547286434    -2.9090738387
   26      C       2.5375927025     2.9865188115    -2.5479138341
   27      C       2.0237797192     2.1832044309    -1.5614645454
   28      C       0.8109555872     2.5665317554    -0.9534990760
   29      C       0.0753083453     3.6943310255    -1.3067460053
   30      C       0.6325213865     4.5078084852    -2.3226596309
   31      C       0.3926242510     1.6178138164     0.0016227071
   32      C      -0.8096966315     1.8106667299     0.6347740073
   33      C      -1.5723812308     2.9538820880     0.3019674524
   34      C      -1.1586968586     3.8735702385    -0.6342113912
   35      C       7.5674268560    -1.5017992415    -3.1998338245
   36      C       6.7584015897    -1.6328591069    -2.1034544468
   37      C       5.4039023529    -2.0993153854    -2.2407258957
   38      C       4.9060582171    -2.4231636144    -3.5482566928
   39      C       5.7224240263    -2.2835787832    -4.6310257477
   40      C       7.0580289189    -1.8260931654    -4.4750278214
   41      C       7.2534961537    -1.3081638432    -0.7363405290
   42      C       3.5058976623    -2.9207817943    -3.7038163547
   43      O       7.7433353203    -1.7395047248    -5.5837393009
   44      C       9.1017510495    -1.3071346848    -5.5833292770
   45      C       0.4659992040    -3.4516291038     4.3536203901
   46      C       1.4693531663    -3.1093529040     3.4604199749
   47      C       1.3127196232    -3.3354881775     2.0845254978
   48      C       0.1221981596    -3.9166530549     1.6415225917
   49      C      -0.8866668846    -4.2589913144     2.5425159661
   50      C      -0.7180265720    -4.0260795751     3.9004957080
   51      C       2.7425362760    -2.4927840201     3.9676308315
   52      C      -0.0844448052    -4.1871776255     0.1759785257
   53      O      -1.6408005562    -4.3212899477     4.8453385896
   54      C      -2.8665019852    -4.8676318106     4.4332326412
   55      H       6.2184632270    -4.4419291006    -1.4164425644
   56      H       2.7193939022    -5.5204075173     1.9518715193
   57      H       0.6969489713    -0.8948382464     1.3982944834
   58      H       4.1272019908     0.2494865037    -2.0186790897
   59      H       7.7287728431    -6.7220134750    -1.8179465261
   60      H       8.5505754164    -9.0448629385    -1.8167378788
   61      H       7.5246706797   -10.7837815508    -0.4445597035
   62      H       5.5850298392   -11.3986929042     1.3032462276
   63      H       3.6819582119   -10.5838673906     2.5983319735
   64      H       2.9688061902    -8.2269349936     2.5405792664
   65      H       2.2328809848     4.7854376420    -3.6895977099
   66      H       3.4586134076     2.7417877268    -3.0627170559
   67      H       0.1145766356     5.4023161877    -2.6467843689
   68      H      -1.1898567769     1.1058437369     1.3639998023
   69      H      -2.5230608518     3.1024151822     0.7983387368
   70      H      -1.7830542193     4.7281056696    -0.8651641086
   71      H       8.5844040972    -1.1534391178    -3.0805411281
   72      H       5.3792554954    -2.5232389823    -5.6301190618
   73      H       8.2711412689    -0.9223799252    -0.7488625622
   74      H       7.2228129771    -2.1963070495    -0.1013562280
   75      H       6.6026137546    -0.5726347266    -0.2596577163
   76      H       3.2764513092    -3.1477807263    -4.7437241763
   77      H       2.7883918165    -2.1825244825    -3.3437225641
   78      H       3.3494748096    -3.8226805442    -3.1098879196
   79      H       9.4225748495    -1.3386167712    -6.6195460856
   80      H       9.7254950155    -1.9767873169    -4.9906949170
   81      H       9.1884105663    -0.2869327544    -5.2084890146
   82      H       0.5905403539    -3.2720973714     5.4153625310
   83      H      -1.7960195960    -4.7050936241     2.1590671458
   84      H       2.9296487964    -1.5274902135     3.4930256252
   85      H       3.6030791163    -3.1263508026     3.7423370765
   86      H       2.7166969333    -2.3361521719     5.0459192152
   87      H       0.6539198640    -4.8964861583    -0.2040394155
   88      H       0.0194853391    -3.2758496473    -0.4161715706
   89      H      -1.0732485545    -4.6008179966    -0.0243416967
   90      H      -3.4624018811    -5.0114937724     5.3324239294
   91      H      -3.4127429727    -4.2012813747     3.7576944068
   92      H      -2.7457382740    -5.8371287624     3.9390298097
 ----------------------------------------------------------------

   17   -2123.7168587832      8.02E-09 Convergence criterion met
 Total energy in the final basis set = -2123.71685878
 Final energy is   -2123.71685878320
 **  OPTIMIZATION CONVERGED  **

                    Orbital Energies (a.u.)
 --------------------------------------------------------------

 Alpha MOs
 -- Occupied --
-19.613 -19.512 -10.592 -10.533 -10.517 -10.506 -10.500 -10.496
-10.494 -10.486 -10.476 -10.453 -10.451 -10.450 -10.450 -10.449
-10.448 -10.448 -10.448 -10.447 -10.447 -10.446 -10.446 -10.445
-10.445 -10.445 -10.445 -10.444 -10.444 -10.444 -10.444 -10.440
-10.440 -10.438 -10.438 -10.437 -10.436 -10.434 -10.433 -10.433
-10.433 -10.430 -10.429 -10.418 -10.416 -10.415 -10.413 -10.410
-10.408 -10.405 -10.405 -10.394  -6.908  -6.898  -1.272  -1.168
 -1.015  -0.998  -0.998  -0.942  -0.940  -0.935  -0.927  -0.918
 -0.918  -0.913  -0.888  -0.880  -0.854  -0.847  -0.840  -0.836
 -0.834  -0.832  -0.832  -0.808  -0.806  -0.801  -0.795  -0.794
 -0.784  -0.775  -0.748  -0.739  -0.720  -0.716  -0.711  -0.709
 -0.703  -0.692  -0.673  -0.665  -0.663  -0.648  -0.642  -0.639
 -0.629  -0.628  -0.626  -0.617  -0.605  -0.598  -0.579  -0.577
 -0.573  -0.569  -0.568  -0.562  -0.559  -0.556  -0.542  -0.538
 -0.529  -0.522  -0.521  -0.518  -0.517  -0.513  -0.510  -0.509
 -0.501  -0.491  -0.490  -0.485  -0.480  -0.479  -0.478  -0.477
 -0.475  -0.473  -0.472  -0.469  -0.468  -0.466  -0.464  -0.462
 -0.456  -0.456  -0.452  -0.450  -0.447  -0.445  -0.441  -0.439
 -0.430  -0.425  -0.424  -0.424  -0.416  -0.415  -0.414  -0.408
 -0.407  -0.404  -0.400  -0.385  -0.383  -0.382  -0.382  -0.381
 -0.378  -0.374  -0.360  -0.360  -0.357  -0.353  -0.344  -0.336
 -0.333  -0.328  -0.321  -0.308  -0.305  -0.300  -0.284  -0.283
 -0.269  -0.259  -0.252  -0.242  -0.238  -0.232  -0.151

 Beta MOs
 -- Occupied --
-19.608 -19.512 -10.589 -10.534 -10.516 -10.506 -10.495 -10.493
-10.493 -10.486 -10.476 -10.453 -10.451 -10.451 -10.449 -10.449
-10.448 -10.448 -10.448 -10.447 -10.446 -10.446 -10.446 -10.445
-10.445 -10.445 -10.444 -10.444 -10.444 -10.443 -10.443 -10.440
-10.440 -10.438 -10.437 -10.435 -10.434 -10.434 -10.433 -10.433
-10.432 -10.431 -10.430 -10.418 -10.415 -10.414 -10.413 -10.410
-10.408 -10.404 -10.404 -10.394  -6.904  -6.896  -1.261  -1.168
 -1.005  -0.998  -0.998  -0.941  -0.938  -0.935  -0.924  -0.918
 -0.917  -0.903  -0.886  -0.879  -0.854  -0.843  -0.839  -0.835
 -0.833  -0.831  -0.831  -0.804  -0.801  -0.797  -0.794  -0.789
 -0.782  -0.774  -0.748  -0.739  -0.716  -0.714  -0.710  -0.706
 -0.702  -0.688  -0.672  -0.662  -0.660  -0.645  -0.639  -0.639
 -0.628  -0.628  -0.625  -0.612  -0.593  -0.585  -0.578  -0.577
 -0.571  -0.569  -0.567  -0.560  -0.557  -0.553  -0.542  -0.536
 -0.526  -0.521  -0.521  -0.516  -0.511  -0.510  -0.507  -0.504
 -0.499  -0.490  -0.488  -0.484  -0.478  -0.477  -0.475  -0.475
 -0.473  -0.472  -0.467  -0.467  -0.465  -0.465  -0.463  -0.461
 -0.456  -0.455  -0.450  -0.449  -0.447  -0.442  -0.441  -0.438
 -0.427  -0.424  -0.422  -0.421  -0.414  -0.412  -0.406  -0.404
 -0.403  -0.398  -0.386  -0.385  -0.382  -0.380  -0.380  -0.380
 -0.377  -0.371  -0.358  -0.356  -0.352  -0.346  -0.342  -0.332
 -0.330  -0.319  -0.317  -0.300  -0.296  -0.281  -0.280  -0.259
 -0.258  -0.244  -0.238  -0.231  -0.231

          Ground-State Mulliken Net Atomic Charges

     Atom                 Charge (a.u.)    Spin (a.u.)
  --------------------------------------------------------
      1 C                    -0.144019       0.081349
      2 C                    -0.132384       0.000924
      3 B                     0.540433       0.373673
      4 C                    -0.124939       0.010572
      5 C                    -0.150078       0.083252
      6 B                     0.590497       0.251963
      7 C                    -0.405033       0.021195
      8 C                     0.080860       0.006205
      9 C                     0.075217       0.119739
     10 C                    -0.399080      -0.069877
     11 C                    -0.398134      -0.069763
     12 C                     0.076570       0.115271
     13 C                     0.079199       0.006618
     14 C                    -0.409382       0.020315
     15 C                    -0.398681       0.057546
     16 C                    -0.215328      -0.040392
     17 C                    -0.350445       0.054200
     18 C                     0.237083      -0.036912
     19 C                    -0.073112       0.023572
     20 C                     0.188928      -0.035676
     21 C                    -0.351049       0.083356
     22 C                    -0.214567      -0.055695
     23 C                    -0.397024       0.091760
     24 C                     0.187716      -0.063395
     25 C                    -0.215009      -0.038952
     26 C                    -0.399117       0.055530
     27 C                     0.185937      -0.034723
     28 C                    -0.071479       0.022616
     29 C                     0.237169      -0.035373
     30 C                    -0.350758       0.052114
     31 C                     0.184281      -0.061811
     32 C                    -0.394101       0.088283
     33 C                    -0.215349      -0.053642
     34 C                    -0.350978       0.079810
     35 C                    -0.411645       0.020804
     36 C                     0.102395       0.033973
     37 C                    -0.121747       0.496060
     38 C                     0.064099      -0.075293
     39 C                    -0.367277       0.097387
     40 C                     0.462193       0.223377
     41 C                    -0.752147      -0.000495
     42 C                    -0.752750       0.004822
     43 O                    -0.394599       0.132994
     44 C                    -0.441480      -0.013500
     45 C                    -0.392936      -0.000762
     46 C                     0.055711       0.003158
     47 C                    -0.199854      -0.022452
     48 C                     0.045534       0.003434
     49 C                    -0.445723      -0.000755
     50 C                     0.391411       0.001007
     51 C                    -0.757616       0.000660
     52 C                    -0.757082       0.000349
     53 O                    -0.465123       0.000283
     54 C                    -0.413112      -0.000032
     55 H                     0.187264      -0.003784
     56 H                     0.231222       0.003036
     57 H                     0.230899       0.003028
     58 H                     0.189507      -0.003247
     59 H                     0.210429      -0.003420
     60 H                     0.227366       0.002041
     61 H                     0.225943      -0.003150
     62 H                     0.225244      -0.004950
     63 H                     0.232037       0.002686
     64 H                     0.229657      -0.005393
     65 H                     0.227687       0.001968
     66 H                     0.212477      -0.003293
     67 H                     0.225837      -0.003028
     68 H                     0.229605      -0.005178
     69 H                     0.231764       0.002592
     70 H                     0.224873      -0.004746
     71 H                     0.277039      -0.002709
     72 H                     0.277992      -0.006437
     73 H                     0.246909       0.001133
     74 H                     0.284721       0.004162
     75 H                     0.283143       0.003046
     76 H                     0.248062       0.000902
     77 H                     0.281248      -0.001040
     78 H                     0.282336      -0.001283
     79 H                     0.281304      -0.000008
     80 H                     0.250008       0.008875
     81 H                     0.250237       0.008880
     82 H                     0.221158       0.000341
     83 H                     0.227237       0.000282
     84 H                     0.245222      -0.000717
     85 H                     0.243621      -0.000597
     86 H                     0.231446       0.001330
     87 H                     0.243872      -0.000544
     88 H                     0.245915      -0.000747
     89 H                     0.227741       0.001242
     90 H                     0.241273       0.000007
     91 H                     0.208113       0.000024
     92 H                     0.207497       0.000024
  --------------------------------------------------------
  Sum of atomic charges =    -0.000000

                    Cartesian Multipole Moments
 -----------------------------------------------------------------
    Charge (ESU x 10^10)
                -0.0000
    Dipole Moment (Debye)
         X      10.4247      Y       2.2602      Z     -12.7059
       Tot      16.5898
    Quadrupole Moments (Debye-Ang)
        XX    -162.1170     XY       4.3565     YY    -322.7143
        XZ    -100.7081     YZ      17.5121     ZZ    -265.3983

 Total job time:  53856.69s(wall), 209022.09s(cpu)
        *  Thank you very much for using Q-Chem.  Have a nice day.  *
