 Q-Chem 5.0, Q-Chem, Inc., Pleasanton, CA (2017)
 Q-Chem 5.0.1 for Intel X86 EM64T Linux

User input:
--------------------------------------------------------------
$rem
threads 8
jobtype sp
method PBEh-3c
basis def2-mSVP
mem_static      1024
mem_total       8000
sym_ignore      true
unrestricted true
scf_algorithm	diis
scf_max_cycles	250
solvent_method  pcm
$end

$pcm
theory  iefpcm
$end

$solvent
dielectric      1.0001
$end

$molecule
read uincoords.mol
$end

--------------------------------------------------------------

   11   -2123.7064696934      4.30E-06 Convergence criterion met
 Total energy in the final basis set = -2123.70646969
 Total job time:  891.70s(wall), 3682.06s(cpu)
        *  Thank you very much for using Q-Chem.  Have a nice day.  *
 Q-Chem 5.0, Q-Chem, Inc., Pleasanton, CA (2017)
 Q-Chem 5.0.1 for Intel X86 EM64T Linux

User input:
--------------------------------------------------------------

$rem
threads 8
jobtype opt
method PBEh-3c
basis def2-mSVP
mem_static      1024
mem_total       8000
sym_ignore      true
unrestricted true
scf_algorithm   diis
scf_max_cycles  250
solvent_method  pcm
geom_opt_tol_energy 25
geom_opt_tol_gradient 75
scf_guess	read
mom_start	1
$end

$pcm
theory  iefpcm
$end

$solvent
dielectric      1.0001
$end

$molecule
read uincoords.mol
$end

--------------------------------------------------------------

   21   -2123.7058975283      8.80E-09 Convergence criterion met
 Total energy in the final basis set = -2123.70589753

                    Orbital Energies (a.u.)
 --------------------------------------------------------------

 Alpha MOs
 -- Occupied --
-19.518 -19.518 -10.493 -10.493 -10.485 -10.485 -10.473 -10.473
-10.473 -10.472 -10.467 -10.467 -10.465 -10.465 -10.465 -10.465
-10.464 -10.464 -10.464 -10.464 -10.464 -10.464 -10.463 -10.463
-10.461 -10.461 -10.461 -10.460 -10.458 -10.458 -10.452 -10.451
-10.451 -10.451 -10.443 -10.443 -10.442 -10.441 -10.440 -10.440
-10.439 -10.439 -10.426 -10.426 -10.422 -10.421 -10.421 -10.420
-10.418 -10.418 -10.403 -10.403  -6.920  -6.920  -1.176  -1.176
 -1.024  -1.023  -0.969  -0.966  -0.945  -0.944  -0.936  -0.936
 -0.914  -0.906  -0.864  -0.863  -0.860  -0.857  -0.850  -0.849
 -0.846  -0.845  -0.829  -0.816  -0.815  -0.814  -0.785  -0.784
 -0.758  -0.758  -0.749  -0.748  -0.738  -0.731  -0.730  -0.724
 -0.692  -0.684  -0.683  -0.669  -0.658  -0.651  -0.647  -0.645
 -0.636  -0.636  -0.596  -0.595  -0.592  -0.589  -0.585  -0.578
 -0.578  -0.577  -0.576  -0.552  -0.551  -0.547  -0.542  -0.533
 -0.532  -0.530  -0.529  -0.524  -0.511  -0.509  -0.505  -0.499
 -0.497  -0.494  -0.493  -0.491  -0.487  -0.484  -0.484  -0.482
 -0.482  -0.471  -0.470  -0.469  -0.466  -0.466  -0.462  -0.459
 -0.458  -0.453  -0.450  -0.450  -0.446  -0.443  -0.442  -0.436
 -0.435  -0.432  -0.426  -0.420  -0.417  -0.413  -0.413  -0.411
 -0.401  -0.399  -0.399  -0.397  -0.396  -0.394  -0.394  -0.393
 -0.382  -0.379  -0.367  -0.365  -0.359  -0.356  -0.348  -0.347
 -0.334  -0.334  -0.326  -0.320  -0.303  -0.300  -0.294  -0.276
 -0.270  -0.268  -0.267  -0.260  -0.242  -0.239  -0.162

 Beta MOs
 -- Occupied --
-19.518 -19.518 -10.493 -10.493 -10.485 -10.485 -10.470 -10.470
-10.469 -10.469 -10.468 -10.468 -10.466 -10.466 -10.466 -10.465
-10.463 -10.463 -10.462 -10.462 -10.462 -10.462 -10.462 -10.462
-10.461 -10.461 -10.461 -10.461 -10.456 -10.456 -10.454 -10.453
-10.453 -10.452 -10.443 -10.443 -10.442 -10.441 -10.437 -10.437
-10.436 -10.436 -10.426 -10.426 -10.421 -10.421 -10.421 -10.420
-10.418 -10.418 -10.403 -10.403  -6.919  -6.918  -1.176  -1.176
 -1.020  -1.019  -0.963  -0.961  -0.944  -0.944  -0.935  -0.934
 -0.909  -0.903  -0.863  -0.863  -0.858  -0.855  -0.848  -0.848
 -0.846  -0.844  -0.819  -0.814  -0.813  -0.804  -0.784  -0.784
 -0.758  -0.757  -0.749  -0.748  -0.735  -0.727  -0.727  -0.722
 -0.690  -0.681  -0.678  -0.664  -0.657  -0.649  -0.646  -0.644
 -0.636  -0.635  -0.595  -0.593  -0.590  -0.587  -0.585  -0.578
 -0.578  -0.575  -0.574  -0.551  -0.551  -0.545  -0.540  -0.531
 -0.530  -0.530  -0.529  -0.522  -0.509  -0.507  -0.504  -0.497
 -0.496  -0.491  -0.486  -0.485  -0.483  -0.483  -0.482  -0.482
 -0.481  -0.471  -0.469  -0.468  -0.466  -0.465  -0.461  -0.458
 -0.457  -0.451  -0.450  -0.450  -0.443  -0.442  -0.435  -0.435
 -0.426  -0.423  -0.420  -0.416  -0.414  -0.413  -0.413  -0.409
 -0.401  -0.396  -0.395  -0.394  -0.394  -0.394  -0.393  -0.392
 -0.376  -0.367  -0.366  -0.356  -0.356  -0.348  -0.345  -0.341
 -0.332  -0.331  -0.318  -0.314  -0.295  -0.294  -0.268  -0.267
 -0.260  -0.255  -0.251  -0.241  -0.239

          Ground-State Mulliken Net Atomic Charges

     Atom                 Charge (a.u.)    Spin (a.u.)
  --------------------------------------------------------
      1 C                    -0.125541       0.212042
      2 C                    -0.391658      -0.143266
      3 H                     0.240319       0.005562
      4 C                     0.105067       0.241491
      5 C                     0.108737       0.238649
      6 C                    -0.390313      -0.143730
      7 H                     0.239798       0.005597
      8 C                    -0.125957       0.219505
      9 C                     0.193443      -0.105610
     10 C                    -0.384600       0.129984
     11 H                     0.223207      -0.007781
     12 C                    -0.051598       0.136540
     13 C                     0.250828      -0.089542
     14 C                     0.193608      -0.105494
     15 C                    -0.383860       0.131213
     16 H                     0.223549      -0.007859
     17 C                    -0.202621      -0.091635
     18 H                     0.228320       0.004485
     19 C                    -0.336251       0.137444
     20 H                     0.221437      -0.008098
     21 C                    -0.202926      -0.092045
     22 H                     0.228547       0.004495
     23 C                    -0.335153       0.139250
     24 H                     0.221572      -0.008201
     25 B                     0.618751       0.216482
     26 B                     0.614242       0.211967
     27 C                    -0.123125       0.217554
     28 C                    -0.392648      -0.141463
     29 H                     0.237198       0.005531
     30 C                     0.110459       0.235765
     31 C                     0.104337       0.238936
     32 C                    -0.388533      -0.141618
     33 H                     0.240239       0.005512
     34 C                    -0.128417       0.206413
     35 C                     0.189955      -0.104796
     36 C                    -0.380867       0.131058
     37 H                     0.223873      -0.007837
     38 C                    -0.049954       0.135560
     39 C                     0.251185      -0.088918
     40 C                     0.190862      -0.104974
     41 C                    -0.384084       0.128575
     42 H                     0.222855      -0.007690
     43 C                    -0.203540      -0.091825
     44 H                     0.228492       0.004481
     45 C                    -0.334963       0.139560
     46 H                     0.221461      -0.008226
     47 C                    -0.202296      -0.090999
     48 H                     0.228264       0.004459
     49 C                    -0.336824       0.135970
     50 H                     0.221515      -0.008011
     51 C                    -0.209245      -0.018398
     52 C                     0.071379       0.002407
     53 C                    -0.431473      -0.000256
     54 H                     0.217765       0.000308
     55 C                     0.401562       0.000024
     56 O                    -0.454965       0.000072
     57 C                    -0.386799      -0.000034
     58 H                     0.217814       0.000232
     59 C                     0.053616       0.001544
     60 C                    -0.403961      -0.000005
     61 H                     0.237284       0.000010
     62 H                     0.202022       0.000006
     63 H                     0.201788       0.000004
     64 C                    -0.748496       0.001108
     65 H                     0.227086       0.001315
     66 H                     0.240858      -0.000572
     67 H                     0.240516      -0.000634
     68 C                    -0.752880       0.001391
     69 H                     0.233456       0.001122
     70 H                     0.242660      -0.000912
     71 H                     0.241677      -0.000544
     72 C                    -0.214388      -0.018756
     73 C                     0.055595       0.001590
     74 C                    -0.438260       0.000030
     75 H                     0.217930       0.000230
     76 C                     0.401421      -0.000111
     77 O                    -0.455204       0.000009
     78 C                    -0.382216      -0.000319
     79 H                     0.217488       0.000319
     80 C                     0.069376       0.002096
     81 C                    -0.404170       0.000000
     82 H                     0.237385       0.000007
     83 H                     0.201784       0.000000
     84 H                     0.202284      -0.000000
     85 C                    -0.751971       0.001412
     86 H                     0.232105       0.001344
     87 H                     0.241438      -0.000777
     88 H                     0.240309      -0.000614
     89 C                    -0.751112       0.001079
     90 H                     0.227728       0.001181
     91 H                     0.242963      -0.000765
     92 H                     0.241463      -0.000606
  --------------------------------------------------------
  Sum of atomic charges =    -0.000000

                    Cartesian Multipole Moments
 -----------------------------------------------------------------
    Charge (ESU x 10^10)
                -0.0000
    Dipole Moment (Debye)
         X      -0.2395      Y       1.1127      Z      -0.1478
       Tot       1.1477
    Quadrupole Moments (Debye-Ang)
        XX    -267.2472     XY      18.1281     YY    -313.9591
        XZ      -6.9794     YZ       4.9158     ZZ    -257.2019

             Standard Nuclear Orientation (Angstroms)
    I     Atom           X                Y                Z
 ----------------------------------------------------------------
    1      C       0.0491998548     0.1609561084     0.0283708078
    2      C       0.0422859177     0.1210442633     1.4334570912
    3      H       0.9810228583     0.0947382106     1.9750752891
    4      C      -1.1570845255     0.1296623121     2.1095926345
    5      C      -2.4037666385     0.1602618751     1.3809463590
    6      C      -2.4162865835     0.2114666519     0.0091365187
    7      H      -3.3544384343     0.2660275376    -0.5317053177
    8      C      -1.2059585380     0.2250998504    -0.6959432171
    9      C      -3.4906931040     0.2026787380     2.3379217395
   10      C      -4.8594287937     0.2770212943     2.2486347312
   11      H      -5.3725495899     0.2909248956     1.2951966988
   12      C      -2.8851726183     0.2043154643     3.6121691368
   13      C      -3.5977133177     0.2908023730     4.8031996988
   14      C      -1.4747202951     0.1626277842     3.5279410957
   15      C      -0.7472398453     0.2086766207     4.6905782014
   16      H       0.3350161925     0.1922358689     4.6900321412
   17      C      -5.6046367895     0.3488030990     3.4439813685
   18      H      -6.6832495755     0.4066556720     3.3769321007
   19      C      -5.0082692896     0.3577914506     4.6855675214
   20      H      -5.6217630365     0.4237172038     5.5754953591
   21      C      -1.4465981958     0.2892005071     5.9145334802
   22      H      -0.8738927492     0.3265141932     6.8315947058
   23      C      -2.8220782239     0.3291890960     5.9852517581
   24      H      -3.3113136985     0.3977266789     6.9488636809
   25      B       1.3868591249     0.1797049712    -0.7314528149
   26      B      -1.2296974926     0.3765400960    -2.2252129630
   27      C       0.1033707518     0.3317787069    -2.9816010627
   28      C       0.1006688107     0.4315378638    -4.3780576892
   29      H      -0.8420795335     0.5039928126    -4.9088940516
   30      C       1.2907578397     0.4650827125    -5.0604211403
   31      C       2.5482908406     0.4131438946    -4.3526847496
   32      C       2.5701208192     0.2984828577    -2.9809516959
   33      H       3.5119245359     0.2601873555    -2.4457994121
   34      C       1.3613530907     0.2512320074    -2.2668065875
   35      C       3.6130955718     0.5735349179    -5.3303313172
   36      C       4.9814187207     0.6748785282    -5.2759777650
   37      H       5.5251848485     0.5918096898    -4.3437925604
   38      C       2.9740845103     0.7077744830    -6.5844863839
   39      C       3.6419283732     0.9433454502    -7.7824522311
   40      C       1.5685035556     0.6410895616    -6.4730018216
   41      C       0.8020388249     0.7938542836    -7.6034352194
   42      H      -0.2798141750     0.7609163631    -7.5725298062
   43      C       5.6833009673     0.9041431527    -6.4799307687
   44      H       6.7614204244     0.9849306782    -6.4397188814
   45      C       5.0507615583     1.0364029906    -7.6968968900
   46      H       5.6340921190     1.2192733292    -8.5908385398
   47      C       1.4584411446     1.0118673341    -8.8333445532
   48      H       0.8571348863     1.1310993655    -9.7252935806
   49      C       2.8295142701     1.0901385255    -8.9345934192
   50      H       3.2869009131     1.2711490523    -9.8994852537
   51      C      -2.5849782117     0.6334005257    -2.9907971183
   52      C      -3.3257764354    -0.4144209341    -3.5413052036
   53      C      -4.5236786572    -0.1702890277    -4.2124927171
   54      H      -5.0699052641    -1.0095698991    -4.6243600877
   55      C      -4.9953506965     1.1276587676    -4.3444159777
   56      O      -6.1389024305     1.4651043928    -4.9792877118
   57      C      -4.2653434237     2.1790356686    -3.7980265182
   58      H      -4.6426996861     3.1888973310    -3.9086074304
   59      C      -3.0766774471     1.9424344881    -3.1284455155
   60      C      -6.9115664372     0.4465675978    -5.5536492376
   61      H      -7.7737580170     0.9289452224    -6.0099101867
   62      H      -6.3687608191    -0.1004641341    -6.3318897132
   63      H      -7.2707829142    -0.2742921438    -4.8114721202
   64      C      -2.8326045397    -1.8287261275    -3.4081796246
   65      H      -3.5115885856    -2.5429055401    -3.8744679313
   66      H      -1.8527347868    -1.9558722606    -3.8730422633
   67      H      -2.7247972310    -2.1160339317    -2.3601987055
   68      C      -2.3150550280     3.0961953083    -2.5409293052
   69      H      -2.7715857696     4.0519266482    -2.7975696221
   70      H      -1.2828389492     3.1174116798    -2.8959414149
   71      H      -2.2761659767     3.0302209250    -1.4516648044
   72      C       2.7515343618     0.1462018860     0.0478508809
   73      C       3.3725463708     1.3295185301     0.4487795553
   74      C       4.5783605150     1.2974006065     1.1481627032
   75      H       5.0323639111     2.2348521533     1.4435165848
   76      C       5.1753915991     0.0809734007     1.4534111483
   77      O       6.3398855378    -0.0520561363     2.1244464740
   78      C       4.5608259496    -1.1032156092     1.0569026523
   79      H       5.0351557486    -2.0468098815     1.2998432052
   80      C       3.3639618532    -1.0761784046     0.3617509711
   81      C       7.0160698285     1.1073357419     2.5267898465
   82      H       7.9246640522     0.7799162542     3.0281932822
   83      H       6.4304539035     1.7092093394     3.2298325754
   84      H       7.2961796121     1.7412862947     1.6788872995
   85      C       2.7070395033    -2.3618839541    -0.0576453793
   86      H       3.3066928827    -3.2318679672     0.2091853249
   87      H       2.5439082191    -2.3911617400    -1.1370680766
   88      H       1.7280947526    -2.4783000872     0.4125761129
   89      C       2.7333346115     2.6527256067     0.1305887256
   90      H       3.3413089873     3.4908930909     0.4712539890
   91      H       2.5792035753     2.7738459493    -0.9437028807
   92      H       1.7527935009     2.7442602965     0.6029014885
 ----------------------------------------------------------------
