 Q-Chem 5.0, Q-Chem, Inc., Pleasanton, CA (2017)
 Q-Chem 5.0.1 for Intel X86 EM64T Linux

User input:
--------------------------------------------------------------
$rem
threads 8
jobtype opt
method PBEh-3c
basis def2-mSVP
mem_static      1024
mem_total       8000
sym_ignore      true
unrestricted true
scf_algorithm	diis
scf_max_cycles	250
solvent_method  pcm
geom_opt_tol_energy 25
geom_opt_tol_gradient 75
$end

$pcm
theory  iefpcm
$end

$solvent
dielectric      2.38
$end

$molecule
read uincoords.mol
$end
--------------------------------------------------------------

   22   -2123.7184537121      7.78E-09 Convergence criterion met
 Total energy in the final basis set = -2123.71845371
   17   -2123.7188668617      6.93E-09 Convergence criterion met
 Total energy in the final basis set = -2123.71886686
   17   -2123.7189792482      7.27E-09 Convergence criterion met
 Total energy in the final basis set = -2123.71897925
   17   -2123.7190509013      7.15E-09 Convergence criterion met
 Total energy in the final basis set = -2123.71905090
   17   -2123.7191164108      7.12E-09 Convergence criterion met
 Total energy in the final basis set = -2123.71911641
   17   -2123.7191744020      6.19E-09 Convergence criterion met
 Total energy in the final basis set = -2123.71917440
   16   -2123.7192021983      9.59E-09 Convergence criterion met
 Total energy in the final basis set = -2123.71920220
   16   -2123.7192100914      9.79E-09 Convergence criterion met
   16   -2123.7206052920      9.55E-09 Convergence criterion met
 Total energy in the final basis set = -2123.72060529
   17   -2123.7206481201      7.05E-09 Convergence criterion met
 Total energy in the final basis set = -2123.72064812
   16   -2123.7206018412      9.85E-09 Convergence criterion met
 Total energy in the final basis set = -2123.72060184
   16   -2123.7205654203      9.80E-09 Convergence criterion met
 Total energy in the final basis set = -2123.72056542
   16   -2123.7205453655      9.66E-09 Convergence criterion met
 Total energy in the final basis set = -2123.72054537
   16   -2123.7205462586      9.87E-09 Convergence criterion met
 Total energy in the final basis set = -2123.72054626

             Standard Nuclear Orientation (Angstroms)
    I     Atom           X                Y                Z
 ----------------------------------------------------------------
    1      C       2.4748264236    -1.5748713503     0.3841377914
    2      C       3.4533230851    -1.2583697994    -0.6072557470
    3      B       4.4780630281    -2.3212096986    -0.9942692770
    4      C       4.5143589604    -3.6829349600    -0.3043172914
    5      C       3.5223534474    -3.9934048282     0.6744525578
    6      B       2.4540245934    -2.9574872402     1.0606560179
    7      C       5.4537359901    -4.6736794953    -0.6734393372
    8      C       5.4035969491    -5.9248917131    -0.1162016628
    9      C       4.3937833260    -6.2435473986     0.8396954696
   10      C       3.4876780782    -5.2863006412     1.2293440692
   11      C       1.4623973785    -0.6402960055     0.6665149481
   12      C       1.4025247139     0.5575290144    -0.0051099334
   13      C       2.3929562596     0.8862493745    -0.9774449045
   14      C       3.3928008480    -0.0084277515    -1.2663120123
   15      C       7.2391995673    -7.4690039967    -1.1809949893
   16      C       7.7009229777    -8.8057234833    -1.1822350303
   17      C       7.1265373031    -9.7877652767    -0.4080617196
   18      C       6.0324270733    -9.4754083135     0.4341298574
   19      C       5.6123143410    -8.1470885604     0.4303742658
   20      C       6.1857295742    -7.1365161151    -0.3663998389
   21      C       5.2955885192   -10.3648029672     1.2545150954
   22      C       4.2256290134    -9.8986581553     1.9833113145
   23      C       3.8172700709    -8.5445522338     1.9575136969
   24      C       4.5189891770    -7.6595316336     1.1759154228
   25      C       1.8313458313     4.1426190444    -2.9237414892
   26      C       2.5406977704     2.9733453750    -2.5622096624
   27      C       2.0272552404     2.1729906180    -1.5729321787
   28      C       0.8166710483     2.5602187406    -0.9627426723
   29      C       0.0827789728     3.6892000265    -1.3163410140
   30      C       0.6395098969     4.4996631010    -2.3351030204
   31      C       0.3983346080     1.6141416822    -0.0048959678
   32      C      -0.8021731773     1.8109546862     0.6307875166
   33      C      -1.5629917115     2.9554151502     0.2976231279
   34      C      -1.1493336764     3.8725733615    -0.6412696134
   35      C       7.5608802622    -1.4577665948    -3.1900518153
   36      C       6.7493284978    -1.6066727770    -2.0982760441
   37      C       5.4081698035    -2.1074965922    -2.2429669349
   38      C       4.9276282207    -2.4524134783    -3.5513255582
   39      C       5.7456990710    -2.2948999038    -4.6301315687
   40      C       7.0677155529    -1.7999585474    -4.4676500608
   41      C       7.2282055748    -1.2651027669    -0.7292984639
   42      C       3.5420954096    -2.9880626207    -3.7110683661
   43      O       7.7564275333    -1.6982765539    -5.5715494357
   44      C       9.1039459684    -1.2298110106    -5.5665650897
   45      C       0.4761289889    -3.4431364901     4.3611515586
   46      C       1.4774832151    -3.1068426520     3.4631569631
   47      C       1.3150118806    -3.3359268877     2.0884124240
   48      C       0.1207058358    -3.9142946788     1.6515745433
   49      C      -0.8861814604    -4.2506491728     2.5572228277
   50      C      -0.7118004955    -4.0144717145     3.9140269998
   51      C       2.7545084689    -2.4932502117     3.9644182373
   52      C      -0.0925599440    -4.1882257873     0.1875686795
   53      O      -1.6322893876    -4.3033432374     4.8630034561
   54      C      -2.8621093510    -4.8466943756     4.4568129370
   55      H       6.2094538165    -4.4568495461    -1.4235886823
   56      H       2.7145961505    -5.5279935646     1.9517514641
   57      H       0.7000977425    -0.8964833142     1.3952998064
   58      H       4.1246941381     0.2338792599    -2.0321987912
   59      H       7.7144948206    -6.7410254511    -1.8268885411
   60      H       8.5312271084    -9.0656727688    -1.8267072180
   61      H       7.5040200811   -10.8023712696    -0.4522774743
   62      H       5.5661675821   -11.4128958450     1.2989700933
   63      H       3.6668575516   -10.5937680005     2.5973098982
   64      H       2.9585371921    -8.2353115184     2.5403901405
   65      H       2.2373793903     4.7708963620    -3.7064357853
   66      H       3.4598280217     2.7254295624    -3.0788785186
   67      H       0.1228451583     5.3947832139    -2.6596118586
   68      H      -1.1823673411     1.1084180613     1.3622360264
   69      H      -2.5121974423     3.1070015871     0.7959208316
   70      H      -1.7722476857     4.7281248578    -0.8724249513
   71      H       8.5677243182    -1.0825186497    -3.0665684436
   72      H       5.4148168644    -2.5469586153    -5.6303554989
   73      H       8.2410786556    -0.8669669138    -0.7365194156
   74      H       7.2028307709    -2.1484269542    -0.0876065942
   75      H       6.5649205222    -0.5330736213    -0.2645073498
   76      H       3.3228963880    -3.2245437914    -4.7510224580
   77      H       2.8037691540    -2.2677703141    -3.3565092823
   78      H       3.4073382252    -3.8917241393    -3.1145595593
   79      H       9.4299572638    -1.2573922193    -6.6011840320
   80      H       9.7414181797    -1.8805349134    -4.9677489283
   81      H       9.1606701123    -0.2062363060    -5.1956698740
   82      H       0.6056677694    -3.2609269913     5.4219131190
   83      H      -1.7985992282    -4.6945177158     2.1784403346
   84      H       2.9429882798    -1.5295826511     3.4870413093
   85      H       3.6122377962    -3.1299585647     3.7372435850
   86      H       2.7331564847    -2.3342988540     5.0424712921
   87      H       0.6420547880    -4.9009345675    -0.1933733262
   88      H       0.0122699401    -3.2790076119    -0.4076541683
   89      H      -1.0834994537    -4.5991017857    -0.0077599663
   90      H      -3.4549380925    -4.9861551035     5.3586682731
   91      H      -3.4082258852    -4.1799418237     3.7817545770
   92      H      -2.7462792843    -5.8176840227     3.9646198885
 ----------------------------------------------------------------

   16   -2123.7205485112      9.86E-09 Convergence criterion met
 Total energy in the final basis set = -2123.72054851
 Final energy is   -2123.72054851121
 **  OPTIMIZATION CONVERGED  **

                    Orbital Energies (a.u.)
 --------------------------------------------------------------

 Alpha MOs
 -- Occupied --
-19.612 -19.513 -10.591 -10.530 -10.515 -10.505 -10.499 -10.494
-10.493 -10.487 -10.476 -10.452 -10.451 -10.451 -10.450 -10.450
-10.449 -10.449 -10.448 -10.448 -10.448 -10.447 -10.447 -10.446
-10.446 -10.446 -10.446 -10.445 -10.445 -10.445 -10.443 -10.441
-10.441 -10.439 -10.439 -10.438 -10.437 -10.435 -10.434 -10.434
-10.434 -10.431 -10.430 -10.419 -10.416 -10.415 -10.415 -10.411
-10.409 -10.406 -10.406 -10.395  -6.908  -6.899  -1.271  -1.169
 -1.014  -0.999  -0.999  -0.943  -0.940  -0.936  -0.926  -0.919
 -0.919  -0.911  -0.889  -0.881  -0.855  -0.846  -0.841  -0.837
 -0.834  -0.833  -0.832  -0.808  -0.805  -0.802  -0.796  -0.795
 -0.785  -0.775  -0.749  -0.740  -0.720  -0.716  -0.712  -0.709
 -0.704  -0.691  -0.674  -0.665  -0.664  -0.648  -0.641  -0.640
 -0.630  -0.629  -0.627  -0.616  -0.604  -0.598  -0.580  -0.578
 -0.574  -0.570  -0.568  -0.562  -0.560  -0.556  -0.543  -0.536
 -0.529  -0.523  -0.522  -0.517  -0.516  -0.512  -0.510  -0.509
 -0.502  -0.492  -0.489  -0.486  -0.480  -0.479  -0.478  -0.476
 -0.476  -0.474  -0.473  -0.470  -0.469  -0.467  -0.464  -0.462
 -0.457  -0.457  -0.452  -0.450  -0.448  -0.444  -0.442  -0.440
 -0.431  -0.426  -0.425  -0.424  -0.417  -0.416  -0.413  -0.409
 -0.408  -0.406  -0.401  -0.386  -0.384  -0.383  -0.383  -0.382
 -0.378  -0.374  -0.361  -0.361  -0.357  -0.355  -0.345  -0.335
 -0.333  -0.329  -0.322  -0.308  -0.305  -0.301  -0.285  -0.284
 -0.270  -0.261  -0.253  -0.242  -0.239  -0.233  -0.152

 Beta MOs
 -- Occupied --
-19.607 -19.513 -10.588 -10.531 -10.514 -10.505 -10.494 -10.492
-10.492 -10.487 -10.476 -10.452 -10.452 -10.451 -10.450 -10.450
-10.449 -10.449 -10.449 -10.448 -10.447 -10.447 -10.447 -10.446
-10.446 -10.446 -10.445 -10.444 -10.444 -10.444 -10.443 -10.441
-10.441 -10.438 -10.438 -10.436 -10.435 -10.435 -10.434 -10.434
-10.433 -10.432 -10.431 -10.419 -10.415 -10.415 -10.415 -10.411
-10.409 -10.405 -10.405 -10.395  -6.905  -6.897  -1.260  -1.169
 -1.004  -0.999  -0.999  -0.942  -0.939  -0.936  -0.923  -0.918
 -0.918  -0.902  -0.887  -0.880  -0.855  -0.842  -0.839  -0.836
 -0.833  -0.832  -0.832  -0.803  -0.802  -0.798  -0.795  -0.788
 -0.783  -0.775  -0.749  -0.740  -0.717  -0.714  -0.711  -0.705
 -0.703  -0.687  -0.673  -0.663  -0.661  -0.646  -0.639  -0.637
 -0.629  -0.628  -0.627  -0.611  -0.593  -0.583  -0.578  -0.577
 -0.572  -0.570  -0.567  -0.561  -0.558  -0.553  -0.543  -0.534
 -0.526  -0.522  -0.522  -0.515  -0.512  -0.510  -0.507  -0.503
 -0.499  -0.490  -0.487  -0.485  -0.478  -0.477  -0.476  -0.474
 -0.474  -0.473  -0.468  -0.468  -0.466  -0.464  -0.463  -0.460
 -0.457  -0.456  -0.451  -0.450  -0.448  -0.442  -0.441  -0.438
 -0.427  -0.425  -0.423  -0.420  -0.415  -0.413  -0.407  -0.406
 -0.404  -0.399  -0.386  -0.385  -0.383  -0.381  -0.381  -0.381
 -0.377  -0.372  -0.359  -0.356  -0.353  -0.348  -0.343  -0.333
 -0.329  -0.320  -0.318  -0.301  -0.297  -0.282  -0.281  -0.261
 -0.259  -0.245  -0.239  -0.233  -0.232

          Ground-State Mulliken Net Atomic Charges

     Atom                 Charge (a.u.)    Spin (a.u.)
  --------------------------------------------------------
      1 C                    -0.144823       0.080045
      2 C                    -0.132688       0.003231
      3 B                     0.544352       0.369380
      4 C                    -0.127451       0.010001
      5 C                    -0.149216       0.080687
      6 B                     0.586617       0.254753
      7 C                    -0.405813       0.017426
      8 C                     0.078473       0.009898
      9 C                     0.073623       0.115094
     10 C                    -0.400582      -0.068301
     11 C                    -0.399103      -0.068990
     12 C                     0.074567       0.113719
     13 C                     0.077243       0.009415
     14 C                    -0.409286       0.017651
     15 C                    -0.400173       0.058282
     16 C                    -0.217997      -0.040515
     17 C                    -0.352007       0.054698
     18 C                     0.234186      -0.036471
     19 C                    -0.073466       0.022998
     20 C                     0.186854      -0.036262
     21 C                    -0.352684       0.081352
     22 C                    -0.217195      -0.054702
     23 C                    -0.398661       0.089940
     24 C                     0.185796      -0.062270
     25 C                    -0.217636      -0.039755
     26 C                    -0.400548       0.057076
     27 C                     0.184025      -0.035699
     28 C                    -0.071949       0.022671
     29 C                     0.234396      -0.035774
     30 C                    -0.352377       0.053483
     31 C                     0.182459      -0.061789
     32 C                    -0.395630       0.088600
     33 C                    -0.217935      -0.053912
     34 C                    -0.352635       0.080108
     35 C                    -0.411975       0.027515
     36 C                     0.102013       0.025508
     37 C                    -0.123460       0.503766
     38 C                     0.064120      -0.081281
     39 C                    -0.367620       0.104407
     40 C                     0.463800       0.221482
     41 C                    -0.753592      -0.000180
     42 C                    -0.754035       0.005314
     43 O                    -0.393239       0.136801
     44 C                    -0.443326      -0.013765
     45 C                    -0.395596      -0.000782
     46 C                     0.053940       0.003163
     47 C                    -0.198913      -0.022794
     48 C                     0.043825       0.003360
     49 C                    -0.447687      -0.000722
     50 C                     0.390139       0.000865
     51 C                    -0.758502       0.000674
     52 C                    -0.757859       0.000361
     53 O                    -0.466608       0.000218
     54 C                    -0.415151      -0.000025
     55 H                     0.190762      -0.003605
     56 H                     0.231351       0.002964
     57 H                     0.231250       0.002987
     58 H                     0.192429      -0.003138
     59 H                     0.214224      -0.003455
     60 H                     0.230404       0.002037
     61 H                     0.228857      -0.003175
     62 H                     0.228099      -0.004822
     63 H                     0.234599       0.002638
     64 H                     0.231864      -0.005276
     65 H                     0.230613       0.001999
     66 H                     0.215844      -0.003378
     67 H                     0.228755      -0.003103
     68 H                     0.231923      -0.005189
     69 H                     0.234408       0.002601
     70 H                     0.227786      -0.004753
     71 H                     0.281280      -0.003048
     72 H                     0.280925      -0.006795
     73 H                     0.249407       0.001071
     74 H                     0.283829       0.003707
     75 H                     0.282813       0.002913
     76 H                     0.250357       0.000905
     77 H                     0.280333      -0.001295
     78 H                     0.281623      -0.001483
     79 H                     0.282784      -0.000003
     80 H                     0.252375       0.009049
     81 H                     0.252641       0.009065
     82 H                     0.222771       0.000344
     83 H                     0.230158       0.000284
     84 H                     0.245284      -0.000729
     85 H                     0.243852      -0.000603
     86 H                     0.232712       0.001347
     87 H                     0.244080      -0.000556
     88 H                     0.246113      -0.000755
     89 H                     0.229232       0.001249
     90 H                     0.242711       0.000007
     91 H                     0.209549       0.000019
     92 H                     0.208993       0.000019
  --------------------------------------------------------
  Sum of atomic charges =    -0.000000

                    Cartesian Multipole Moments
 -----------------------------------------------------------------
    Charge (ESU x 10^10)
                -0.0000
    Dipole Moment (Debye)
         X      10.8146      Y       2.4900      Z     -13.1335
       Tot      17.1943
    Quadrupole Moments (Debye-Ang)
        XX    -157.5087     XY       5.4218     YY    -323.3330
        XZ    -103.8291     YZ      17.9064     ZZ    -263.9049

 Total job time:  43464.38s(wall), 168421.72s(cpu)
        *  Thank you very much for using Q-Chem.  Have a nice day.  *
