 Q-Chem 5.0, Q-Chem, Inc., Pleasanton, CA (2017)
 Q-Chem 5.0.1 for Intel X86 EM64T Linux

User input:
--------------------------------------------------------------
$rem
threads 8
jobtype opt
method PBEh-3c
basis def2-mSVP
mem_static      1024
mem_total       8000
sym_ignore      true
unrestricted true
scf_algorithm   diis
scf_max_cycles  250
solvent_method  pcm
geom_opt_tol_energy 25
geom_opt_tol_gradient 75
$end

$pcm
theory  iefpcm
$end

$solvent
dielectric      1.0001
$end

$molecule
read ut1opt_chx.mol
$end

--------------------------------------------------------------

   72   -2123.6981120117      7.67E-09 Convergence criterion met
 Total energy in the final basis set = -2123.69811201
   31   -2123.7000393544      8.51E-09 Convergence criterion met
 Total energy in the final basis set = -2123.70003935
   22   -2123.7006368519      9.03E-09 Convergence criterion met
 Total energy in the final basis set = -2123.70063685
   24   -2123.7008474433      9.54E-09 Convergence criterion met
 Total energy in the final basis set = -2123.70084744
   22   -2123.7009524829      9.67E-09 Convergence criterion met
 Total energy in the final basis set = -2123.70095248
   20   -2123.7009891580      6.67E-09 Convergence criterion met
 Total energy in the final basis set = -2123.70098916
   15   -2123.7009782121      8.30E-09 Convergence criterion met
 Total energy in the final basis set = -2123.70097821
   11   -2123.7009583554      6.51E-09 Convergence criterion met
 Total energy in the final basis set = -2123.70095836
   10   -2123.7009515361      7.49E-09 Convergence criterion met
 Total energy in the final basis set = -2123.70095154
   11   -2123.7009539223      9.80E-09 Convergence criterion met
 Total energy in the final basis set = -2123.70095392

             Standard Nuclear Orientation (Angstroms)
    I     Atom           X                Y                Z
 ----------------------------------------------------------------
    1      C      -0.0105285347    -0.4467387903     0.0878372274
    2      C      -0.0188237142    -0.4340159918     1.5047782644
    3      H       0.9175716997    -0.4964207393     2.0537248735
    4      C      -1.2020001444    -0.3516403348     2.1959103429
    5      C      -2.4318438585    -0.2705096262     1.4803067056
    6      C      -2.4439854871    -0.2847787021     0.1071391704
    7      H      -3.3836351479    -0.2270607632    -0.4331313941
    8      C      -1.2471646156    -0.3785466076    -0.6209750025
    9      C      -3.5203657930    -0.1933518418     2.4425870035
   10      C      -4.8862728662    -0.1000694998     2.3529580219
   11      H      -5.3934359659    -0.0616758030     1.3967770954
   12      C      -2.9261752540    -0.2367876741     3.7182451892
   13      C      -3.6438136705    -0.1964456323     4.9092840114
   14      C      -1.5225750219    -0.3324775110     3.6263049551
   15      C      -0.8059204260    -0.3911002781     4.7930281883
   16      H       0.2742508838    -0.4689978022     4.7963617783
   17      C      -1.5053312253    -0.3520387695     6.0219368389
   18      H      -0.9353220321    -0.4002177344     6.9409000261
   19      C      -2.8757284575    -0.2575740018     6.0951865707
   20      H      -3.3651205986    -0.2319042172     7.0610951909
   21      C      -5.6389449509    -0.0550828737     3.5478057804
   22      H      -6.7168778857     0.0178591996     3.4775467386
   23      C      -5.0527292919    -0.1016849740     4.7912433032
   24      H      -5.6702478701    -0.0661315229     5.6803324347
   25      B       1.2852918240    -0.5441537621    -0.7149231323
   26      C       1.2890471913    -0.5848221933    -2.2426244705
   27      C       2.4895333433    -0.6788016253    -2.9899574587
   28      H       3.4468496131    -0.7299354512    -2.4773562036
   29      C       2.4572909223    -0.7104220734    -4.3616161923
   30      C       1.2043973605    -0.6436721035    -5.0374569142
   31      C       0.0316297784    -0.5518109553    -4.3312258959
   32      H      -0.9186053719    -0.5074262212    -4.8538214317
   33      C       0.0403972414    -0.5182247964    -2.9278442624
   34      C       1.4498513477    -0.6954417584    -6.4712688552
   35      C       0.6586824499    -0.6718056021    -7.5925598678
   36      H      -0.4197226869    -0.5961625418    -7.5276475218
   37      C       2.8450155074    -0.7946500888    -6.6305529869
   38      C       3.4800628201    -0.8742476499    -7.8673252489
   39      C       3.5052038694    -0.8088760187    -5.3850988301
   40      C       4.8728135163    -0.9094770681    -5.3874127410
   41      H       5.4455968101    -0.9297261730    -4.4685889320
   42      C       1.2787702066    -0.7492033257    -8.8602566066
   43      H       0.6533112352    -0.7301593520    -9.7438388558
   44      C       2.6421812266    -0.8482907809    -9.0095520551
   45      H       3.0749949158    -0.9063917689   -10.0008410702
   46      C       5.5483844171    -0.9910349884    -6.6276688550
   47      H       6.6279693752    -1.0705138243    -6.6221261959
   48      C       4.8899222707    -0.9752847118    -7.8350786439
   49      H       5.4510522656    -1.0418547200    -8.7593002459
   50      B      -1.2865775065    -0.4120096739    -2.1585121690
   51      C       2.6553144083    -0.5817667478     0.0353657525
   52      C       3.2847093894    -1.8303644212     0.3546763272
   53      C       4.4609935604    -1.8351328897     1.0440518281
   54      H       4.9559340236    -2.7603432237     1.3122488516
   55      C       5.0686714832    -0.6138135985     1.4342864073
   56      O       6.1958474913    -0.7419311418     2.0935214159
   57      C       4.4779554387     0.6243533116     1.1153191424
   58      H       4.9451722753     1.5551463456     1.4073924998
   59      C       3.2967125750     0.6472441430     0.4215138770
   60      C       6.9093407634     0.4011862353     2.5427493679
   61      H       7.7947422199     0.0227690140     3.0441997037
   62      H       6.3181726975     0.9846539237     3.2503332302
   63      H       7.2125225027     1.0334369791     1.7069372958
   64      C       2.6410165478     1.9324087728     0.0508581417
   65      H       3.2290603925     2.7969436998     0.3546452172
   66      H       2.4768497008     1.9753651488    -1.0276954448
   67      H       1.6517478393     2.0003096378     0.5083093233
   68      C       2.6180067272    -3.0965871006    -0.0702173244
   69      H       3.1747950911    -3.9767332075     0.2474571758
   70      H       2.5076214345    -3.1250799954    -1.1555636500
   71      H       1.6085588208    -3.1521210152     0.3412925292
   72      C      -2.6556853470    -0.3465541480    -2.9442540219
   73      C      -3.3481184850    -1.5146599187    -3.2729507644
   74      C      -4.5419776802    -1.4635135549    -3.9905918339
   75      H      -5.0456766255    -2.3927500347    -4.2255193729
   76      C      -5.0629411867    -0.2417370336    -4.3922726702
   77      O      -6.2118703893    -0.0923709515    -5.0896443343
   78      C      -4.3819867887     0.9289369442    -4.0724564422
   79      H      -4.7948966450     1.8786675779    -4.3915765129
   80      C      -3.1958238320     0.8816039188    -3.3595030073
   81      C      -6.9429846276    -1.2398227418    -5.4236222725
   82      H      -7.8237932337    -0.9017512444    -5.9664046297
   83      H      -7.2729781376    -1.7966796016    -4.5400209361
   84      H      -6.3793975717    -1.9215933730    -6.0696328548
   85      C      -2.4723242798     2.1576689857    -3.0352517685
   86      H      -3.0185502278     3.0336866227    -3.3847801542
   87      H      -1.4826640333     2.1755613543    -3.4965480627
   88      H      -2.3220625866     2.2642520359    -1.9592070965
   89      C      -2.7975372949    -2.8521735089    -2.8623985962
   90      H      -3.4592089879    -3.6695971751    -3.1502909529
   91      H      -1.8243325322    -3.0348507549    -3.3226176746
   92      H      -2.6520550934    -2.9062300800    -1.7819211378
 ----------------------------------------------------------------

   17   -2123.7009579617      5.71E-09 Convergence criterion met
 Total energy in the final basis set = -2123.70095796
 Final energy is   -2123.70095796172
 **  OPTIMIZATION CONVERGED  **

                    Orbital Energies (a.u.)
 --------------------------------------------------------------

 Alpha MOs
 -- Occupied --
-19.622 -19.508 -10.600 -10.551 -10.525 -10.514 -10.504 -10.504
-10.503 -10.480 -10.475 -10.458 -10.453 -10.446 -10.446 -10.445
-10.445 -10.444 -10.444 -10.444 -10.443 -10.443 -10.443 -10.440
-10.440 -10.440 -10.440 -10.440 -10.439 -10.438 -10.437 -10.437
-10.436 -10.436 -10.435 -10.430 -10.430 -10.429 -10.427 -10.427
-10.427 -10.424 -10.423 -10.414 -10.413 -10.412 -10.408 -10.405
-10.404 -10.400 -10.400 -10.390  -6.905  -6.894  -1.281  -1.164
 -1.023  -0.993  -0.993  -0.938  -0.935  -0.935  -0.930  -0.922
 -0.914  -0.913  -0.884  -0.876  -0.857  -0.849  -0.836  -0.832
 -0.830  -0.827  -0.827  -0.816  -0.813  -0.798  -0.791  -0.791
 -0.780  -0.771  -0.743  -0.735  -0.727  -0.713  -0.708  -0.707
 -0.701  -0.699  -0.669  -0.661  -0.659  -0.653  -0.644  -0.636
 -0.626  -0.624  -0.624  -0.621  -0.618  -0.602  -0.575  -0.574
 -0.569  -0.566  -0.564  -0.561  -0.555  -0.553  -0.551  -0.538
 -0.530  -0.527  -0.520  -0.519  -0.519  -0.517  -0.506  -0.506
 -0.500  -0.497  -0.490  -0.488  -0.487  -0.482  -0.478  -0.474
 -0.473  -0.470  -0.470  -0.467  -0.463  -0.462  -0.462  -0.460
 -0.454  -0.453  -0.451  -0.450  -0.446  -0.443  -0.437  -0.435
 -0.433  -0.431  -0.421  -0.420  -0.418  -0.414  -0.411  -0.404
 -0.401  -0.400  -0.396  -0.381  -0.379  -0.377  -0.377  -0.377
 -0.374  -0.371  -0.357  -0.355  -0.354  -0.349  -0.344  -0.340
 -0.328  -0.328  -0.318  -0.307  -0.302  -0.295  -0.279  -0.277
 -0.264  -0.253  -0.247  -0.237  -0.233  -0.226  -0.148

 Beta MOs
 -- Occupied --
-19.617 -19.507 -10.596 -10.552 -10.523 -10.514 -10.504 -10.502
-10.498 -10.480 -10.475 -10.458 -10.453 -10.446 -10.446 -10.445
-10.445 -10.444 -10.444 -10.444 -10.444 -10.442 -10.442 -10.441
-10.441 -10.439 -10.439 -10.439 -10.439 -10.438 -10.438 -10.437
-10.436 -10.435 -10.435 -10.428 -10.428 -10.428 -10.427 -10.427
-10.427 -10.424 -10.424 -10.413 -10.413 -10.412 -10.408 -10.405
-10.404 -10.399 -10.399 -10.390  -6.901  -6.892  -1.271  -1.164
 -1.014  -0.993  -0.993  -0.936  -0.934  -0.932  -0.929  -0.913
 -0.913  -0.913  -0.882  -0.875  -0.853  -0.849  -0.835  -0.830
 -0.829  -0.827  -0.826  -0.814  -0.804  -0.795  -0.789  -0.789
 -0.778  -0.771  -0.743  -0.734  -0.722  -0.711  -0.706  -0.706
 -0.698  -0.697  -0.668  -0.658  -0.657  -0.650  -0.641  -0.635
 -0.624  -0.624  -0.621  -0.621  -0.600  -0.598  -0.574  -0.573
 -0.567  -0.565  -0.563  -0.559  -0.554  -0.550  -0.549  -0.537
 -0.526  -0.523  -0.519  -0.518  -0.515  -0.511  -0.506  -0.505
 -0.497  -0.494  -0.486  -0.486  -0.480  -0.477  -0.476  -0.473
 -0.472  -0.469  -0.469  -0.466  -0.462  -0.461  -0.461  -0.459
 -0.452  -0.452  -0.451  -0.449  -0.446  -0.442  -0.436  -0.434
 -0.430  -0.424  -0.420  -0.418  -0.412  -0.407  -0.402  -0.400
 -0.398  -0.395  -0.394  -0.381  -0.378  -0.376  -0.375  -0.374
 -0.373  -0.367  -0.353  -0.352  -0.348  -0.342  -0.339  -0.337
 -0.326  -0.316  -0.312  -0.295  -0.291  -0.275  -0.275  -0.254
 -0.253  -0.239  -0.233  -0.226  -0.224

          Ground-State Mulliken Net Atomic Charges

     Atom                 Charge (a.u.)    Spin (a.u.)
  --------------------------------------------------------
      1 C                    -0.128339      -0.004742
      2 C                    -0.407804       0.034431
      3 H                     0.172952      -0.004453
      4 C                     0.101147      -0.004940
      5 C                     0.078473       0.122906
      6 C                    -0.393642      -0.072752
      7 H                     0.226019       0.003102
      8 C                    -0.144530       0.089828
      9 C                     0.195487      -0.063529
     10 C                    -0.386316       0.089472
     11 H                     0.216161      -0.005292
     12 C                    -0.072367       0.022125
     13 C                     0.254462      -0.034410
     14 C                     0.198577      -0.030839
     15 C                    -0.396076       0.050450
     16 H                     0.194607      -0.003024
     17 C                    -0.200213      -0.036539
     18 H                     0.212530       0.001883
     19 C                    -0.345169       0.047622
     20 H                     0.211269      -0.002782
     21 C                    -0.202573      -0.053949
     22 H                     0.218279       0.002626
     23 C                    -0.342440       0.080715
     24 H                     0.210221      -0.004854
     25 B                     0.544535       0.390796
     26 C                    -0.129233      -0.000357
     27 C                    -0.410014       0.035082
     28 H                     0.174081      -0.004456
     29 C                     0.101964      -0.005706
     30 C                     0.076183       0.121839
     31 C                    -0.391251      -0.070802
     32 H                     0.228092       0.003061
     33 C                    -0.144981       0.089829
     34 C                     0.196748      -0.063025
     35 C                    -0.386805       0.089164
     36 H                     0.216535      -0.005275
     37 C                    -0.072752       0.021764
     38 C                     0.252715      -0.034296
     39 C                     0.199619      -0.030413
     40 C                    -0.396901       0.050272
     41 H                     0.195133      -0.003016
     42 C                    -0.202598      -0.053670
     43 H                     0.218371       0.002610
     44 C                    -0.341333       0.080274
     45 H                     0.210263      -0.004824
     46 C                    -0.200112      -0.036344
     47 H                     0.212789       0.001871
     48 C                    -0.344573       0.047477
     49 H                     0.211476      -0.002771
     50 B                     0.610045       0.248786
     51 C                    -0.115318       0.466873
     52 C                     0.079177      -0.045181
     53 C                    -0.362186       0.069229
     54 H                     0.262272      -0.004937
     55 C                     0.456546       0.232817
     56 O                    -0.400025       0.116625
     57 C                    -0.421465      -0.010116
     58 H                     0.257019      -0.001118
     59 C                     0.091102       0.063439
     60 C                    -0.432273      -0.012361
     61 H                     0.272576      -0.000032
     62 H                     0.239361       0.008171
     63 H                     0.238704       0.008074
     64 C                    -0.753050      -0.002794
     65 H                     0.234794       0.001548
     66 H                     0.289144       0.004188
     67 H                     0.290867       0.005341
     68 C                    -0.748516       0.004362
     69 H                     0.237168       0.001250
     70 H                     0.283664      -0.000184
     71 H                     0.282430      -0.000278
     72 C                    -0.202707      -0.013596
     73 C                     0.056837       0.004741
     74 C                    -0.432424      -0.000862
     75 H                     0.214782       0.000251
     76 C                     0.398139       0.006120
     77 O                    -0.456109       0.003062
     78 C                    -0.380073       0.000313
     79 H                     0.213559       0.000241
     80 C                     0.056908       0.002636
     81 C                    -0.402673      -0.000335
     82 H                     0.234016       0.000006
     83 H                     0.201641       0.000221
     84 H                     0.201125       0.000222
     85 C                    -0.752373       0.000544
     86 H                     0.226058       0.001201
     87 H                     0.242361      -0.000538
     88 H                     0.242195      -0.000677
     89 C                    -0.751790       0.000400
     90 H                     0.220854       0.001253
     91 H                     0.243527      -0.000463
     92 H                     0.245446      -0.000580
  --------------------------------------------------------
  Sum of atomic charges =    -0.000000

                    Cartesian Multipole Moments
 -----------------------------------------------------------------
    Charge (ESU x 10^10)
                -0.0000
    Dipole Moment (Debye)
         X      11.5280      Y       0.1263      Z       6.5544
       Tot      13.2617
    Quadrupole Moments (Debye-Ang)
        XX    -229.7648     XY      11.5518     YY    -308.4631
        XZ      32.9541     YZ       6.8485     ZZ    -308.2958

 Total job time:  29782.03s(wall), 112029.96s(cpu)
        *  Thank you very much for using Q-Chem.  Have a nice day.  *
