 Q-Chem 5.0, Q-Chem, Inc., Pleasanton, CA (2017)
 Q-Chem 5.0.1 for Intel X86 EM64T Linux

User input:
--------------------------------------------------------------
$rem
threads 8
jobtype opt
method PBEh-3c
basis def2-mSVP
mem_static      1024
mem_total       8000
sym_ignore      true
unrestricted true
scf_algorithm	diis
scf_max_cycles	2500
solvent_method  pcm
geom_opt_tol_energy 25
geom_opt_tol_gradient 75
$end

$pcm
theory  iefpcm
$end

$solvent
dielectric      8.93
$end

$molecule
read uincoords.mol
$end
--------------------------------------------------------------

   21   -2123.7386806819      8.63E-09 Convergence criterion met
 Total energy in the final basis set = -2123.73868068
   19   -2123.7395287315      6.37E-09 Convergence criterion met
 Total energy in the final basis set = -2123.73952873
   18   -2123.7397330550      9.85E-09 Convergence criterion met
 Total energy in the final basis set = -2123.73973305
   18   -2123.7398282730      9.49E-09 Convergence criterion met
 Total energy in the final basis set = -2123.73982827
   18   -2123.7398803380      9.42E-09 Convergence criterion met
 Total energy in the final basis set = -2123.73988034
   18   -2123.7399789919      9.34E-09 Convergence criterion met
 Total energy in the final basis set = -2123.73997899
   18   -2123.7400295496      9.22E-09 Convergence criterion met
 Total energy in the final basis set = -2123.74002955
   18   -2123.7400484425      9.36E-09 Convergence criterion met
   18   -2123.7408545673      9.56E-09 Convergence criterion met
 Total energy in the final basis set = -2123.74085457
   18   -2123.7410642684      9.50E-09 Convergence criterion met
 Total energy in the final basis set = -2123.74106427
   18   -2123.7412039573      9.46E-09 Convergence criterion met
 Total energy in the final basis set = -2123.74120396
   18   -2123.7412702075      9.44E-09 Convergence criterion met
 Total energy in the final basis set = -2123.74127021
   18   -2123.7412691753      9.82E-09 Convergence criterion met
 Total energy in the final basis set = -2123.74126918
   18   -2123.7412688338      9.89E-09 Convergence criterion met
 Total energy in the final basis set = -2123.74126883

             Standard Nuclear Orientation (Angstroms)
    I     Atom           X                Y                Z
 ----------------------------------------------------------------
    1      C       2.4679869822    -1.5892858801     0.3736278611
    2      C       3.4457272489    -1.2774179956    -0.6224629429
    3      B       4.4691992504    -2.3420155921    -1.0140252409
    4      C       4.5007644311    -3.7013287635    -0.3166716815
    5      C       3.5108443954    -4.0084271913     0.6671485052
    6      B       2.4462892889    -2.9694876809     1.0545619009
    7      C       5.4407606294    -4.6915974917    -0.6834739482
    8      C       5.3918611281    -5.9421810748    -0.1221816780
    9      C       4.3821980089    -6.2595841379     0.8358435048
   10      C       3.4764575305    -5.3017656403     1.2246642091
   11      C       1.4593106337    -0.6491230605     0.6574464681
   12      C       1.4040056715     0.5492238001    -0.0137902767
   13      C       2.3945981983     0.8730424173    -0.9892459307
   14      C       3.3893026387    -0.0275516063    -1.2817195579
   15      C       7.2282900553    -7.4862478398    -1.1857207455
   16      C       7.6911372253    -8.8233022769    -1.1838966416
   17      C       7.1184087158    -9.8050656478    -0.4068326497
   18      C       6.0240782778    -9.4915907116     0.4358775532
   19      C       5.6024056923    -8.1630989145     0.4297281471
   20      C       6.1745972384    -7.1535682409    -0.3702342864
   21      C       5.2885380849   -10.3807136545     1.2585640943
   22      C       4.2177768714    -9.9142988761     1.9874687689
   23      C       3.8076069948    -8.5601254878     1.9593126559
   24      C       4.5086020751    -7.6756302763     1.1752973115
   25      C       1.8476176887     4.1339830192    -2.9325109556
   26      C       2.5511681351     2.9594323597    -2.5743117547
   27      C       2.0348636627     2.1619147209    -1.5831199701
   28      C       0.8281956493     2.5564186300    -0.9685891342
   29      C       0.1003205381     3.6909558646    -1.3194348605
   30      C       0.6593180983     4.4990550691    -2.3398278611
   31      C       0.4058761151     1.6124143716    -0.0098582045
   32      C      -0.7921142307     1.8165520439     0.6299046313
   33      C      -1.5465050214     2.9667050139     0.2994384810
   34      C      -1.1291058172     3.8821965920    -0.6406510321
   35      C       7.5519440270    -1.4097628223    -3.1834198064
   36      C       6.7353943477    -1.5787873296    -2.0998273310
   37      C       5.4122249601    -2.1185397397    -2.2558695839
   38      C       4.9533068668    -2.4850545969    -3.5640538678
   39      C       5.7742695808    -2.3102338163    -4.6376961987
   40      C       7.0806182791    -1.7726326294    -4.4658925756
   41      C       7.1960730906    -1.2160872253    -0.7287754554
   42      C       3.5832405123    -3.0585178311    -3.7349839577
   43      O       7.7726340846    -1.6530310649    -5.5602215069
   44      C       9.1071095748    -1.1357243825    -5.5518727589
   45      C       0.4831745506    -3.4357458608     4.3702352472
   46      C       1.4814821604    -3.1070505375     3.4644736358
   47      C       1.3110806508    -3.3409276262     2.0912124716
   48      C       0.1110475054    -3.9169152960     1.6643793882
   49      C      -0.8930737508    -4.2456185060     2.5768669140
   50      C      -0.7104511944    -4.0041904589     3.9323289729
   51      C       2.7625072319    -2.4961677426     3.9597612780
   52      C      -0.1136606771    -4.1973064467     0.2031034290
   53      O      -1.6267705355    -4.2847780117     4.8869345436
   54      C      -2.8653840316    -4.8247842005     4.4891862645
   55      H       6.1949776448    -4.4756817899    -1.4347912379
   56      H       2.7049849940    -5.5447639843     1.9485247826
   57      H       0.6961379927    -0.8990526783     1.3876618898
   58      H       4.1191668244     0.2106256207    -2.0502678546
   59      H       7.7020777308    -6.7591934125    -1.8337093402
   60      H       8.5210492277    -9.0833360680    -1.8287928943
   61      H       7.4965770590   -10.8195201533    -0.4490648021
   62      H       5.5605184503   -11.4284284660     1.3043355338
   63      H       3.6599006890   -10.6089391463     2.6028636510
   64      H       2.9484650446    -8.2514307289     2.5421604365
   65      H       2.2555311198     4.7596070661    -3.7163170644
   66      H       3.4667434514     2.7054131845    -3.0942890936
   67      H       0.1471704833     5.3975947439    -2.6620854360
   68      H      -1.1755293382     1.1163663351     1.3621492133
   69      H      -2.4934326970     3.1240861038     0.8003305147
   70      H      -1.7468147164     4.7420357117    -0.8700615892
   71      H       8.5459527010    -1.0035341805    -3.0541845220
   72      H       5.4581052013    -2.5763650040    -5.6391232421
   73      H       8.2015645020    -0.8002640594    -0.7341989468
   74      H       7.1851092949    -2.0942167642    -0.0799088796
   75      H       6.5190788118    -0.4885510661    -0.2771169233
   76      H       3.3812586392    -3.3029512898    -4.7764148432
   77      H       2.8220514631    -2.3560219524    -3.3927761260
   78      H       3.4656279256    -3.9651532923    -3.1394012597
   79      H       9.4363423699    -1.1575165289    -6.5852327208
   80      H       9.7601606279    -1.7622374101    -4.9452173743
   81      H       9.1207931254    -0.1102811796    -5.1839694287
   82      H       0.6217197784    -3.2485728740     5.4293686206
   83      H      -1.8096170628    -4.6871775105     2.2052903956
   84      H       2.9543953115    -1.5355575178     3.4775107942
   85      H       3.6176281889    -3.1370543332     3.7341692692
   86      H       2.7443770277    -2.3320679925     5.0370841969
   87      H       0.6147559844    -4.9155414401    -0.1795886119
   88      H      -0.0077804146    -3.2921012921    -0.3980845398
   89      H      -1.1078586432    -4.6040883359     0.0168390785
   90      H      -3.4530772890    -4.9570927723     5.3951478717
   91      H      -3.4098805682    -4.1571511379     3.8147091769
   92      H      -2.7556212541    -5.7974761405     4.0003964633
 ----------------------------------------------------------------

   18   -2123.7412687482      9.78E-09 Convergence criterion met
 Total energy in the final basis set = -2123.74126875
 Final energy is   -2123.74126874816
 **  OPTIMIZATION CONVERGED  **

                    Orbital Energies (a.u.)
 --------------------------------------------------------------

 Alpha MOs
 -- Occupied --
-19.604 -19.521 -10.583 -10.513 -10.506 -10.497 -10.497 -10.493
-10.486 -10.485 -10.479 -10.458 -10.458 -10.455 -10.455 -10.455
-10.455 -10.454 -10.453 -10.453 -10.453 -10.453 -10.452 -10.452
-10.452 -10.451 -10.451 -10.451 -10.450 -10.448 -10.448 -10.446
-10.445 -10.445 -10.444 -10.444 -10.444 -10.444 -10.441 -10.441
-10.439 -10.439 -10.438 -10.427 -10.425 -10.421 -10.421 -10.419
-10.418 -10.414 -10.414 -10.405  -6.914  -6.906  -1.262  -1.176
 -1.006  -1.006  -1.005  -0.950  -0.947  -0.945  -0.925  -0.925
 -0.917  -0.904  -0.893  -0.887  -0.864  -0.849  -0.844  -0.842
 -0.838  -0.838  -0.833  -0.811  -0.805  -0.801  -0.799  -0.794
 -0.791  -0.782  -0.758  -0.748  -0.724  -0.720  -0.717  -0.710
 -0.703  -0.683  -0.679  -0.670  -0.669  -0.654  -0.647  -0.636
 -0.635  -0.634  -0.630  -0.607  -0.596  -0.592  -0.584  -0.583
 -0.579  -0.577  -0.573  -0.565  -0.565  -0.558  -0.551  -0.533
 -0.529  -0.528  -0.524  -0.517  -0.516  -0.510  -0.509  -0.506
 -0.500  -0.497  -0.492  -0.485  -0.484  -0.482  -0.481  -0.479
 -0.479  -0.477  -0.477  -0.473  -0.470  -0.466  -0.466  -0.465
 -0.464  -0.460  -0.457  -0.455  -0.452  -0.450  -0.445  -0.436
 -0.434  -0.433  -0.430  -0.425  -0.420  -0.416  -0.415  -0.413
 -0.413  -0.407  -0.406  -0.394  -0.390  -0.390  -0.389  -0.386
 -0.384  -0.379  -0.369  -0.366  -0.363  -0.362  -0.353  -0.341
 -0.333  -0.329  -0.327  -0.316  -0.309  -0.302  -0.292  -0.290
 -0.278  -0.271  -0.260  -0.249  -0.247  -0.242  -0.158

 Beta MOs
 -- Occupied --
-19.598 -19.521 -10.580 -10.513 -10.506 -10.498 -10.497 -10.486
-10.484 -10.484 -10.479 -10.459 -10.459 -10.456 -10.456 -10.455
-10.454 -10.454 -10.454 -10.453 -10.453 -10.452 -10.452 -10.451
-10.451 -10.451 -10.451 -10.450 -10.450 -10.448 -10.448 -10.445
-10.444 -10.444 -10.444 -10.444 -10.444 -10.444 -10.441 -10.441
-10.439 -10.439 -10.439 -10.427 -10.425 -10.421 -10.420 -10.419
-10.418 -10.413 -10.413 -10.405  -6.911  -6.904  -1.250  -1.176
 -1.006  -1.006  -0.996  -0.949  -0.946  -0.945  -0.924  -0.924
 -0.915  -0.896  -0.889  -0.886  -0.864  -0.848  -0.842  -0.841
 -0.837  -0.837  -0.829  -0.807  -0.803  -0.801  -0.795  -0.789
 -0.784  -0.782  -0.758  -0.748  -0.722  -0.718  -0.716  -0.709
 -0.698  -0.679  -0.678  -0.669  -0.666  -0.652  -0.646  -0.636
 -0.634  -0.634  -0.626  -0.603  -0.592  -0.583  -0.582  -0.578
 -0.576  -0.573  -0.568  -0.564  -0.563  -0.555  -0.551  -0.531
 -0.528  -0.528  -0.521  -0.516  -0.515  -0.508  -0.504  -0.499
 -0.498  -0.495  -0.491  -0.484  -0.483  -0.482  -0.480  -0.478
 -0.478  -0.476  -0.476  -0.472  -0.470  -0.465  -0.464  -0.464
 -0.458  -0.457  -0.455  -0.452  -0.451  -0.449  -0.443  -0.433
 -0.432  -0.431  -0.429  -0.421  -0.419  -0.414  -0.413  -0.412
 -0.410  -0.404  -0.394  -0.389  -0.387  -0.387  -0.386  -0.383
 -0.381  -0.373  -0.367  -0.362  -0.358  -0.355  -0.351  -0.340
 -0.327  -0.325  -0.321  -0.309  -0.305  -0.288  -0.288  -0.271
 -0.267  -0.252  -0.246  -0.242  -0.240

          Ground-State Mulliken Net Atomic Charges

     Atom                 Charge (a.u.)    Spin (a.u.)
  --------------------------------------------------------
      1 C                    -0.145438       0.069851
      2 C                    -0.139439       0.015814
      3 B                     0.551358       0.347048
      4 C                    -0.135976       0.019535
      5 C                    -0.148018       0.068932
      6 B                     0.559775       0.267981
      7 C                    -0.408852       0.001706
      8 C                     0.064960       0.026947
      9 C                     0.063008       0.100314
     10 C                    -0.407049      -0.060072
     11 C                    -0.405308      -0.061609
     12 C                     0.063452       0.101781
     13 C                     0.064359       0.025695
     14 C                    -0.411449       0.002780
     15 C                    -0.406386       0.064091
     16 C                    -0.232440      -0.043158
     17 C                    -0.359260       0.059412
     18 C                     0.216597      -0.036823
     19 C                    -0.076238       0.022927
     20 C                     0.174877      -0.040937
     21 C                    -0.359853       0.077967
     22 C                    -0.231722      -0.053134
     23 C                    -0.406207       0.086266
     24 C                     0.174392      -0.059194
     25 C                    -0.232005      -0.043131
     26 C                    -0.406687       0.063814
     27 C                     0.172281      -0.040772
     28 C                    -0.074916       0.023125
     29 C                     0.217036      -0.036951
     30 C                    -0.359707       0.059198
     31 C                     0.171264      -0.059809
     32 C                    -0.403212       0.087006
     33 C                    -0.232358      -0.053575
     34 C                    -0.359915       0.078885
     35 C                    -0.409291       0.058849
     36 C                     0.099806      -0.012574
     37 C                    -0.129273       0.521554
     38 C                     0.061431      -0.109853
     39 C                    -0.367833       0.139424
     40 C                     0.470199       0.207198
     41 C                    -0.759102       0.001539
     42 C                    -0.758988       0.007152
     43 O                    -0.387654       0.153440
     44 C                    -0.451901      -0.014786
     45 C                    -0.409196      -0.000790
     46 C                     0.043114       0.003172
     47 C                    -0.193681      -0.024003
     48 C                     0.034086       0.003211
     49 C                    -0.457637      -0.000648
     50 C                     0.383366       0.000563
     51 C                    -0.761860       0.000685
     52 C                    -0.761508       0.000381
     53 O                    -0.473873       0.000089
     54 C                    -0.426251      -0.000011
     55 H                     0.215387      -0.002708
     56 H                     0.232439       0.002494
     57 H                     0.232667       0.002561
     58 H                     0.216087      -0.002330
     59 H                     0.237537      -0.003740
     60 H                     0.248502       0.002121
     61 H                     0.246291      -0.003420
     62 H                     0.245683      -0.004554
     63 H                     0.249918       0.002543
     64 H                     0.244254      -0.005021
     65 H                     0.248456       0.002122
     66 H                     0.238200      -0.003721
     67 H                     0.246188      -0.003406
     68 H                     0.244415      -0.005058
     69 H                     0.249833       0.002564
     70 H                     0.245416      -0.004612
     71 H                     0.302859      -0.004543
     72 H                     0.294477      -0.008510
     73 H                     0.263909       0.000829
     74 H                     0.276390       0.002118
     75 H                     0.276153       0.001636
     76 H                     0.262982       0.000768
     77 H                     0.272443      -0.002394
     78 H                     0.273358      -0.002484
     79 H                     0.287673       0.000015
     80 H                     0.263789       0.009812
     81 H                     0.264024       0.009854
     82 H                     0.232960       0.000352
     83 H                     0.248621       0.000292
     84 H                     0.244406      -0.000776
     85 H                     0.243283      -0.000627
     86 H                     0.241660       0.001400
     87 H                     0.243578      -0.000588
     88 H                     0.245181      -0.000797
     89 H                     0.240223       0.001280
     90 H                     0.250558       0.000007
     91 H                     0.217785       0.000009
     92 H                     0.217538       0.000009
  --------------------------------------------------------
  Sum of atomic charges =    -0.000000

                    Cartesian Multipole Moments
 -----------------------------------------------------------------
    Charge (ESU x 10^10)
                -0.0000
    Dipole Moment (Debye)
         X      12.5410      Y       3.0683      Z     -15.2915
       Tot      20.0130
    Quadrupole Moments (Debye-Ang)
        XX    -134.0021     XY       4.8112     YY    -320.0273
        XZ    -119.2163     YZ      20.2165     ZZ    -256.1150

 Total job time:  44041.31s(wall), 167384.89s(cpu)
        *  Thank you very much for using Q-Chem.  Have a nice day.  *
