 Q-Chem 5.0, Q-Chem, Inc., Pleasanton, CA (2017)
 Q-Chem 5.0.1 for Intel X86 EM64T Linux

User input:
--------------------------------------------------------------
$rem
threads 8
jobtype opt
method PBEh-3c
basis def2-mSVP
mem_static      1024
mem_total       8000
sym_ignore      true
unrestricted true
scf_algorithm	diis
scf_max_cycles	250
solvent_method  pcm
geom_opt_tol_energy 25
geom_opt_tol_gradient 75
$end

$pcm
theory  iefpcm
$end
$solvent
dielectric      4.33
$end

$molecule
read ut1opt_dcm.mol
$end
--------------------------------------------------------------

   21   -2123.7319255619      8.82E-09 Convergence criterion met
 Total energy in the final basis set = -2123.73192556
   17   -2123.7336413859      8.72E-09 Convergence criterion met
 Total energy in the final basis set = -2123.73364139
   17   -2123.7341132785      9.17E-09 Convergence criterion met
 Total energy in the final basis set = -2123.73411328
   17   -2123.7342344821      9.59E-09 Convergence criterion met
 Total energy in the final basis set = -2123.73423448
   18   -2123.7343160422      8.00E-09 Convergence criterion met
 Total energy in the final basis set = -2123.73431604
   17   -2123.7343309209      9.46E-09 Convergence criterion met
 Total energy in the final basis set = -2123.73433092
   17   -2123.7343186768      9.40E-09 Convergence criterion met
 Total energy in the final basis set = -2123.73431868
   17   -2123.7343033028      9.61E-09 Convergence criterion met
 Total energy in the final basis set = -2123.73430330
   17   -2123.7342974821      9.63E-09 Convergence criterion met
 Total energy in the final basis set = -2123.73429748

             Standard Nuclear Orientation (Angstroms)
    I     Atom           X                Y                Z
 ----------------------------------------------------------------
    1      C       0.0031423826    -0.4098537038     0.0732337344
    2      C      -0.0028424002    -0.3983420757     1.4896315704
    3      H       0.9350921885    -0.4513408159     2.0358466167
    4      C      -1.1859919559    -0.3256944828     2.1845876025
    5      C      -2.4192966609    -0.2513573155     1.4711865249
    6      C      -2.4347355235    -0.2621259326     0.0978369145
    7      H      -3.3787737346    -0.2091030108    -0.4354034737
    8      C      -1.2380930163    -0.3453254310    -0.6349069303
    9      C      -3.5068002235    -0.1827407974     2.4364057832
   10      C      -4.8747012675    -0.0978690398     2.3498300121
   11      H      -5.3853699467    -0.0615732740     1.3951610691
   12      C      -2.9082256362    -0.2242040460     3.7108119364
   13      C      -3.6236495224    -0.1893333719     4.9044392703
   14      C      -1.5033364200    -0.3110737831     3.6155187618
   15      C      -0.7824121546    -0.3666608339     4.7813349413
   16      H       0.2983254140    -0.4369784725     4.7824811672
   17      C      -1.4804360379    -0.3331560842     6.0123280226
   18      H      -0.9073581381    -0.3784999673     6.9296165337
   19      C      -2.8523343602    -0.2472280299     6.0897302442
   20      H      -3.3398863985    -0.2253589415     7.0567662333
   21      C      -5.6246235242    -0.0583281726     3.5475402165
   22      H      -6.7032788710     0.0081872965     3.4800358218
   23      C      -5.0342399238    -0.1027801494     4.7905314032
   24      H      -5.6492614755    -0.0716928239     5.6816921958
   25      B       1.3021380041    -0.4936218914    -0.7273391775
   26      C       1.2992430992    -0.5281473283    -2.2547529681
   27      C       2.5000922881    -0.6189192791    -3.0008304995
   28      H       3.4558320636    -0.6677293153    -2.4861268257
   29      C       2.4703208480    -0.6502094282    -4.3737880170
   30      C       1.2167961745    -0.5865336574    -5.0523498511
   31      C       0.0422128854    -0.4997789001    -4.3481400039
   32      H      -0.9046335509    -0.4569607745    -4.8771365929
   33      C       0.0479728766    -0.4688132494    -2.9431687082
   34      C       1.4646146383    -0.6375024281    -6.4865601650
   35      C       0.6742296723    -0.6158582901    -7.6099439337
   36      H      -0.4047292455    -0.5426127503    -7.5476136177
   37      C       2.8609536426    -0.7342712740    -6.6427459562
   38      C       3.4985557851    -0.8137284370    -7.8792555164
   39      C       3.5198034627    -0.7468834308    -5.3955223781
   40      C       4.8888726284    -0.8455076901    -5.3952401172
   41      H       5.4605442387    -0.8645838644    -4.4756419913
   42      C       1.2973351138    -0.6931337719    -8.8770791806
   43      H       0.6732728416    -0.6760058129    -9.7618569688
   44      C       2.6624786872    -0.7898949015    -9.0238406983
   45      H       3.0978070320    -0.8479941281   -10.0141802170
   46      C       5.5661524995    -0.9268698855    -6.6357171468
   47      H       6.6459253692    -1.0046768553    -6.6278442988
   48      C       4.9096419145    -0.9126921999    -7.8455347685
   49      H       5.4719660807    -0.9789220392    -8.7691705887
   50      B      -1.2781258222    -0.3737542462    -2.1720721452
   51      C       2.6783153911    -0.5299551873     0.0301820990
   52      C       3.2704792710    -1.7787581053     0.4060578210
   53      C       4.4473986042    -1.7855835220     1.0926685760
   54      H       4.9179908112    -2.7115701025     1.3998948065
   55      C       5.0907245535    -0.5607771277     1.4264968877
   56      O       6.2073798573    -0.6871227272     2.0841895143
   57      C       4.5294970678     0.6802184325     1.0499192861
   58      H       5.0221370913     1.6099399565     1.3005461094
   59      C       3.3495358220     0.6992383184     0.3595915548
   60      C       6.9677665243     0.4557621618     2.4844859516
   61      H       7.8416172622     0.0640625505     2.9942298306
   62      H       6.3951365801     1.0810475383     3.1691948673
   63      H       7.2797790946     1.0371871783     1.6172920546
   64      C       2.7271505237     1.9859787157    -0.0645275687
   65      H       3.3246689745     2.8453809953     0.2335311080
   66      H       2.5984333744     2.0076059972    -1.1483896015
   67      H       1.7286762491     2.0879193309     0.3650756443
   68      C       2.5741588822    -3.0487119545     0.0395377177
   69      H       3.1262553029    -3.9240722951     0.3769963546
   70      H       2.4426782464    -3.1169082183    -1.0416365140
   71      H       1.5745984967    -3.0794921295     0.4767356827
   72      C      -2.6517938740    -0.3187076366    -2.9577415557
   73      C      -3.3287175600    -1.4920500121    -3.3011565060
   74      C      -4.5250088833    -1.4509214291    -4.0186581368
   75      H      -5.0153446806    -2.3846116340    -4.2645754313
   76      C      -5.0650763576    -0.2322555033    -4.4058235497
   77      O      -6.2168603334    -0.0924619282    -5.1017049516
   78      C      -4.4005974623     0.9443361754    -4.0707543449
   79      H      -4.8245317582     1.8943418823    -4.3765770964
   80      C      -3.2116482662     0.9054835639    -3.3577813918
   81      C      -6.9311666396    -1.2527899081    -5.4532599598
   82      H      -7.8167393278    -0.9223615804    -5.9923054713
   83      H      -7.2504670239    -1.8245015028    -4.5764020496
   84      H      -6.3532706034    -1.9137947589    -6.1065824602
   85      C      -2.5107540223     2.1910684608    -3.0195433580
   86      H      -3.0696673820     3.0608643838    -3.3648236448
   87      H      -1.5188666426     2.2298237542    -3.4749734377
   88      H      -2.3666299706     2.2919097802    -1.9420381783
   89      C      -2.7629862465    -2.8288715400    -2.9071460476
   90      H      -3.4159175768    -3.6495739957    -3.2053302325
   91      H      -1.7875782973    -2.9959699653    -3.3688033292
   92      H      -2.6160989644    -2.8951355550    -1.8274355656
 ----------------------------------------------------------------

   17   -2123.7342994834      9.71E-09 Convergence criterion met
 Total energy in the final basis set = -2123.73429948
 Final energy is   -2123.73429948345
 **  OPTIMIZATION CONVERGED  **

                    Orbital Energies (a.u.)
 --------------------------------------------------------------

 Alpha MOs
 -- Occupied --
-19.607 -19.518 -10.587 -10.520 -10.510 -10.500 -10.495 -10.492
-10.490 -10.489 -10.478 -10.455 -10.455 -10.453 -10.453 -10.453
-10.452 -10.450 -10.450 -10.450 -10.450 -10.449 -10.449 -10.449
-10.449 -10.448 -10.448 -10.448 -10.448 -10.446 -10.445 -10.445
-10.442 -10.442 -10.442 -10.440 -10.440 -10.440 -10.440 -10.438
-10.438 -10.434 -10.433 -10.423 -10.420 -10.419 -10.419 -10.415
-10.414 -10.410 -10.409 -10.401  -6.911  -6.902  -1.266  -1.173
 -1.010  -1.003  -1.003  -0.947  -0.944  -0.941  -0.922  -0.922
 -0.921  -0.907  -0.891  -0.884  -0.860  -0.846  -0.840  -0.840
 -0.836  -0.836  -0.835  -0.808  -0.803  -0.802  -0.799  -0.795
 -0.788  -0.779  -0.754  -0.744  -0.721  -0.718  -0.715  -0.707
 -0.706  -0.686  -0.677  -0.668  -0.667  -0.651  -0.644  -0.634
 -0.633  -0.632  -0.631  -0.611  -0.597  -0.597  -0.582  -0.580
 -0.577  -0.574  -0.571  -0.563  -0.562  -0.557  -0.548  -0.531
 -0.529  -0.526  -0.525  -0.516  -0.514  -0.511  -0.510  -0.508
 -0.502  -0.494  -0.489  -0.486  -0.482  -0.480  -0.479  -0.477
 -0.477  -0.474  -0.473  -0.470  -0.470  -0.469  -0.467  -0.462
 -0.460  -0.460  -0.453  -0.453  -0.452  -0.446  -0.443  -0.439
 -0.432  -0.429  -0.427  -0.422  -0.418  -0.417  -0.413  -0.412
 -0.410  -0.410  -0.403  -0.391  -0.387  -0.387  -0.386  -0.384
 -0.381  -0.377  -0.365  -0.363  -0.360  -0.358  -0.349  -0.338
 -0.331  -0.330  -0.326  -0.312  -0.305  -0.304  -0.289  -0.287
 -0.274  -0.266  -0.257  -0.246  -0.243  -0.238  -0.155

 Beta MOs
 -- Occupied --
-19.602 -19.518 -10.583 -10.521 -10.509 -10.501 -10.492 -10.488
-10.488 -10.488 -10.478 -10.456 -10.456 -10.454 -10.453 -10.452
-10.452 -10.451 -10.451 -10.449 -10.449 -10.449 -10.449 -10.449
-10.449 -10.448 -10.448 -10.447 -10.447 -10.445 -10.445 -10.445
-10.442 -10.442 -10.442 -10.440 -10.440 -10.439 -10.439 -10.437
-10.437 -10.434 -10.434 -10.423 -10.420 -10.418 -10.418 -10.415
-10.414 -10.409 -10.408 -10.401  -6.908  -6.900  -1.255  -1.173
 -1.002  -1.002  -0.999  -0.945  -0.943  -0.941  -0.921  -0.921
 -0.919  -0.897  -0.889  -0.883  -0.860  -0.845  -0.839  -0.838
 -0.835  -0.834  -0.832  -0.804  -0.800  -0.799  -0.798  -0.786
 -0.786  -0.779  -0.754  -0.744  -0.720  -0.716  -0.713  -0.706
 -0.701  -0.683  -0.676  -0.666  -0.663  -0.649  -0.643  -0.632
 -0.631  -0.631  -0.631  -0.606  -0.592  -0.581  -0.580  -0.575
 -0.575  -0.573  -0.570  -0.562  -0.561  -0.554  -0.547  -0.529
 -0.527  -0.525  -0.525  -0.514  -0.513  -0.510  -0.505  -0.500
 -0.499  -0.493  -0.488  -0.484  -0.481  -0.479  -0.478  -0.476
 -0.475  -0.473  -0.472  -0.469  -0.467  -0.467  -0.461  -0.460
 -0.459  -0.457  -0.453  -0.452  -0.451  -0.446  -0.441  -0.437
 -0.429  -0.429  -0.426  -0.418  -0.416  -0.414  -0.411  -0.410
 -0.408  -0.401  -0.390  -0.386  -0.384  -0.384  -0.383  -0.381
 -0.380  -0.373  -0.364  -0.359  -0.354  -0.352  -0.348  -0.336
 -0.325  -0.324  -0.321  -0.305  -0.301  -0.285  -0.285  -0.266
 -0.264  -0.249  -0.243  -0.238  -0.236

          Ground-State Mulliken Net Atomic Charges

     Atom                 Charge (a.u.)    Spin (a.u.)
  --------------------------------------------------------
      1 C                    -0.136811       0.012792
      2 C                    -0.413729       0.008066
      3 H                     0.204332      -0.002891
      4 C                     0.082575       0.019815
      5 C                     0.061730       0.106129
      6 C                    -0.403543      -0.064245
      7 H                     0.230768       0.002718
      8 C                    -0.145352       0.073366
      9 C                     0.178966      -0.060786
     10 C                    -0.399847       0.088059
     11 H                     0.238676      -0.005137
     12 C                    -0.075728       0.022860
     13 C                     0.229226      -0.036493
     14 C                     0.181738      -0.038453
     15 C                    -0.409564       0.060897
     16 H                     0.227525      -0.003579
     17 C                    -0.224677      -0.041796
     18 H                     0.240138       0.002077
     19 C                    -0.359719       0.056641
     20 H                     0.238402      -0.003271
     21 C                    -0.226488      -0.053864
     22 H                     0.243033       0.002585
     23 C                    -0.357251       0.079933
     24 H                     0.237255      -0.004710
     25 B                     0.561225       0.350384
     26 C                    -0.137590       0.014569
     27 C                    -0.415135       0.008010
     28 H                     0.205060      -0.002914
     29 C                     0.083006       0.019622
     30 C                     0.059781       0.105634
     31 C                    -0.400882      -0.063721
     32 H                     0.232118       0.002715
     33 C                    -0.145337       0.073695
     34 C                     0.180247      -0.060469
     35 C                    -0.400259       0.087609
     36 H                     0.238668      -0.005113
     37 C                    -0.076108       0.022747
     38 C                     0.227247      -0.036307
     39 C                     0.182709      -0.038236
     40 C                    -0.410383       0.060536
     41 H                     0.227651      -0.003560
     42 C                    -0.226566      -0.053506
     43 H                     0.243056       0.002568
     44 C                    -0.356148       0.079256
     45 H                     0.237358      -0.004667
     46 C                    -0.224515      -0.041519
     47 H                     0.240175       0.002063
     48 C                    -0.359016       0.056169
     49 H                     0.238612      -0.003241
     50 B                     0.574053       0.266228
     51 C                    -0.126565       0.517766
     52 C                     0.074732      -0.097839
     53 C                    -0.364648       0.129094
     54 H                     0.288473      -0.007978
     55 C                     0.467663       0.214135
     56 O                    -0.389767       0.146717
     57 C                    -0.419484       0.042450
     58 H                     0.293752      -0.003803
     59 C                     0.087443       0.001651
     60 C                    -0.449059      -0.014399
     61 H                     0.286158       0.000007
     62 H                     0.259705       0.009581
     63 H                     0.259242       0.009406
     64 C                    -0.760620       0.000471
     65 H                     0.257582       0.001019
     66 H                     0.281286       0.002386
     67 H                     0.282270       0.002601
     68 C                    -0.757172       0.007077
     69 H                     0.256859       0.000897
     70 H                     0.275695      -0.002061
     71 H                     0.276047      -0.001960
     72 C                    -0.195726      -0.023833
     73 C                     0.041217       0.003181
     74 C                    -0.451272      -0.000665
     75 H                     0.240111       0.000294
     76 C                     0.385873       0.000633
     77 O                    -0.471003       0.000114
     78 C                    -0.403699      -0.000811
     79 H                     0.228106       0.000348
     80 C                     0.041990       0.003253
     81 C                    -0.421410      -0.000013
     82 H                     0.247087       0.000007
     83 H                     0.214365       0.000011
     84 H                     0.214050       0.000011
     85 C                    -0.760326       0.000579
     86 H                     0.237480       0.001290
     87 H                     0.243847      -0.000643
     88 H                     0.244071      -0.000724
     89 C                    -0.760020       0.000528
     90 H                     0.234627       0.001339
     91 H                     0.244761      -0.000618
     92 H                     0.245588      -0.000764
  --------------------------------------------------------
  Sum of atomic charges =    -0.000000

                    Cartesian Multipole Moments
 -----------------------------------------------------------------
    Charge (ESU x 10^10)
                -0.0000
    Dipole Moment (Debye)
         X      16.0306      Y       0.1034      Z       8.9902
       Tot      18.3797
    Quadrupole Moments (Debye-Ang)
        XX    -205.7462     XY      14.1327     YY    -306.2340
        XZ      36.8715     YZ       7.8555     ZZ    -306.1482

 Total job time:  25927.96s(wall), 96093.26s(cpu)
        *  Thank you very much for using Q-Chem.  Have a nice day.  *
