 Q-Chem 5.0, Q-Chem, Inc., Pleasanton, CA (2017)
 Q-Chem 5.0.1 for Intel X86 EM64T Linux

User input:
--------------------------------------------------------------
$rem
threads 8
jobtype opt
method PBEh-3c
basis def2-mSVP
mem_static      1024
mem_total       8000
sym_ignore      true
unrestricted true
scf_algorithm   diis
scf_max_cycles  250
solvent_method  pcm
geom_opt_tol_energy 25
geom_opt_tol_gradient 75
$end

$pcm
theory  iefpcm
$end

$solvent
dielectric      2.03
$end

$molecule
read utLEincoords.mol
$end

--------------------------------------------------------------

   30   -2123.7257181842      8.11E-09 Convergence criterion met
 Total energy in the final basis set = -2123.72571818
   24   -2123.7277705364      6.78E-09 Convergence criterion met
 Total energy in the final basis set = -2123.72777054
   20   -2123.7283916668      7.58E-09 Convergence criterion met
 Total energy in the final basis set = -2123.72839167
   18   -2123.7284737725      7.45E-09 Convergence criterion met
 Total energy in the final basis set = -2123.72847377
   17   -2123.7284973415      6.34E-09 Convergence criterion met
 Total energy in the final basis set = -2123.72849734
   16   -2123.7285042377      8.89E-09 Convergence criterion met
 Total energy in the final basis set = -2123.72850424
   17   -2123.7285018303      6.23E-09 Convergence criterion met
 Total energy in the final basis set = -2123.72850183
   17   -2123.7284939517      6.70E-09 Convergence criterion met
 Total energy in the final basis set = -2123.72849395
   16   -2123.7284921103      1.00E-08 Convergence criterion met
 Total energy in the final basis set = -2123.72849211

             Standard Nuclear Orientation (Angstroms)
    I     Atom           X                Y                Z
 ----------------------------------------------------------------
    1      C      -0.0171734877    -0.3449620965     0.0482303513
    2      C      -0.0159742986    -0.3016484748     1.4568158097
    3      H       0.9312889433    -0.3238334366     1.9840942045
    4      C      -1.1963223843    -0.2346270490     2.1489587876
    5      C      -1.5017357780    -0.1840097484     3.5661376702
    6      C      -0.7628793726    -0.1833487058     4.7258542397
    7      H       0.3186084009    -0.2267869825     4.7130927590
    8      C      -1.4492005427    -0.1254253728     5.9576411710
    9      H      -0.8690400907    -0.1255270781     6.8711060813
   10      C      -2.8241022139    -0.0696067630     6.0432737599
   11      H      -3.3014287462    -0.0267659902     7.0144272684
   12      C      -2.9094417327    -0.1268107361     3.6661121865
   13      C      -3.6112434164    -0.0692003305     4.8667223355
   14      C      -3.5270276352    -0.1374311508     2.3955751122
   15      C      -4.9005219155    -0.0864198509     2.3219023048
   16      H      -5.4214891278    -0.0910471019     1.3726896903
   17      C      -5.6320950358    -0.0272548525     3.5250988472
   18      H      -6.7124142949     0.0126214582     3.4729434709
   19      C      -5.0229848713    -0.0184334805     4.7624784255
   20      H      -5.6299008112     0.0276229245     5.6582531492
   21      C      -2.4609004035    -0.2072938778     1.4231908652
   22      C      -2.4831829377    -0.2516718949     0.0520627308
   23      H      -3.4270169308    -0.2349248202    -0.4822644833
   24      C      -1.2832797804    -0.3206371395    -0.6754879040
   25      B      -1.3205029280    -0.3755555008    -2.2080320110
   26      B       1.3090300885    -0.4251682929    -0.7094013986
   27      C       1.2779002251    -0.4426171444    -2.2384179267
   28      C       2.4897887150    -0.4840010998    -2.9546711453
   29      H       3.4263029529    -0.5035387130    -2.4090055657
   30      C       2.4838845353    -0.4998437376    -4.3234477586
   31      C       3.5511184365    -0.5384543769    -5.3045349695
   32      C       4.9251565497    -0.5733191293    -5.2548480300
   33      H       5.4619156459    -0.5773290511    -4.3149342692
   34      C       5.6400051882    -0.6052305696    -6.4709883840
   35      H       6.7211286556    -0.6326044924    -6.4330467834
   36      C       5.0177468261    -0.6034650323    -7.7012633022
   37      H       5.6130050790    -0.6290434354    -8.6056913109
   38      C       2.9241428586    -0.5378381106    -6.5700339409
   39      C       3.6054089514    -0.5690835675    -7.7846047053
   40      C       1.5162551662    -0.5024341363    -6.4610958034
   41      C       0.7606902152    -0.4973536998    -7.6121558345
   42      H      -0.3213545972    -0.4701321318    -7.5841667593
   43      C       1.4292159193    -0.5281624242    -8.8530393978
   44      H       0.8381709443    -0.5238979493    -9.7597611229
   45      C       2.8040344965    -0.5632431394    -8.9525486653
   46      H       3.2712838352    -0.5861669113    -9.9294134375
   47      C       1.2179913385    -0.4786985435    -5.0469201846
   48      C       0.0270055971    -0.4441751680    -4.3679437206
   49      H      -0.9120517560    -0.4335960808    -4.9107698967
   50      C       0.0130058805    -0.4215615165    -2.9625584590
   51      C       2.6813286024    -0.5053555743     0.0572590251
   52      C       3.3844351378     0.6498698418     0.4009166489
   53      C       4.6042207056     0.5697278324     1.0724954396
   54      H       5.1205037100     1.4874907143     1.3241045461
   55      C       5.1347259454    -0.6698511718     1.4063055754
   56      O       6.3065209261    -0.8493796967     2.0542677113
   57      C       4.4401941648    -1.8278210088     1.0648893219
   58      H       4.8621654443    -2.7909228670     1.3282054377
   59      C       3.2286817418    -1.7520075482     0.3974335156
   60      C       7.0533214970     0.2854809906     2.4113095360
   61      H       7.9530173536    -0.0761586279     2.9048597204
   62      H       7.3488561140     0.8785586438     1.5400742768
   63      H       6.5131960425     0.9355464866     3.1068950329
   64      C       2.8228450420     1.9973599757     0.0392880644
   65      H       3.4707762208     2.8103623593     0.3665644217
   66      H       2.6893357968     2.0941543188    -1.0404715185
   67      H       1.8409574733     2.1536663642     0.4911331273
   68      C       2.4965811030    -3.0132149123     0.0297918105
   69      H       3.0291928133    -3.9035509431     0.3632414185
   70      H       2.3618684650    -3.0934700802    -1.0512133258
   71      H       1.4985551679    -3.0384605761     0.4727001007
   72      C      -2.6891797911    -0.3947865853    -2.9958873561
   73      C      -3.3113488765    -1.6051997181    -3.3114313529
   74      C      -4.5086403967    -1.6320132294    -4.0262111886
   75      H      -4.9584647757    -2.5912221542    -4.2495318663
   76      C      -5.1021886222    -0.4467558445    -4.4381739930
   77      O      -6.2587589207    -0.3722898355    -5.1324345363
   78      C      -4.4900324666     0.7652879903    -4.1312194940
   79      H      -4.9577594490     1.6870273632    -4.4577097356
   80      C      -3.3008008132     0.7958892564    -3.4206339642
   81      C      -6.9234836016    -1.5668673361    -5.4579663985
   82      H      -7.8211538474    -1.2849520445    -6.0043699962
   83      H      -6.3185274775    -2.2184382693    -6.0965782097
   84      H      -7.2208957126    -2.1319642304    -4.5688126630
   85      C      -2.6568504214     2.1174816995    -3.1100892152
   86      H      -3.2526656987     2.9540857591    -3.4743226217
   87      H      -1.6670998552     2.1920928220    -3.5658940545
   88      H      -2.5190234395     2.2502209413    -2.0351457040
   89      C      -2.6863976965    -2.9053778672    -2.8862309315
   90      H      -3.2933662078    -3.7623642829    -3.1784865341
   91      H      -1.6975923104    -3.0348068058    -3.3314353896
   92      H      -2.5532428445    -2.9484601614    -1.8034705786
 ----------------------------------------------------------------

   17   -2123.7284919525      7.56E-09 Convergence criterion met
 Total energy in the final basis set = -2123.72849195
 Final energy is   -2123.72849195252
 **  OPTIMIZATION CONVERGED  **

                    Orbital Energies (a.u.)
 --------------------------------------------------------------

 Alpha MOs
 -- Occupied --
-19.521 -19.521 -10.497 -10.496 -10.483 -10.483 -10.475 -10.475
-10.474 -10.474 -10.467 -10.467 -10.465 -10.465 -10.465 -10.465
-10.464 -10.464 -10.464 -10.464 -10.464 -10.464 -10.463 -10.463
-10.460 -10.460 -10.459 -10.459 -10.459 -10.459 -10.452 -10.452
-10.452 -10.452 -10.446 -10.446 -10.445 -10.445 -10.445 -10.445
-10.444 -10.444 -10.428 -10.428 -10.424 -10.424 -10.421 -10.421
-10.420 -10.420 -10.408 -10.406  -6.918  -6.916  -1.177  -1.177
 -1.021  -1.021  -0.965  -0.962  -0.947  -0.947  -0.936  -0.936
 -0.911  -0.902  -0.866  -0.865  -0.864  -0.861  -0.850  -0.850
 -0.847  -0.847  -0.825  -0.816  -0.814  -0.807  -0.785  -0.784
 -0.761  -0.759  -0.751  -0.749  -0.736  -0.734  -0.732  -0.722
 -0.691  -0.688  -0.682  -0.672  -0.656  -0.646  -0.646  -0.644
 -0.637  -0.637  -0.599  -0.594  -0.591  -0.590  -0.584  -0.579
 -0.579  -0.578  -0.577  -0.553  -0.553  -0.545  -0.541  -0.534
 -0.530  -0.530  -0.529  -0.523  -0.514  -0.511  -0.504  -0.500
 -0.495  -0.494  -0.494  -0.492  -0.485  -0.485  -0.483  -0.483
 -0.481  -0.471  -0.469  -0.467  -0.467  -0.466  -0.461  -0.459
 -0.458  -0.455  -0.452  -0.451  -0.444  -0.441  -0.440  -0.436
 -0.435  -0.430  -0.429  -0.421  -0.418  -0.414  -0.414  -0.410
 -0.401  -0.400  -0.400  -0.397  -0.396  -0.395  -0.393  -0.392
 -0.381  -0.379  -0.369  -0.367  -0.359  -0.356  -0.354  -0.350
 -0.339  -0.334  -0.332  -0.325  -0.303  -0.301  -0.293  -0.271
 -0.271  -0.271  -0.269  -0.260  -0.245  -0.243  -0.172

 Beta MOs
 -- Occupied --
-19.521 -19.521 -10.497 -10.496 -10.483 -10.483 -10.471 -10.471
-10.471 -10.471 -10.468 -10.468 -10.467 -10.466 -10.466 -10.466
-10.463 -10.463 -10.463 -10.463 -10.462 -10.462 -10.461 -10.461
-10.461 -10.461 -10.461 -10.461 -10.457 -10.457 -10.454 -10.454
-10.454 -10.453 -10.446 -10.446 -10.445 -10.445 -10.442 -10.441
-10.441 -10.441 -10.428 -10.428 -10.424 -10.424 -10.421 -10.421
-10.420 -10.420 -10.408 -10.406  -6.917  -6.914  -1.177  -1.177
 -1.018  -1.018  -0.960  -0.957  -0.947  -0.946  -0.934  -0.934
 -0.906  -0.899  -0.865  -0.865  -0.862  -0.859  -0.848  -0.848
 -0.847  -0.846  -0.815  -0.814  -0.813  -0.796  -0.784  -0.784
 -0.760  -0.759  -0.750  -0.749  -0.734  -0.730  -0.729  -0.720
 -0.689  -0.682  -0.679  -0.667  -0.656  -0.646  -0.644  -0.643
 -0.637  -0.637  -0.597  -0.593  -0.589  -0.588  -0.583  -0.579
 -0.579  -0.576  -0.574  -0.553  -0.552  -0.543  -0.540  -0.532
 -0.530  -0.530  -0.528  -0.522  -0.512  -0.509  -0.503  -0.500
 -0.494  -0.493  -0.485  -0.484  -0.483  -0.482  -0.482  -0.482
 -0.480  -0.471  -0.468  -0.467  -0.467  -0.465  -0.459  -0.459
 -0.458  -0.453  -0.452  -0.451  -0.443  -0.438  -0.436  -0.435
 -0.429  -0.424  -0.420  -0.416  -0.414  -0.414  -0.414  -0.408
 -0.400  -0.397  -0.396  -0.395  -0.395  -0.395  -0.391  -0.390
 -0.375  -0.369  -0.368  -0.358  -0.355  -0.352  -0.350  -0.338
 -0.336  -0.332  -0.324  -0.319  -0.296  -0.295  -0.271  -0.270
 -0.261  -0.255  -0.249  -0.245  -0.243

          Ground-State Mulliken Net Atomic Charges

     Atom                 Charge (a.u.)    Spin (a.u.)
  --------------------------------------------------------
      1 C                    -0.125133       0.231077
      2 C                    -0.395188      -0.144078
      3 H                     0.245047       0.005632
      4 C                     0.102025       0.233477
      5 C                     0.196759      -0.114646
      6 C                    -0.386077       0.135196
      7 H                     0.237691      -0.007965
      8 C                    -0.215097      -0.097108
      9 H                     0.242101       0.004742
     10 C                    -0.343325       0.141835
     11 H                     0.236526      -0.008248
     12 C                    -0.061004       0.140136
     13 C                     0.240716      -0.093249
     14 C                     0.189394      -0.116111
     15 C                    -0.379042       0.141434
     16 H                     0.238134      -0.008334
     17 C                    -0.216690      -0.099552
     18 H                     0.242611       0.004817
     19 C                    -0.340556       0.150472
     20 H                     0.236637      -0.008760
     21 C                     0.094086       0.242617
     22 C                    -0.391651      -0.146987
     23 H                     0.243906       0.005805
     24 C                    -0.124983       0.214260
     25 B                     0.601167       0.209787
     26 B                     0.601287       0.198482
     27 C                    -0.125496       0.230798
     28 C                    -0.392858      -0.145367
     29 H                     0.246525       0.005682
     30 C                     0.100342       0.235259
     31 C                     0.198294      -0.115194
     32 C                    -0.386288       0.136055
     33 H                     0.237904      -0.008016
     34 C                    -0.214997      -0.097553
     35 H                     0.242017       0.004761
     36 C                    -0.343138       0.142840
     37 H                     0.236476      -0.008306
     38 C                    -0.062384       0.140953
     39 C                     0.239332      -0.093662
     40 C                     0.190950      -0.116210
     41 C                    -0.379515       0.141283
     42 H                     0.238053      -0.008331
     43 C                    -0.216675      -0.099480
     44 H                     0.242719       0.004817
     45 C                    -0.339700       0.149878
     46 H                     0.236718      -0.008719
     47 C                     0.094452       0.242876
     48 C                    -0.391934      -0.147313
     49 H                     0.244693       0.005796
     50 C                    -0.123874       0.217736
     51 C                    -0.212742      -0.017664
     52 C                     0.056084       0.001594
     53 C                    -0.443197      -0.000033
     54 H                     0.231844       0.000241
     55 C                     0.394221      -0.000299
     56 O                    -0.462841      -0.000036
     57 C                    -0.396622      -0.000053
     58 H                     0.226039       0.000264
     59 C                     0.054243       0.001593
     60 C                    -0.414918       0.000006
     61 H                     0.244508       0.000007
     62 H                     0.209395      -0.000004
     63 H                     0.209479      -0.000004
     64 C                    -0.755803       0.001225
     65 H                     0.233582       0.001108
     66 H                     0.244403      -0.000632
     67 H                     0.244397      -0.000624
     68 C                    -0.758762       0.001388
     69 H                     0.238432       0.001120
     70 H                     0.243929      -0.000653
     71 H                     0.244071      -0.000687
     72 C                    -0.209152      -0.018774
     73 C                     0.050819       0.001696
     74 C                    -0.444392      -0.000019
     75 H                     0.232168       0.000233
     76 C                     0.394853      -0.000246
     77 O                    -0.463311      -0.000036
     78 C                    -0.392647      -0.000173
     79 H                     0.225873       0.000292
     80 C                     0.051838       0.001972
     81 C                    -0.414960       0.000005
     82 H                     0.244529       0.000007
     83 H                     0.209554      -0.000003
     84 H                     0.209949      -0.000003
     85 C                    -0.755544       0.001060
     86 H                     0.237622       0.001066
     87 H                     0.242761      -0.000576
     88 H                     0.243029      -0.000651
     89 C                    -0.756647       0.001152
     90 H                     0.233989       0.001132
     91 H                     0.244177      -0.000617
     92 H                     0.244798      -0.000685
  --------------------------------------------------------
  Sum of atomic charges =    -0.000000

                    Cartesian Multipole Moments
 -----------------------------------------------------------------
    Charge (ESU x 10^10)
                -0.0000
    Dipole Moment (Debye)
         X       0.0601      Y       0.0537      Z      -0.0161
       Tot       0.0822
    Quadrupole Moments (Debye-Ang)
        XX    -262.3300     XY      17.8270     YY    -312.0631
        XZ     -13.2622     YZ      12.7762     ZZ    -248.8904

 Total job time:  25893.39s(wall), 71048.31s(cpu)
        *  Thank you very much for using Q-Chem.  Have a nice day.  *
