 Q-Chem 5.0, Q-Chem, Inc., Pleasanton, CA (2017)
 Q-Chem 5.0.1 for Intel X86 EM64T Linux

User input:
--------------------------------------------------------------
$rem
threads 8
jobtype opt
method PBEh-3c
basis def2-mSVP
mem_static      1024
mem_total       8000
sym_ignore      true
unrestricted true
scf_algorithm	diis
scf_max_cycles	2500
solvent_method  pcm
geom_opt_tol_energy 25
geom_opt_tol_gradient 75
$end

$pcm
theory  iefpcm
$end

$solvent
dielectric      8.93
$end

$molecule
read utLEincoords.mol
$end
--------------------------------------------------------------

   36   -2123.7289869477      8.29E-09 Convergence criterion met
 Total energy in the final basis set = -2123.72898695
   25   -2123.7409572104      4.90E-09 Convergence criterion met
 Total energy in the final basis set = -2123.74095721
   18   -2123.7431805818      9.87E-09 Convergence criterion met
 Total energy in the final basis set = -2123.74318058
   18   -2123.7436922208      9.56E-09 Convergence criterion met
 Total energy in the final basis set = -2123.74369222
   18   -2123.7437729780      9.64E-09 Convergence criterion met
 Total energy in the final basis set = -2123.74377298
   18   -2123.7437952980      9.70E-09 Convergence criterion met
 Total energy in the final basis set = -2123.74379530
   18   -2123.7438006400      9.97E-09 Convergence criterion met
 Total energy in the final basis set = -2123.74380064
   18   -2123.7437968936      9.85E-09 Convergence criterion met
 Total energy in the final basis set = -2123.74379689
   19   -2123.7437964765      7.48E-09 Convergence criterion met
 Total energy in the final basis set = -2123.74379648
   19   -2123.7437961401      7.76E-09 Convergence criterion met
 Total energy in the final basis set = -2123.74379614
   19   -2123.7437968535      7.93E-09 Convergence criterion met
 Total energy in the final basis set = -2123.74379685
   19   -2123.7437973550      7.94E-09 Convergence criterion met
 Total energy in the final basis set = -2123.74379735

             Standard Nuclear Orientation (Angstroms)
    I     Atom           X                Y                Z
 ----------------------------------------------------------------
    1      C      -0.0196422586    -0.3534910442     0.0593373121
    2      C      -0.0223555819    -0.3177662379     1.4736763812
    3      H       0.9175451455    -0.3373476747     2.0183508027
    4      C      -1.2045497458    -0.2585241542     2.1686781708
    5      C      -1.5070162514    -0.2157716699     3.6012778923
    6      C      -0.7709135856    -0.2175984319     4.7599586486
    7      H       0.3114540425    -0.2565903793     4.7503981715
    8      C      -1.4569713123    -0.1675858099     5.9971292686
    9      H      -0.8738688863    -0.1696263230     6.9093003978
   10      C      -2.8304368083    -0.1172830415     6.0852757250
   11      H      -3.3090628903    -0.0804290581     7.0563768395
   12      C      -2.9128177183    -0.1641052049     3.7048610591
   13      C      -3.6154622917    -0.1144550154     4.9061031422
   14      C      -3.5247018877    -0.1707201717     2.4336427060
   15      C      -4.8958094139    -0.1243932709     2.3618139347
   16      H      -5.4191488750    -0.1263803699     1.4132427198
   17      C      -5.6331214248    -0.0733207625     3.5677392272
   18      H      -6.7138416806    -0.0372951563     3.5108215722
   19      C      -5.0291816270    -0.0680387665     4.8054082208
   20      H      -5.6358752959    -0.0284271430     5.7019463989
   21      C      -2.4434977215    -0.2318783917     1.4572686031
   22      C      -2.4606976053    -0.2672408381     0.0824300932
   23      H      -3.4075730127    -0.2485439317    -0.4486464276
   24      C      -1.2611250638    -0.3289454400    -0.6526990131
   25      B      -1.2905734546    -0.3743215396    -2.1928431422
   26      B       1.2844221662    -0.4251771259    -0.7288235612
   27      C       1.2871818867    -0.4552084802    -2.2542386577
   28      C       2.5000037822    -0.5093475722    -2.9793948347
   29      H       3.4492984825    -0.5317293268    -2.4517861497
   30      C       2.4921080303    -0.5332101220    -4.3506274875
   31      C       3.5711245429    -0.5846518337    -5.3396244974
   32      C       4.9426497236    -0.6294875493    -5.2956018761
   33      H       5.4854524426    -0.6331870369    -4.3583747071
   34      C       5.6584302027    -0.6723614073    -6.5158714180
   35      H       6.7398132115    -0.7073508278    -6.4776698885
   36      C       5.0355118266    -0.6716599021    -7.7441170235
   37      H       5.6271640373    -0.7057335004    -8.6509936256
   38      C       2.9446005968    -0.5850069829    -6.6032805267
   39      C       3.6220442944    -0.6270261815    -7.8203543473
   40      C       1.5396590112    -0.5384812285    -6.4853546087
   41      C       0.7834066389    -0.5330810361    -7.6327790118
   42      H      -0.2989659596    -0.4980076972    -7.6040507375
   43      C       1.4473443257    -0.5748400453    -8.8814489458
   44      H       0.8493321038    -0.5702643159    -9.7841967152
   45      C       2.8191843773    -0.6206722810    -8.9892276543
   46      H       3.2841288808    -0.6517237997    -9.9672384338
   47      C       1.2498817330    -0.5060000920    -5.0559529697
   48      C       0.0604496447    -0.4578862183    -4.3683322638
   49      H      -0.8787487744    -0.4410514392    -4.9129433218
   50      C       0.0433119061    -0.4300428925    -2.9598898665
   51      C       2.6583016685    -0.4878202631     0.0344730302
   52      C       3.3589332561     0.7217200050     0.3719773321
   53      C       4.5471730908     0.6689304673     1.0452481630
   54      H       5.0651038947     1.5838200130     1.2998938993
   55      C       5.0851813927    -0.5898749098     1.4004555172
   56      O       6.2068925795    -0.7490134508     2.0383049739
   57      C       4.4070050692    -1.7961476514     1.0650913430
   58      H       4.8590038940    -2.7364846957     1.3561387827
   59      C       3.2216268924    -1.7538779895     0.3946290090
   60      C       7.0040788588     0.3710008048     2.4378060374
   61      H       7.8755516114    -0.0492780483     2.9282024958
   62      H       7.3149472541     0.9523986128     1.5705584240
   63      H       6.4576469431     1.0020899239     3.1378506210
   64      C       2.7597451337     2.0273474785    -0.0287459548
   65      H       3.3765773554     2.8692702827     0.2792425747
   66      H       2.6273433389     2.0692561238    -1.1116557309
   67      H       1.7664077719     2.1434371121     0.4090559305
   68      C       2.4936269476    -3.0062676595     0.0263228303
   69      H       3.0279892673    -3.8944376374     0.3586334652
   70      H       2.3580279674    -3.0689845622    -1.0547134730
   71      H       1.4960112553    -3.0174273356     0.4685373843
   72      C      -2.6636962714    -0.3746471501    -2.9823637369
   73      C      -3.2957953961    -1.5748644264    -3.3196992433
   74      C      -4.4945837427    -1.5839455266    -4.0347496215
   75      H      -4.9498286650    -2.5368929744    -4.2742636428
   76      C      -5.0820915337    -0.3885722150    -4.4265487647
   77      O      -6.2399665304    -0.2963833169    -5.1194725273
   78      C      -4.4621974418     0.8145054519    -4.0985839837
   79      H      -4.9224656231     1.7465717113    -4.4076827368
   80      C      -3.2711946403     0.8252343426    -3.3873406285
   81      C      -6.9117238029    -1.4859233447    -5.4642793084
   82      H      -7.8092644823    -1.1916141539    -6.0041781092
   83      H      -6.3093979222    -2.1281384806    -6.1138404499
   84      H      -7.2081840095    -2.0634561653    -4.5835126759
   85      C      -2.6220077980     2.1393282031    -3.0553959029
   86      H      -3.2126045822     2.9844552682    -3.4090610530
   87      H      -1.6301573206     2.2137136982    -3.5065132575
   88      H      -2.4866041364     2.2531024196    -1.9780225984
   89      C      -2.6799250624    -2.8873798363    -2.9190949417
   90      H      -3.3002469899    -3.7338491303    -3.2145457026
   91      H      -1.6979389190    -3.0194923577    -3.3783569997
   92      H      -2.5322178836    -2.9434644324    -1.8388481911
 ----------------------------------------------------------------

   19   -2123.7437978788      7.83E-09 Convergence criterion met
 Total energy in the final basis set = -2123.74379788
 Final energy is   -2123.74379787878
 **  OPTIMIZATION CONVERGED  **

                    Orbital Energies (a.u.)
 --------------------------------------------------------------

 Alpha MOs
 -- Occupied --
-19.604 -19.521 -10.583 -10.513 -10.506 -10.497 -10.496 -10.492
-10.486 -10.485 -10.479 -10.458 -10.458 -10.456 -10.456 -10.455
-10.455 -10.453 -10.453 -10.453 -10.453 -10.452 -10.452 -10.452
-10.452 -10.451 -10.451 -10.450 -10.450 -10.448 -10.448 -10.445
-10.445 -10.445 -10.444 -10.444 -10.444 -10.443 -10.441 -10.441
-10.440 -10.439 -10.439 -10.427 -10.425 -10.421 -10.421 -10.418
-10.418 -10.414 -10.414 -10.405  -6.913  -6.907  -1.262  -1.176
 -1.006  -1.006  -1.005  -0.950  -0.947  -0.945  -0.925  -0.925
 -0.917  -0.904  -0.893  -0.887  -0.864  -0.849  -0.843  -0.842
 -0.838  -0.838  -0.833  -0.810  -0.805  -0.801  -0.799  -0.794
 -0.791  -0.782  -0.758  -0.748  -0.724  -0.720  -0.717  -0.710
 -0.703  -0.683  -0.679  -0.670  -0.669  -0.654  -0.647  -0.636
 -0.634  -0.634  -0.630  -0.607  -0.596  -0.592  -0.584  -0.583
 -0.579  -0.577  -0.573  -0.565  -0.565  -0.558  -0.551  -0.533
 -0.529  -0.528  -0.524  -0.517  -0.516  -0.510  -0.509  -0.506
 -0.500  -0.497  -0.491  -0.485  -0.484  -0.482  -0.481  -0.479
 -0.479  -0.478  -0.477  -0.473  -0.470  -0.466  -0.466  -0.465
 -0.464  -0.460  -0.457  -0.455  -0.452  -0.450  -0.445  -0.436
 -0.434  -0.432  -0.430  -0.425  -0.420  -0.417  -0.415  -0.413
 -0.413  -0.407  -0.406  -0.394  -0.390  -0.390  -0.389  -0.386
 -0.384  -0.379  -0.369  -0.366  -0.362  -0.362  -0.353  -0.341
 -0.333  -0.329  -0.327  -0.316  -0.309  -0.302  -0.292  -0.290
 -0.278  -0.271  -0.260  -0.249  -0.247  -0.243  -0.158

 Beta MOs
 -- Occupied --
-19.598 -19.521 -10.580 -10.513 -10.506 -10.498 -10.496 -10.485
-10.484 -10.484 -10.479 -10.459 -10.459 -10.456 -10.456 -10.454
-10.454 -10.454 -10.454 -10.453 -10.453 -10.452 -10.452 -10.451
-10.451 -10.451 -10.451 -10.450 -10.450 -10.448 -10.448 -10.444
-10.444 -10.444 -10.444 -10.444 -10.444 -10.443 -10.441 -10.441
-10.440 -10.439 -10.439 -10.427 -10.425 -10.420 -10.420 -10.418
-10.418 -10.413 -10.413 -10.405  -6.910  -6.905  -1.250  -1.176
 -1.005  -1.005  -0.996  -0.948  -0.945  -0.945  -0.924  -0.924
 -0.915  -0.896  -0.889  -0.886  -0.864  -0.848  -0.842  -0.841
 -0.837  -0.837  -0.829  -0.807  -0.803  -0.800  -0.796  -0.789
 -0.783  -0.782  -0.758  -0.748  -0.722  -0.718  -0.716  -0.709
 -0.698  -0.679  -0.678  -0.668  -0.666  -0.652  -0.646  -0.636
 -0.634  -0.634  -0.626  -0.603  -0.592  -0.583  -0.582  -0.578
 -0.576  -0.572  -0.569  -0.564  -0.563  -0.555  -0.551  -0.531
 -0.528  -0.527  -0.521  -0.516  -0.515  -0.508  -0.505  -0.499
 -0.498  -0.495  -0.490  -0.484  -0.483  -0.482  -0.480  -0.478
 -0.478  -0.476  -0.476  -0.472  -0.470  -0.465  -0.464  -0.464
 -0.458  -0.457  -0.455  -0.452  -0.451  -0.450  -0.443  -0.433
 -0.432  -0.431  -0.429  -0.421  -0.418  -0.415  -0.413  -0.412
 -0.410  -0.404  -0.394  -0.389  -0.387  -0.387  -0.386  -0.383
 -0.380  -0.373  -0.367  -0.362  -0.357  -0.355  -0.351  -0.340
 -0.327  -0.325  -0.321  -0.309  -0.305  -0.288  -0.288  -0.271
 -0.267  -0.252  -0.246  -0.242  -0.240

          Ground-State Mulliken Net Atomic Charges

     Atom                 Charge (a.u.)    Spin (a.u.)
  --------------------------------------------------------
      1 C                    -0.139080       0.017937
      2 C                    -0.412113       0.001413
      3 H                     0.216136      -0.002563
      4 C                     0.066794       0.027431
      5 C                     0.179568      -0.041135
      6 C                    -0.409814       0.064383
      7 H                     0.237938      -0.003757
      8 C                    -0.231510      -0.043477
      9 H                     0.248460       0.002138
     10 C                    -0.361363       0.059635
     11 H                     0.246188      -0.003433
     12 C                    -0.077916       0.023155
     13 C                     0.219941      -0.037039
     14 C                     0.172201      -0.059768
     15 C                    -0.404055       0.086909
     16 H                     0.244194      -0.005052
     17 C                    -0.232291      -0.053586
     18 H                     0.249859       0.002564
     19 C                    -0.360653       0.078915
     20 H                     0.245323      -0.004615
     21 C                     0.063803       0.100611
     22 C                    -0.408388      -0.060828
     23 H                     0.231172       0.002528
     24 C                    -0.146263       0.069458
     25 B                     0.562239       0.272696
     26 B                     0.560570       0.339014
     27 C                    -0.139342       0.019994
     28 C                    -0.410260       0.000130
     29 H                     0.216605      -0.002714
     30 C                     0.065365       0.028643
     31 C                     0.181267      -0.041366
     32 C                    -0.410159       0.064606
     33 H                     0.237908      -0.003771
     34 C                    -0.231412      -0.043541
     35 H                     0.248345       0.002140
     36 C                    -0.361177       0.059810
     37 H                     0.246200      -0.003443
     38 C                    -0.079255       0.023068
     39 C                     0.218601      -0.036947
     40 C                     0.173648      -0.059224
     41 C                    -0.404380       0.086280
     42 H                     0.244063      -0.005019
     43 C                    -0.232304      -0.053182
     44 H                     0.250020       0.002546
     45 C                    -0.359777       0.078124
     46 H                     0.245435      -0.004565
     47 C                     0.063747       0.098876
     48 C                    -0.408134      -0.059386
     49 H                     0.231694       0.002463
     50 C                    -0.146252       0.068760
     51 C                    -0.132751       0.523231
     52 C                     0.091541      -0.014446
     53 C                    -0.415849       0.057506
     54 H                     0.302957      -0.004508
     55 C                     0.470258       0.207605
     56 O                    -0.387295       0.153672
     57 C                    -0.366296       0.142170
     58 H                     0.294296      -0.008616
     59 C                     0.073013      -0.109771
     60 C                    -0.452481      -0.014814
     61 H                     0.287867       0.000015
     62 H                     0.263961       0.009727
     63 H                     0.264383       0.009916
     64 C                    -0.761653       0.001392
     65 H                     0.264015       0.000856
     66 H                     0.277247       0.001859
     67 H                     0.277427       0.001841
     68 C                    -0.760211       0.007581
     69 H                     0.262786       0.000870
     70 H                     0.272439      -0.002435
     71 H                     0.272588      -0.002434
     72 C                    -0.190309      -0.024354
     73 C                     0.034751       0.003213
     74 C                    -0.456116      -0.000657
     75 H                     0.248581       0.000295
     76 C                     0.383089       0.000564
     77 O                    -0.473951       0.000087
     78 C                    -0.409055      -0.000799
     79 H                     0.232827       0.000357
     80 C                     0.036487       0.003257
     81 C                    -0.426164      -0.000010
     82 H                     0.250523       0.000007
     83 H                     0.217747       0.000010
     84 H                     0.217943       0.000009
     85 C                    -0.761325       0.000585
     86 H                     0.241685       0.001305
     87 H                     0.243290      -0.000664
     88 H                     0.243647      -0.000732
     89 C                    -0.761736       0.000547
     90 H                     0.240176       0.001370
     91 H                     0.243854      -0.000639
     92 H                     0.244425      -0.000784
  --------------------------------------------------------
  Sum of atomic charges =    -0.000000

                    Cartesian Multipole Moments
 -----------------------------------------------------------------
    Charge (ESU x 10^10)
                -0.0000
    Dipole Moment (Debye)
         X      17.1894      Y      -0.0886      Z       9.5752
       Tot      19.6765
    Quadrupole Moments (Debye-Ang)
        XX    -198.8654     XY      15.2586     YY    -305.3211
        XZ      36.6620     YZ       8.7196     ZZ    -303.6591

 Total job time:  29033.04s(wall), 87311.48s(cpu)
        *  Thank you very much for using Q-Chem.  Have a nice day.  *
