 Q-Chem 5.0, Q-Chem, Inc., Pleasanton, CA (2017)
 Q-Chem 5.0.1 for Intel X86 EM64T Linux

User input:
--------------------------------------------------------------
$rem
threads 8
jobtype opt
method PBEh-3c
basis def2-mSVP
mem_static      1024
mem_total       8000
sym_ignore      true
unrestricted true
scf_algorithm	diis
scf_max_cycles	250
solvent_method  pcm
geom_opt_tol_energy 25
geom_opt_tol_gradient 75
$end

$pcm
theory  iefpcm
$end
$solvent
dielectric      4.33
$end

$molecule
read utLEincoords.mol
$end
--------------------------------------------------------------

   30   -2123.7345263698      9.24E-09 Convergence criterion met
 Total energy in the final basis set = -2123.73452637
   20   -2123.7366555478      7.88E-09 Convergence criterion met
 Total energy in the final basis set = -2123.73665555
   21   -2123.7372709089      8.72E-09 Convergence criterion met
 Total energy in the final basis set = -2123.73727091
   18   -2123.7373497484      8.57E-09 Convergence criterion met
 Total energy in the final basis set = -2123.73734975
   20   -2123.7373715529      8.02E-09 Convergence criterion met
 Total energy in the final basis set = -2123.73737155
   17   -2123.7373776395      8.04E-09 Convergence criterion met
 Total energy in the final basis set = -2123.73737764
   17   -2123.7373737418      9.59E-09 Convergence criterion met
 Total energy in the final basis set = -2123.73737374
   19   -2123.7373662043      9.72E-09 Convergence criterion met
 Total energy in the final basis set = -2123.73736620
   17   -2123.7373644845      9.73E-09 Convergence criterion met
 Total energy in the final basis set = -2123.73736448

             Standard Nuclear Orientation (Angstroms)
    I     Atom           X                Y                Z
 ----------------------------------------------------------------
    1      C      -0.0174320569    -0.3427375889     0.0480025542
    2      C      -0.0163031529    -0.2957459156     1.4567176728
    3      H       0.9298106788    -0.3170368759     1.9859910105
    4      C      -1.1966398915    -0.2255335812     2.1489694912
    5      C      -1.5015600171    -0.1696744346     3.5661655721
    6      C      -0.7620655305    -0.1646652194     4.7258179709
    7      H       0.3194850844    -0.2081204867     4.7131573903
    8      C      -1.4485525792    -0.1017375237     5.9577900730
    9      H      -0.8681691159    -0.0982843441     6.8711355799
   10      C      -2.8238507994    -0.0452838765     6.0433796923
   11      H      -3.3014825567     0.0015135890     7.0142236020
   12      C      -2.9094540422    -0.1116131078     3.6657994900
   13      C      -3.6111009665    -0.0491794814     4.8664114142
   14      C      -3.5276461270    -0.1265581941     2.3952984504
   15      C      -4.9014600263    -0.0754917267     2.3213586780
   16      H      -5.4227262410    -0.0835843525     1.3722616209
   17      C      -5.6328597238    -0.0116688541     3.5249116702
   18      H      -6.7131960101     0.0282122704     3.4727435489
   19      C      -5.0232796299     0.0016644342     4.7625229657
   20      H      -5.6296337539     0.0512773391     5.6585165669
   21      C      -2.4614855625    -0.2000157631     1.4231732862
   22      C      -2.4838357954    -0.2484140893     0.0518661954
   23      H      -3.4288839526    -0.2327376158    -0.4802391959
   24      C      -1.2839905140    -0.3192604171    -0.6759194707
   25      B      -1.3211638124    -0.3765363811    -2.2085379585
   26      B       1.3087812035    -0.4252526781    -0.7096200240
   27      C       1.2778502716    -0.4388813734    -2.2388033118
   28      C       2.4899813958    -0.4758728624    -2.9553750141
   29      H       3.4276280804    -0.4939684916    -2.4117145963
   30      C       2.4843256921    -0.4893001816    -4.3243890145
   31      C       3.5519716226    -0.5237006240    -5.3053540589
   32      C       4.9263986230    -0.5544699415    -5.2553811428
   33      H       5.4633303472    -0.5574572309    -4.3154885787
   34      C       5.6414205244    -0.5832625499    -6.4720314111
   35      H       6.7226407659    -0.6073666155    -6.4340241563
   36      C       5.0189111045    -0.5823397161    -7.7026557849
   37      H       5.6138151473    -0.6054319587    -8.6074160441
   38      C       2.9246036040    -0.5236483090    -6.5708874444
   39      C       3.6060429391    -0.5519528057    -7.7855942358
   40      C       1.5163259836    -0.4922522985    -6.4622544437
   41      C       0.7603319353    -0.4885119050    -7.6134431981
   42      H      -0.3218574392    -0.4645958008    -7.5855842494
   43      C       1.4293404611    -0.5165153781    -8.8546062774
   44      H       0.8382659324    -0.5134165241    -9.7613388014
   45      C       2.8047077602    -0.5474891670    -8.9540644690
   46      H       3.2724849029    -0.5683764726    -9.9307419367
   47      C       1.2182172651    -0.4706099859    -5.0479996413
   48      C       0.0269052227    -0.4396520481    -4.3687895770
   49      H      -0.9108735816    -0.4303549788    -4.9137426383
   50      C       0.0125372135    -0.4189895493    -2.9632180806
   51      C       2.6808951729    -0.5126855828     0.0572797925
   52      C       3.3885209397     0.6386312594     0.4064003748
   53      C       4.6082696060     0.5514490382     1.0779604935
   54      H       5.1279961242     1.4661292075     1.3339331352
   55      C       5.1344792788    -0.6918648630     1.4063141565
   56      O       6.3054394037    -0.8778583189     2.0536982439
   57      C       4.4356253485    -1.8461772832     1.0593270285
   58      H       4.8528519430    -2.8130161759     1.3174754164
   59      C       3.2239180339    -1.7628671672     0.3917519429
   60      C       7.0574697478     0.2552566082     2.4161496528
   61      H       7.9556995747    -0.1116243498     2.9081820715
   62      H       7.3539749053     0.8498449509     1.5468443063
   63      H       6.5183782045     0.9032304744     3.1137720509
   64      C       2.8327649739     1.9902988683     0.0511282865
   65      H       3.4846888967     2.7985232894     0.3820860695
   66      H       2.6993785595     2.0923905067    -1.0282262380
   67      H       1.8516240850     2.1486841235     0.5040177353
   68      C       2.4884600104    -3.0206438650     0.0185556092
   69      H       3.0182048237    -3.9136669575     0.3494212306
   70      H       2.3548895615    -3.0963746866    -1.0629739693
   71      H       1.4897248227    -3.0445398014     0.4600658098
   72      C      -2.6902792774    -0.4013972788    -2.9962262320
   73      C      -3.3083119646    -1.6148607100    -3.3100693016
   74      C      -4.5063644598    -1.6477395188    -4.0240679039
   75      H      -4.9527968667    -2.6089282028    -4.2458512467
   76      C      -5.1049800863    -0.4649853353    -4.4372943328
   77      O      -6.2621290206    -0.3964589368    -5.1308873539
   78      C      -4.4970840453     0.7502287125    -4.1320596171
   79      H      -4.9673622679     1.6708615860    -4.4588216010
   80      C      -3.3068907272     0.7863807483    -3.4220941149
   81      C      -6.9226633915    -1.5966213539    -5.4563926970
   82      H      -7.8209055893    -1.3189358668    -6.0037286792
   83      H      -6.3133241104    -2.2450818852    -6.0932512586
   84      H      -7.2173871750    -2.1609814096    -4.5664098241
   85      C      -2.6687403872     2.1115012195    -3.1141692177
   86      H      -3.2682683970     2.9446570665    -3.4802476845
   87      H      -1.6792183564     2.1893204149    -3.5700584741
   88      H      -2.5315775213     2.2468430009    -2.0394098100
   89      C      -2.6788594443    -2.9126349645    -2.8838605977
   90      H      -3.2826722679    -3.7716730244    -3.1764087739
   91      H      -1.6891719188    -3.0384563426    -3.3283124205
   92      H      -2.5462510266    -2.9546000671    -1.8009136449
 ----------------------------------------------------------------

   14   -2123.7373645046      8.20E-09 Convergence criterion met
 Total energy in the final basis set = -2123.73736450
 Final energy is   -2123.73736450460
 **  OPTIMIZATION CONVERGED  **

                    Orbital Energies (a.u.)
 --------------------------------------------------------------

 Alpha MOs
 -- Occupied --
-19.524 -19.524 -10.500 -10.500 -10.482 -10.482 -10.477 -10.477
-10.477 -10.477 -10.468 -10.468 -10.467 -10.466 -10.466 -10.466
-10.465 -10.465 -10.465 -10.465 -10.464 -10.464 -10.464 -10.463
-10.461 -10.461 -10.460 -10.460 -10.459 -10.459 -10.455 -10.454
-10.454 -10.454 -10.449 -10.449 -10.449 -10.448 -10.448 -10.447
-10.447 -10.447 -10.431 -10.431 -10.427 -10.427 -10.423 -10.422
-10.422 -10.422 -10.411 -10.410  -6.921  -6.919  -1.179  -1.179
 -1.023  -1.023  -0.967  -0.964  -0.950  -0.950  -0.937  -0.937
 -0.913  -0.904  -0.868  -0.868  -0.866  -0.863  -0.851  -0.850
 -0.849  -0.849  -0.826  -0.817  -0.816  -0.809  -0.786  -0.785
 -0.763  -0.762  -0.753  -0.752  -0.738  -0.735  -0.733  -0.723
 -0.692  -0.689  -0.682  -0.673  -0.658  -0.648  -0.647  -0.646
 -0.640  -0.639  -0.600  -0.595  -0.593  -0.591  -0.585  -0.581
 -0.581  -0.579  -0.578  -0.556  -0.555  -0.546  -0.543  -0.535
 -0.531  -0.530  -0.530  -0.524  -0.516  -0.512  -0.505  -0.502
 -0.496  -0.496  -0.495  -0.494  -0.487  -0.486  -0.484  -0.484
 -0.481  -0.473  -0.470  -0.469  -0.469  -0.467  -0.462  -0.462
 -0.461  -0.456  -0.454  -0.454  -0.444  -0.443  -0.442  -0.437
 -0.437  -0.432  -0.430  -0.422  -0.420  -0.416  -0.416  -0.411
 -0.401  -0.401  -0.401  -0.398  -0.398  -0.397  -0.394  -0.393
 -0.384  -0.381  -0.371  -0.369  -0.362  -0.358  -0.357  -0.353
 -0.341  -0.336  -0.335  -0.328  -0.305  -0.302  -0.295  -0.274
 -0.274  -0.273  -0.272  -0.261  -0.248  -0.246  -0.175

 Beta MOs
 -- Occupied --
-19.524 -19.524 -10.500 -10.500 -10.482 -10.482 -10.474 -10.474
-10.473 -10.473 -10.469 -10.469 -10.468 -10.468 -10.468 -10.467
-10.464 -10.464 -10.464 -10.464 -10.462 -10.462 -10.462 -10.462
-10.461 -10.461 -10.461 -10.461 -10.459 -10.459 -10.456 -10.456
-10.456 -10.456 -10.449 -10.449 -10.448 -10.448 -10.444 -10.444
-10.444 -10.444 -10.431 -10.431 -10.427 -10.427 -10.423 -10.422
-10.422 -10.422 -10.411 -10.410  -6.919  -6.917  -1.179  -1.179
 -1.019  -1.019  -0.962  -0.959  -0.950  -0.949  -0.935  -0.935
 -0.908  -0.900  -0.868  -0.868  -0.864  -0.861  -0.850  -0.848
 -0.848  -0.848  -0.817  -0.815  -0.814  -0.798  -0.786  -0.785
 -0.762  -0.762  -0.752  -0.751  -0.735  -0.731  -0.730  -0.721
 -0.690  -0.684  -0.680  -0.668  -0.657  -0.648  -0.646  -0.644
 -0.639  -0.639  -0.598  -0.593  -0.591  -0.588  -0.584  -0.581
 -0.581  -0.577  -0.575  -0.555  -0.555  -0.543  -0.541  -0.533
 -0.531  -0.530  -0.529  -0.522  -0.514  -0.510  -0.504  -0.501
 -0.495  -0.494  -0.486  -0.485  -0.484  -0.484  -0.483  -0.483
 -0.480  -0.473  -0.470  -0.469  -0.469  -0.466  -0.461  -0.461
 -0.461  -0.455  -0.454  -0.453  -0.443  -0.439  -0.438  -0.437
 -0.430  -0.426  -0.422  -0.418  -0.416  -0.416  -0.416  -0.409
 -0.401  -0.398  -0.397  -0.397  -0.397  -0.397  -0.393  -0.391
 -0.377  -0.371  -0.371  -0.361  -0.357  -0.355  -0.352  -0.340
 -0.339  -0.334  -0.326  -0.321  -0.297  -0.297  -0.274  -0.274
 -0.262  -0.257  -0.251  -0.248  -0.246

          Ground-State Mulliken Net Atomic Charges

     Atom                 Charge (a.u.)    Spin (a.u.)
  --------------------------------------------------------
      1 C                    -0.125083       0.230109
      2 C                    -0.396524      -0.142591
      3 H                     0.248720       0.005530
      4 C                     0.096732       0.232675
      5 C                     0.191171      -0.114046
      6 C                    -0.389659       0.133941
      7 H                     0.248304      -0.007838
      8 C                    -0.224936      -0.096527
      9 H                     0.253150       0.004675
     10 C                    -0.347279       0.140923
     11 H                     0.248975      -0.008112
     12 C                    -0.061145       0.140309
     13 C                     0.229821      -0.092799
     14 C                     0.183918      -0.115335
     15 C                    -0.382665       0.140347
     16 H                     0.248794      -0.008216
     17 C                    -0.226350      -0.099041
     18 H                     0.253718       0.004750
     19 C                    -0.344516       0.150006
     20 H                     0.249135      -0.008645
     21 C                     0.088804       0.241926
     22 C                    -0.393130      -0.145389
     23 H                     0.247837       0.005696
     24 C                    -0.125014       0.212444
     25 B                     0.594827       0.212080
     26 B                     0.595085       0.200303
     27 C                    -0.125457       0.229800
     28 C                    -0.394071      -0.143869
     29 H                     0.250030       0.005581
     30 C                     0.095087       0.234379
     31 C                     0.192745      -0.114574
     32 C                    -0.389891       0.134769
     33 H                     0.248429      -0.007888
     34 C                    -0.224804      -0.096959
     35 H                     0.253063       0.004693
     36 C                    -0.347103       0.141906
     37 H                     0.248937      -0.008170
     38 C                    -0.062542       0.141101
     39 C                     0.228440      -0.093202
     40 C                     0.185501      -0.115423
     41 C                    -0.383122       0.140180
     42 H                     0.248621      -0.008212
     43 C                    -0.226333      -0.098957
     44 H                     0.253836       0.004749
     45 C                    -0.343640       0.149387
     46 H                     0.249233      -0.008603
     47 C                     0.089249       0.242123
     48 C                    -0.393278      -0.145669
     49 H                     0.248421       0.005685
     50 C                    -0.124000       0.215804
     51 C                    -0.210659      -0.017887
     52 C                     0.051582       0.001650
     53 C                    -0.450581      -0.000038
     54 H                     0.244195       0.000244
     55 C                     0.389664      -0.000290
     56 O                    -0.468556      -0.000034
     57 C                    -0.406526      -0.000053
     58 H                     0.232834       0.000262
     59 C                     0.048738       0.001607
     60 C                    -0.422886       0.000005
     61 H                     0.249657       0.000007
     62 H                     0.215388      -0.000004
     63 H                     0.215453      -0.000003
     64 C                    -0.760285       0.001176
     65 H                     0.240340       0.001099
     66 H                     0.245319      -0.000631
     67 H                     0.245335      -0.000619
     68 C                    -0.763202       0.001377
     69 H                     0.243902       0.001119
     70 H                     0.245182      -0.000656
     71 H                     0.245357      -0.000695
     72 C                    -0.207258      -0.019049
     73 C                     0.045480       0.001738
     74 C                    -0.452125      -0.000023
     75 H                     0.244531       0.000233
     76 C                     0.390278      -0.000235
     77 O                    -0.468970      -0.000034
     78 C                    -0.402359      -0.000179
     79 H                     0.232707       0.000294
     80 C                     0.047298       0.002017
     81 C                    -0.422921       0.000004
     82 H                     0.249702       0.000006
     83 H                     0.215579      -0.000003
     84 H                     0.215862      -0.000003
     85 C                    -0.759941       0.001018
     86 H                     0.243011       0.001063
     87 H                     0.244121      -0.000578
     88 H                     0.244293      -0.000652
     89 C                    -0.761259       0.001123
     90 H                     0.240836       0.001129
     91 H                     0.245177      -0.000623
     92 H                     0.245666      -0.000687
  --------------------------------------------------------
  Sum of atomic charges =    -0.000000

                    Cartesian Multipole Moments
 -----------------------------------------------------------------
    Charge (ESU x 10^10)
                -0.0000
    Dipole Moment (Debye)
         X       0.0758      Y       0.0892      Z      -0.0160
       Tot       0.1182
    Quadrupole Moments (Debye-Ang)
        XX    -257.2461     XY      19.4645     YY    -311.2540
        XZ     -15.4251     YZ      14.0412     ZZ    -241.3752

 Total job time:  20739.53s(wall), 60582.03s(cpu)
        *  Thank you very much for using Q-Chem.  Have a nice day.  *
