 Q-Chem 5.0, Q-Chem, Inc., Pleasanton, CA (2017)
 Q-Chem 5.0.1 for Intel X86 EM64T Linux

User input:
--------------------------------------------------------------
$rem
threads 8
jobtype opt
method PBEh-3c
basis def2-mSVP
mem_static      1024
mem_total       8000
sym_ignore      true
unrestricted true
scf_algorithm   diis
scf_max_cycles  250
solvent_method  pcm
geom_opt_tol_energy 25
geom_opt_tol_gradient 75
$end

$pcm
theory  iefpcm
$end

$solvent
dielectric      1.0001
$end

$molecule
read utLEincoords.mol
$end

--------------------------------------------------------------

   31   -2123.7147758472      7.10E-09 Convergence criterion met
 Total energy in the final basis set = -2123.71477585
   23   -2123.7167758802      6.62E-09 Convergence criterion met
 Total energy in the final basis set = -2123.71677588
   20   -2123.7174123042      7.33E-09 Convergence criterion met
 Total energy in the final basis set = -2123.71741230
   17   -2123.7174963487      7.58E-09 Convergence criterion met
 Total energy in the final basis set = -2123.71749635
   17   -2123.7175220433      7.16E-09 Convergence criterion met
 Total energy in the final basis set = -2123.71752204
   18   -2123.7175309776      8.57E-09 Convergence criterion met
 Total energy in the final basis set = -2123.71753098
   17   -2123.7175289320      8.74E-09 Convergence criterion met
 Total energy in the final basis set = -2123.71752893
   13   -2123.7175213362      9.51E-09 Convergence criterion met
 Total energy in the final basis set = -2123.71752134
   12   -2123.7175189265      9.40E-09 Convergence criterion met
 Total energy in the final basis set = -2123.71751893
   12   -2123.7175186341      8.11E-09 Convergence criterion met
 Total energy in the final basis set = -2123.71751863

             Standard Nuclear Orientation (Angstroms)
    I     Atom           X                Y                Z
 ----------------------------------------------------------------
    1      C      -0.0170568882    -0.3468745596     0.0483791811
    2      C      -0.0159275539    -0.3061509969     1.4567502920
    3      H       0.9327017427    -0.3273608595     1.9817418554
    4      C      -1.1964684798    -0.2437985128     2.1485468839
    5      C      -1.5026176713    -0.1983608140     3.5655863355
    6      C      -0.7646715442    -0.2002414210     4.7255009544
    7      H       0.3167931718    -0.2415417257     4.7126768341
    8      C      -1.4509333429    -0.1481518480     5.9569413639
    9      H      -0.8711146311    -0.1502923573     6.8705472230
   10      C      -2.8254708777    -0.0955208942     6.0424975474
   11      H      -3.3027335383    -0.0571194587     7.0137986401
   12      C      -2.9102237634    -0.1446040755     3.6658380652
   13      C      -3.6123539568    -0.0927386047     4.8663740587
   14      C      -3.5270147782    -0.1524099852     2.3952086885
   15      C      -4.9002713167    -0.1041280350     2.3219077585
   16      H      -5.4208219516    -0.1066427910     1.3725806502
   17      C      -5.6321673126    -0.0507202240     3.5245754049
   18      H      -6.7125131341    -0.0130363568     3.4724309666
   19      C      -5.0236659588    -0.0448404763     4.7616845505
   20      H      -5.6311795572    -0.0033176565     5.6571932039
   21      C      -2.4607707770    -0.2169806886     1.4226562414
   22      C      -2.4827441544    -0.2574590941     0.0517309216
   23      H      -3.4250192508    -0.2408724170    -0.4854969740
   24      C      -1.2825655712    -0.3231317581    -0.6752786272
   25      B      -1.3197971996    -0.3757458392    -2.2078101716
   26      B       1.3094395808    -0.4248772308    -0.7088335147
   27      C       1.2781085125    -0.4472406933    -2.2377507810
   28      C       2.4898765660    -0.4927396507    -2.9533605274
   29      H       3.4249502216    -0.5127040920    -2.4050981074
   30      C       2.4838781893    -0.5116471249    -4.3218665195
   31      C       3.5508423686    -0.5536796656    -5.3028698238
   32      C       4.9244962457    -0.5910406002    -5.2533785017
   33      H       5.4608964021    -0.5950744671    -4.3133824371
   34      C       5.6393808699    -0.6254642981    -6.4687831357
   35      H       6.7203946663    -0.6547356803    -6.4307752634
   36      C       5.0176304195    -0.6238542193    -7.6987515378
   37      H       5.6133354744    -0.6513233525    -8.6027411680
   38      C       2.9245485725    -0.5534634008    -6.5684703527
   39      C       3.6058853225    -0.5871317463    -7.7827754680
   40      C       1.5170162365    -0.5154355286    -6.4594149878
   41      C       0.7622899782    -0.5100194950    -7.6105879556
   42      H      -0.3195902126    -0.4806415213    -7.5825976680
   43      C       1.4305111285    -0.5431983345    -8.8509883206
   44      H       0.8397245290    -0.5385901184    -9.7578078811
   45      C       2.8047533738    -0.5809978751    -8.9503024877
   46      H       3.2717664415    -0.6056943648    -9.9271727455
   47      C       1.2182719388    -0.4893482728    -5.0454344801
   48      C       0.0274850381    -0.4514728724    -4.3669316519
   49      H      -0.9130779998    -0.4403041764    -4.9072883077
   50      C       0.0137796546    -0.4258221940    -2.9618055337
   51      C       2.6816928881    -0.4971923777     0.0575172087
   52      C       3.3806386979     0.6621797831     0.3937964351
   53      C       4.6006890612     0.5897168838     1.0646805808
   54      H       5.1139013391     1.5107297496     1.3103200788
   55      C       5.1351517472    -0.6457454908     1.4053134904
   56      O       6.3078938172    -0.8183575996     2.0534029169
   57      C       4.4445957122    -1.8076197115     1.0715434903
   58      H       4.8713950962    -2.7664578544     1.3412040733
   59      C       3.2331321838    -1.7399580195     0.4048633869
   60      C       7.0497722041     0.3177262286     2.4028165284
   61      H       7.9510118134    -0.0383071490     2.8980294685
   62      H       7.3443530178     0.9083426442     1.5288662118
   63      H       6.5095227451     0.9717167736     3.0955294958
   64      C       2.8131807401     2.0049433471     0.0242352900
   65      H       3.4570254396     2.8231066895     0.3467003251
   66      H       2.6796156405     2.0951736214    -1.0560207511
   67      H       1.8306733773     2.1597035483     0.4751158625
   68      C       2.5039568943    -3.0048408191     0.0446983257
   69      H       3.0390104786    -3.8921443464     0.3821339613
   70      H       2.3683042389    -3.0914155327    -1.0356490668
   71      H       1.5066006528    -3.0305517510     0.4889447927
   72      C      -2.6877376200    -0.3879109902    -2.9957722409
   73      C      -3.3162474506    -1.5942918217    -3.3119907927
   74      C      -4.5130042045    -1.6133028167    -4.0269243418
   75      H      -4.9680183672    -2.5698744063    -4.2508429355
   76      C      -5.0992428338    -0.4247513859    -4.4381362800
   77      O      -6.2553486377    -0.3423816792    -5.1323347097
   78      C      -4.4805300523     0.7831580954    -4.1307617211
   79      H      -4.9442722111     1.7064198602    -4.4575263679
   80      C      -3.2921534368     0.8064983760    -3.4201069097
   81      C      -6.9266682133    -1.5294418784    -5.4564419861
   82      H      -7.8234626694    -1.2417826678    -6.0016621219
   83      H      -6.3282057024    -2.1864272033    -6.0965801621
   84      H      -7.2276303325    -2.0944804242    -4.5677552945
   85      C      -2.6398003067     2.1234350997    -3.1078683871
   86      H      -3.2303705521     2.9644242185    -3.4703780450
   87      H      -1.6499383525     2.1928835222    -3.5641206065
   88      H      -2.5007941636     2.2538972670    -2.0328466780
   89      C      -2.6979342095    -2.8976488109    -2.8872094865
   90      H      -3.3092408319    -3.7517088569    -3.1790316390
   91      H      -1.7101639838    -3.0324333578    -3.3329448880
   92      H      -2.5647122788    -2.9418108490    -1.8045710479
 ----------------------------------------------------------------

    8   -2123.7175190699      9.64E-09 Convergence criterion met
 Total energy in the final basis set = -2123.71751907
 Final energy is   -2123.71751906990
 **  OPTIMIZATION CONVERGED  **

                    Orbital Energies (a.u.)
 --------------------------------------------------------------

 Alpha MOs
 -- Occupied --
-19.518 -19.518 -10.493 -10.493 -10.485 -10.485 -10.474 -10.473
-10.473 -10.473 -10.467 -10.467 -10.466 -10.465 -10.465 -10.465
-10.465 -10.465 -10.464 -10.464 -10.464 -10.464 -10.464 -10.464
-10.461 -10.461 -10.461 -10.461 -10.459 -10.458 -10.451 -10.451
-10.451 -10.450 -10.443 -10.443 -10.443 -10.443 -10.442 -10.442
-10.442 -10.442 -10.426 -10.425 -10.421 -10.421 -10.420 -10.420
-10.418 -10.418 -10.405 -10.403  -6.917  -6.914  -1.176  -1.176
 -1.021  -1.021  -0.964  -0.962  -0.944  -0.944  -0.936  -0.936
 -0.910  -0.901  -0.864  -0.863  -0.862  -0.860  -0.851  -0.850
 -0.846  -0.845  -0.824  -0.816  -0.815  -0.806  -0.784  -0.784
 -0.759  -0.757  -0.749  -0.748  -0.736  -0.734  -0.733  -0.722
 -0.692  -0.687  -0.682  -0.671  -0.655  -0.645  -0.645  -0.644
 -0.636  -0.635  -0.600  -0.596  -0.591  -0.591  -0.585  -0.579
 -0.578  -0.578  -0.577  -0.552  -0.551  -0.546  -0.541  -0.533
 -0.530  -0.529  -0.529  -0.523  -0.513  -0.511  -0.504  -0.500
 -0.495  -0.494  -0.493  -0.491  -0.485  -0.484  -0.483  -0.483
 -0.482  -0.470  -0.468  -0.467  -0.466  -0.466  -0.460  -0.458
 -0.457  -0.455  -0.450  -0.449  -0.445  -0.440  -0.440  -0.435
 -0.434  -0.429  -0.429  -0.420  -0.417  -0.412  -0.412  -0.409
 -0.402  -0.400  -0.400  -0.398  -0.395  -0.394  -0.392  -0.392
 -0.380  -0.378  -0.367  -0.364  -0.357  -0.355  -0.351  -0.348
 -0.337  -0.332  -0.331  -0.324  -0.303  -0.301  -0.292  -0.271
 -0.269  -0.267  -0.267  -0.259  -0.242  -0.240  -0.171

 Beta MOs
 -- Occupied --
-19.518 -19.518 -10.493 -10.493 -10.485 -10.485 -10.470 -10.470
-10.470 -10.469 -10.468 -10.468 -10.466 -10.466 -10.466 -10.465
-10.463 -10.463 -10.463 -10.463 -10.463 -10.463 -10.462 -10.462
-10.462 -10.462 -10.462 -10.462 -10.456 -10.456 -10.453 -10.452
-10.452 -10.452 -10.443 -10.443 -10.442 -10.442 -10.440 -10.440
-10.439 -10.439 -10.426 -10.425 -10.421 -10.421 -10.420 -10.420
-10.418 -10.418 -10.405 -10.404  -6.915  -6.913  -1.176  -1.176
 -1.017  -1.017  -0.959  -0.957  -0.944  -0.944  -0.935  -0.935
 -0.905  -0.898  -0.863  -0.863  -0.861  -0.859  -0.849  -0.848
 -0.845  -0.845  -0.815  -0.814  -0.813  -0.796  -0.784  -0.784
 -0.758  -0.757  -0.749  -0.748  -0.734  -0.730  -0.730  -0.720
 -0.690  -0.681  -0.679  -0.666  -0.654  -0.644  -0.644  -0.642
 -0.635  -0.635  -0.597  -0.594  -0.589  -0.589  -0.584  -0.578
 -0.578  -0.577  -0.575  -0.551  -0.551  -0.543  -0.539  -0.531
 -0.530  -0.529  -0.529  -0.522  -0.511  -0.509  -0.503  -0.500
 -0.494  -0.493  -0.485  -0.484  -0.483  -0.483  -0.482  -0.481
 -0.481  -0.469  -0.467  -0.466  -0.465  -0.465  -0.459  -0.457
 -0.457  -0.454  -0.450  -0.449  -0.444  -0.437  -0.435  -0.434
 -0.428  -0.423  -0.419  -0.414  -0.413  -0.412  -0.412  -0.408
 -0.401  -0.397  -0.395  -0.395  -0.394  -0.394  -0.391  -0.390
 -0.374  -0.367  -0.366  -0.356  -0.354  -0.350  -0.347  -0.337
 -0.334  -0.330  -0.323  -0.318  -0.296  -0.295  -0.267  -0.267
 -0.260  -0.255  -0.247  -0.241  -0.240

          Ground-State Mulliken Net Atomic Charges

     Atom                 Charge (a.u.)    Spin (a.u.)
  --------------------------------------------------------
      1 C                    -0.125250       0.232356
      2 C                    -0.392676      -0.145859
      3 H                     0.240173       0.005756
      4 C                     0.107774       0.234374
      5 C                     0.202932      -0.115224
      6 C                    -0.380801       0.136635
      7 H                     0.223949      -0.008122
      8 C                    -0.202543      -0.097760
      9 H                     0.228342       0.004822
     10 C                    -0.337258       0.142945
     11 H                     0.221541      -0.008411
     12 C                    -0.061667       0.139824
     13 C                     0.252633      -0.093739
     14 C                     0.195453      -0.116875
     15 C                    -0.373708       0.142712
     16 H                     0.224293      -0.008484
     17 C                    -0.204340      -0.100135
     18 H                     0.228749       0.004898
     19 C                    -0.334510       0.151143
     20 H                     0.221646      -0.008904
     21 C                     0.099910       0.243453
     22 C                    -0.388982      -0.148914
     23 H                     0.238792       0.005939
     24 C                    -0.125054       0.216404
     25 B                     0.607597       0.206828
     26 B                     0.607501       0.196068
     27 C                    -0.125638       0.232045
     28 C                    -0.390592      -0.147098
     29 H                     0.241958       0.005801
     30 C                     0.106135       0.236185
     31 C                     0.204495      -0.115750
     32 C                    -0.381010       0.137466
     33 H                     0.224226      -0.008171
     34 C                    -0.202515      -0.098174
     35 H                     0.228257       0.004840
     36 C                    -0.337089       0.143909
     37 H                     0.221534      -0.008468
     38 C                    -0.063037       0.140637
     39 C                     0.251243      -0.094126
     40 C                     0.196950      -0.116937
     41 C                    -0.374171       0.142511
     42 H                     0.224365      -0.008476
     43 C                    -0.204306      -0.100036
     44 H                     0.228868       0.004896
     45 C                    -0.333626       0.150526
     46 H                     0.221652      -0.008861
     47 C                     0.100112       0.243697
     48 C                    -0.389390      -0.149225
     49 H                     0.239847       0.005927
     50 C                    -0.123816       0.219933
     51 C                    -0.215716      -0.017447
     52 C                     0.061582       0.001552
     53 C                    -0.433025      -0.000028
     54 H                     0.218230       0.000239
     55 C                     0.399831      -0.000310
     56 O                    -0.455083      -0.000038
     57 C                    -0.383746      -0.000050
     58 H                     0.217652       0.000266
     59 C                     0.060477       0.001583
     60 C                    -0.404246       0.000006
     61 H                     0.237158       0.000007
     62 H                     0.201877      -0.000004
     63 H                     0.201982      -0.000004
     64 C                    -0.749639       0.001274
     65 H                     0.226721       0.001115
     66 H                     0.242028      -0.000632
     67 H                     0.242011      -0.000627
     68 C                    -0.752525       0.001403
     69 H                     0.232490       0.001118
     70 H                     0.241260      -0.000648
     71 H                     0.241388      -0.000679
     72 C                    -0.211946      -0.018505
     73 C                     0.056960       0.001664
     74 C                    -0.433741      -0.000013
     75 H                     0.218318       0.000233
     76 C                     0.400460      -0.000257
     77 O                    -0.455585      -0.000037
     78 C                    -0.379948      -0.000167
     79 H                     0.217481       0.000291
     80 C                     0.057440       0.001935
     81 C                    -0.404258       0.000005
     82 H                     0.237178       0.000007
     83 H                     0.201983      -0.000004
     84 H                     0.202425      -0.000004
     85 C                    -0.749488       0.001109
     86 H                     0.231783       0.001068
     87 H                     0.240027      -0.000572
     88 H                     0.240421      -0.000651
     89 C                    -0.750220       0.001175
     90 H                     0.227019       0.001130
     91 H                     0.241648      -0.000610
     92 H                     0.242389      -0.000678
  --------------------------------------------------------
  Sum of atomic charges =    -0.000000

                    Cartesian Multipole Moments
 -----------------------------------------------------------------
    Charge (ESU x 10^10)
                -0.0000
    Dipole Moment (Debye)
         X       0.0461      Y       0.0250      Z      -0.0197
       Tot       0.0560
    Quadrupole Moments (Debye-Ang)
        XX    -267.7193     XY      16.0073     YY    -313.0114
        XZ     -10.6714     YZ      11.3122     ZZ    -257.2592

 Total job time:  29984.00s(wall), 81371.61s(cpu)
        *  Thank you very much for using Q-Chem.  Have a nice day.  *
