 Q-Chem 5.0, Q-Chem, Inc., Pleasanton, CA (2017)
 Q-Chem 5.0.1 for Intel X86 EM64T Linux

User input:
--------------------------------------------------------------
$rem
threads 8
jobtype opt
method PBEh-3c
basis def2-mSVP
mem_static      1024
mem_total       8000
sym_ignore      true
unrestricted true
scf_algorithm	diis
scf_max_cycles	250
solvent_method  pcm
geom_opt_tol_energy 25
geom_opt_tol_gradient 75
$end

$pcm
theory  iefpcm
$end

$solvent
dielectric      2.38
$end

$molecule
read utLEincoords.mol
$end
--------------------------------------------------------------

   30   -2123.7278544166      8.08E-09 Convergence criterion met
 Total energy in the final basis set = -2123.72785442
   20   -2123.7299225510      7.89E-09 Convergence criterion met
 Total energy in the final basis set = -2123.72992255
   20   -2123.7305415406      7.52E-09 Convergence criterion met
 Total energy in the final basis set = -2123.73054154
   18   -2123.7306231676      7.76E-09 Convergence criterion met
 Total energy in the final basis set = -2123.73062317
   17   -2123.7306458303      6.81E-09 Convergence criterion met
 Total energy in the final basis set = -2123.73064583
   16   -2123.7306533325      9.87E-09 Convergence criterion met
 Total energy in the final basis set = -2123.73065333
   17   -2123.7306503825      6.93E-09 Convergence criterion met
 Total energy in the final basis set = -2123.73065038
   17   -2123.7306428041      7.39E-09 Convergence criterion met
 Total energy in the final basis set = -2123.73064280
   17   -2123.7306410994      7.44E-09 Convergence criterion met
 Total energy in the final basis set = -2123.73064110

             Standard Nuclear Orientation (Angstroms)
    I     Atom           X                Y                Z
 ----------------------------------------------------------------
    1      C      -0.0172046115    -0.3444784937     0.0481601849
    2      C      -0.0160013240    -0.3004139313     1.4567822353
    3      H       0.9309916559    -0.3225359189     1.9845219631
    4      C      -1.1963268284    -0.2325485209     2.1489738011
    5      C      -1.5016002910    -0.1807064766     3.5661685669
    6      C      -0.7625717300    -0.1791619608     4.7258548844
    7      H       0.3189258420    -0.2227757124     4.7131083864
    8      C      -1.4489101463    -0.1199894158     5.9577000301
    9      H      -0.8686822097    -0.1193720676     6.8711313460
   10      C      -2.8238961777    -0.0638191239     6.0433416004
   11      H      -3.3012636798    -0.0200032531     7.0144394599
   12      C      -2.9093397494    -0.1231050416     3.6660807811
   13      C      -3.6110825967    -0.0642789616     4.8667007802
   14      C      -3.5270850660    -0.1346292788     2.3955602854
   15      C      -4.9006446265    -0.0833955519     2.3218294063
   16      H      -5.4216968163    -0.0887350025     1.3726479467
   17      C      -5.6321573650    -0.0230378970     3.5251222751
   18      H      -6.7124764465     0.0170145811     3.4729696089
   19      C      -5.0229220807    -0.0132722604     4.7625523439
   20      H      -5.6297011767     0.0337068941     5.6583817484
   21      C      -2.4609683251    -0.2054595036     1.4232198839
   22      C      -2.4832943708    -0.2507553698     0.0520505471
   23      H      -3.4274306073    -0.2341765597    -0.4817205990
   24      C      -1.2834255011    -0.3202433972    -0.6755832834
   25      B      -1.3206529242    -0.3756791586    -2.2081409322
   26      B       1.3089762526    -0.4251954469    -0.7095088766
   27      C       1.2778814578    -0.4416905662    -2.2385575179
   28      C       2.4898115995    -0.4821225682    -2.9549109927
   29      H       3.4266036125    -0.5014398953    -2.4097415748
   30      C       2.4839448297    -0.4973575767    -4.3237429233
   31      C       3.5512561732    -0.5350918047    -5.3048240186
   32      C       4.9253808281    -0.5691974527    -5.2550869355
   33      H       5.4621978380    -0.5730794340    -4.3151860197
   34      C       5.6402471743    -0.6004663660    -6.4713626513
   35      H       6.7213926604    -0.6272401540    -6.4334199525
   36      C       5.0179078997    -0.5987900171    -7.7017098960
   37      H       5.6130744777    -0.6238690668    -8.6062232560
   38      C       2.9241644142    -0.5345032031    -6.5703178469
   39      C       3.6054453262    -0.5651422344    -7.7849323829
   40      C       1.5161916970    -0.4998696864    -6.4614263977
   41      C       0.7604943049    -0.4950019604    -7.6124939593
   42      H      -0.3215839547    -0.4684254741    -7.5845218458
   43      C       1.4291085154    -0.5252233685    -8.8534590349
   44      H       0.8380348545    -0.5211471733    -9.7601715890
   45      C       2.8040516535    -0.5595107918    -8.9529826435
   46      H       3.2713910781    -0.5820078315    -9.9298212968
   47      C       1.2179935833    -0.4766304673    -5.0472228433
   48      C       0.0269466071    -0.4428763272    -4.3681705305
   49      H      -0.9118102153    -0.4325072684    -4.9114930144
   50      C       0.0128773354    -0.4208117878    -2.9627392145
   51      C       2.6812446505    -0.5070930154     0.0572134281
   52      C       3.3853277405     0.6472200412     0.4023208471
   53      C       4.6050619649     0.5654179995     1.0739943462
   54      H       5.1220800936     1.4824633669     1.3267728691
   55      C       5.1346125853    -0.6750453797     1.4064354191
   56      O       6.3061765534    -0.8560896261     2.0543510954
   57      C       4.4391540988    -1.8321599874     1.0635220071
   58      H       4.8600429817    -2.7961536816     1.3255573769
   59      C       3.2276328683    -1.7545816145     0.3959507384
   60      C       7.0540903068     0.2784046238     2.4128887972
   61      H       7.9534205094    -0.0844547065     2.9061315931
   62      H       7.3498975387     0.8719435344     1.5421996492
   63      H       6.5140737692     0.9278227746     3.1089880532
   64      C       2.8250623961     1.9957076251     0.0422876417
   65      H       3.4738802713     2.8075925333     0.3705470370
   66      H       2.6916187238     2.0938442812    -1.0373735485
   67      H       1.8433124836     2.1524151324     0.4943259167
   68      C       2.4948229718    -3.0149805453     0.0268298482
   69      H       3.0267990285    -3.9059619647     0.3595875423
   70      H       2.3604065364    -3.0940429482    -1.0543122361
   71      H       1.4966163853    -3.0400013358     0.4693734788
   72      C      -2.6894583958    -0.3963186256    -2.9959462580
   73      C      -3.3104455353    -1.6075137773    -3.3112691002
   74      C      -4.5079066649    -1.6358552769    -4.0258924470
   75      H      -4.9567670595    -2.5955736145    -4.2490050593
   76      C      -5.1028602526    -0.4512323126    -4.4379923206
   77      O      -6.2595695857    -0.3782818364    -5.1321256691
   78      C      -4.4919245136     0.7616192831    -4.1312379120
   79      H      -4.9604099858     1.6830691855    -4.4576618269
   80      C      -3.3024703560     0.7936303575    -3.4207760860
   81      C      -6.9230608627    -1.5742837813    -5.4578872936
   82      H      -7.8208980775    -1.2934592681    -6.0045059070
   83      H      -6.3168973028    -2.2248700905    -6.0961738174
   84      H      -7.2197688774    -2.1393886836    -4.5686351534
   85      C      -2.6601191263     2.1161231122    -3.1106462001
   86      H      -3.2569320351     2.9518656350    -3.4752417172
   87      H      -1.6704036008     2.1917031388    -3.5663954472
   88      H      -2.5225172329     2.2493590721    -2.0357233326
   89      C      -2.6842158064    -2.9070778347    -2.8860000659
   90      H      -3.2903234496    -3.7646150108    -3.1783889350
   91      H      -1.6951982172    -3.0354559232    -3.3310768289
   92      H      -2.5511237719    -2.9499860672    -1.8032084058
 ----------------------------------------------------------------

   18   -2123.7306406960      7.06E-09 Convergence criterion met
 Total energy in the final basis set = -2123.73064070
 Final energy is   -2123.73064069604
 **  OPTIMIZATION CONVERGED  **

                    Orbital Energies (a.u.)
 --------------------------------------------------------------

 Alpha MOs
 -- Occupied --
-19.522 -19.522 -10.497 -10.497 -10.483 -10.483 -10.475 -10.475
-10.475 -10.475 -10.467 -10.467 -10.465 -10.465 -10.465 -10.465
-10.465 -10.465 -10.464 -10.464 -10.464 -10.464 -10.463 -10.463
-10.460 -10.460 -10.459 -10.459 -10.459 -10.459 -10.453 -10.452
-10.452 -10.452 -10.447 -10.447 -10.446 -10.446 -10.446 -10.445
-10.445 -10.445 -10.429 -10.429 -10.425 -10.425 -10.422 -10.421
-10.420 -10.420 -10.408 -10.407  -6.919  -6.917  -1.178  -1.178
 -1.022  -1.022  -0.965  -0.963  -0.948  -0.947  -0.936  -0.936
 -0.911  -0.902  -0.866  -0.866  -0.864  -0.861  -0.850  -0.850
 -0.848  -0.847  -0.825  -0.816  -0.815  -0.807  -0.785  -0.785
 -0.761  -0.760  -0.751  -0.750  -0.737  -0.734  -0.733  -0.722
 -0.691  -0.688  -0.682  -0.672  -0.657  -0.647  -0.646  -0.644
 -0.638  -0.638  -0.599  -0.594  -0.592  -0.590  -0.584  -0.580
 -0.579  -0.578  -0.577  -0.554  -0.554  -0.545  -0.542  -0.534
 -0.530  -0.530  -0.529  -0.523  -0.514  -0.511  -0.504  -0.501
 -0.495  -0.494  -0.494  -0.493  -0.486  -0.485  -0.483  -0.483
 -0.481  -0.472  -0.469  -0.468  -0.467  -0.466  -0.461  -0.460
 -0.459  -0.455  -0.452  -0.452  -0.444  -0.441  -0.441  -0.436
 -0.436  -0.431  -0.430  -0.421  -0.419  -0.415  -0.414  -0.410
 -0.401  -0.400  -0.400  -0.397  -0.396  -0.396  -0.393  -0.392
 -0.382  -0.379  -0.369  -0.367  -0.360  -0.357  -0.354  -0.351
 -0.339  -0.334  -0.333  -0.326  -0.304  -0.301  -0.293  -0.272
 -0.272  -0.271  -0.270  -0.260  -0.245  -0.244  -0.173

 Beta MOs
 -- Occupied --
-19.522 -19.522 -10.497 -10.497 -10.483 -10.483 -10.472 -10.472
-10.471 -10.471 -10.468 -10.468 -10.467 -10.467 -10.466 -10.466
-10.463 -10.463 -10.463 -10.463 -10.462 -10.462 -10.461 -10.461
-10.461 -10.461 -10.461 -10.460 -10.457 -10.457 -10.455 -10.454
-10.454 -10.454 -10.447 -10.446 -10.446 -10.445 -10.442 -10.442
-10.442 -10.442 -10.429 -10.429 -10.425 -10.425 -10.422 -10.421
-10.420 -10.420 -10.409 -10.407  -6.917  -6.915  -1.178  -1.178
 -1.018  -1.018  -0.960  -0.958  -0.948  -0.947  -0.935  -0.934
 -0.906  -0.899  -0.866  -0.866  -0.862  -0.860  -0.848  -0.848
 -0.847  -0.847  -0.815  -0.814  -0.813  -0.797  -0.785  -0.784
 -0.760  -0.760  -0.751  -0.750  -0.734  -0.730  -0.729  -0.720
 -0.690  -0.682  -0.679  -0.667  -0.656  -0.646  -0.645  -0.643
 -0.637  -0.637  -0.597  -0.593  -0.589  -0.588  -0.583  -0.580
 -0.579  -0.576  -0.575  -0.553  -0.553  -0.543  -0.540  -0.532
 -0.530  -0.530  -0.528  -0.522  -0.512  -0.509  -0.503  -0.500
 -0.494  -0.493  -0.485  -0.485  -0.483  -0.483  -0.482  -0.482
 -0.480  -0.471  -0.469  -0.467  -0.467  -0.465  -0.460  -0.459
 -0.459  -0.453  -0.452  -0.452  -0.443  -0.438  -0.437  -0.435
 -0.429  -0.424  -0.421  -0.416  -0.415  -0.415  -0.414  -0.408
 -0.400  -0.397  -0.396  -0.396  -0.396  -0.395  -0.391  -0.390
 -0.376  -0.370  -0.369  -0.359  -0.356  -0.352  -0.350  -0.339
 -0.337  -0.332  -0.324  -0.320  -0.296  -0.296  -0.271  -0.271
 -0.261  -0.256  -0.249  -0.245  -0.243

          Ground-State Mulliken Net Atomic Charges

     Atom                 Charge (a.u.)    Spin (a.u.)
  --------------------------------------------------------
      1 C                    -0.125116       0.230852
      2 C                    -0.395565      -0.143728
      3 H                     0.245952       0.005608
      4 C                     0.100801       0.233293
      5 C                     0.195456      -0.114509
      6 C                    -0.387006       0.134897
      7 H                     0.240299      -0.007934
      8 C                    -0.217512      -0.096968
      9 H                     0.244787       0.004726
     10 C                    -0.344370       0.141609
     11 H                     0.239516      -0.008215
     12 C                    -0.060978       0.140180
     13 C                     0.238180      -0.093141
     14 C                     0.188115      -0.115934
     15 C                    -0.379981       0.141174
     16 H                     0.240757      -0.008305
     17 C                    -0.219062      -0.099428
     18 H                     0.245314       0.004801
     19 C                    -0.341601       0.150349
     20 H                     0.239636      -0.008732
     21 C                     0.092858       0.242458
     22 C                    -0.392063      -0.146610
     23 H                     0.244869       0.005779
     24 C                    -0.124980       0.213837
     25 B                     0.599755       0.210347
     26 B                     0.599910       0.198928
     27 C                    -0.125479       0.230554
     28 C                    -0.393200      -0.145007
     29 H                     0.247381       0.005657
     30 C                     0.099117       0.235047
     31 C                     0.196995      -0.115049
     32 C                    -0.387219       0.135747
     33 H                     0.240493      -0.007985
     34 C                    -0.217401      -0.097408
     35 H                     0.244703       0.004744
     36 C                    -0.344183       0.142607
     37 H                     0.239465      -0.008273
     38 C                    -0.062363       0.140987
     39 C                     0.236796      -0.093548
     40 C                     0.189681      -0.116029
     41 C                    -0.380452       0.141017
     42 H                     0.240649      -0.008301
     43 C                    -0.219047      -0.099350
     44 H                     0.245422       0.004800
     45 C                    -0.340744       0.149744
     46 H                     0.239724      -0.008690
     47 C                     0.093247       0.242696
     48 C                    -0.392316      -0.146921
     49 H                     0.245602       0.005769
     50 C                    -0.123895       0.217280
     51 C                    -0.212216      -0.017714
     52 C                     0.054991       0.001606
     53 C                    -0.445064      -0.000035
     54 H                     0.234728       0.000242
     55 C                     0.393120      -0.000296
     56 O                    -0.464271      -0.000035
     57 C                    -0.399070      -0.000053
     58 H                     0.227684       0.000264
     59 C                     0.052953       0.001596
     60 C                    -0.416902       0.000006
     61 H                     0.245825       0.000007
     62 H                     0.210852      -0.000004
     63 H                     0.210932      -0.000004
     64 C                    -0.756930       0.001214
     65 H                     0.235118       0.001106
     66 H                     0.244712      -0.000632
     67 H                     0.244710      -0.000623
     68 C                    -0.759891       0.001385
     69 H                     0.239700       0.001120
     70 H                     0.244312      -0.000654
     71 H                     0.244463      -0.000689
     72 C                    -0.208667      -0.018835
     73 C                     0.049555       0.001705
     74 C                    -0.446348      -0.000020
     75 H                     0.235072       0.000233
     76 C                     0.393746      -0.000243
     77 O                    -0.464731      -0.000035
     78 C                    -0.395053      -0.000175
     79 H                     0.227524       0.000293
     80 C                     0.050737       0.001982
     81 C                    -0.416946       0.000005
     82 H                     0.245848       0.000007
     83 H                     0.211022      -0.000003
     84 H                     0.211395      -0.000003
     85 C                    -0.756651       0.001050
     86 H                     0.238869       0.001065
     87 H                     0.243166      -0.000577
     88 H                     0.243409      -0.000651
     89 C                    -0.757816       0.001146
     90 H                     0.235546       0.001131
     91 H                     0.244511      -0.000619
     92 H                     0.245104      -0.000686
  --------------------------------------------------------
  Sum of atomic charges =    -0.000000

                    Cartesian Multipole Moments
 -----------------------------------------------------------------
    Charge (ESU x 10^10)
                -0.0000
    Dipole Moment (Debye)
         X       0.0636      Y       0.0611      Z      -0.0157
       Tot       0.0896
    Quadrupole Moments (Debye-Ang)
        XX    -261.1668     XY      18.2075     YY    -311.8693
        XZ     -13.7750     YZ      13.0788     ZZ    -247.1378

 Total job time:  20498.19s(wall), 59577.22s(cpu)
        *  Thank you very much for using Q-Chem.  Have a nice day.  *
