 Q-Chem 5.1, Q-Chem, Inc., Pleasanton, CA (2018)
 Q-Chem 5.1.1 for Intel X86 EM64T Linux

User input:
--------------------------------------------------------------
$rem
threads 8
jobtype	sp
method PBEh-3c
basis def2-mSVP
mem_static	1024
mem_total	14000
sym_ignore	true
cis_n_roots             6
cis_singlets            true
cis_triplets		true
rpa                     false
calc_soc 		true
cis_moments             true
cis_relaxed_density	true
$end

$molecule
read gsopt.mol
$end

--------------------------------------------------------------

             Standard Nuclear Orientation (Angstroms)
    I     Atom           X                Y                Z
 ----------------------------------------------------------------
    1      C       0.0000000000     0.0000000000     0.0000000000
    2      C       0.0000000000     0.0000000000     1.3978960000
    3      H       0.9412462225     0.0000000000     1.9360806975
    4      C      -1.1947814913    -0.0595104967     2.0875737963
    5      C      -2.4168610964    -0.1530119778     1.3852269249
    6      C      -2.4276371305    -0.1468403787     0.0043647626
    7      H      -3.3617658954    -0.2490713641    -0.5369272955
    8      C      -1.2247971873    -0.0531637863    -0.7026245093
    9      C      -1.4846158277    -0.1555170999     3.5194075821
   10      C      -0.7347188355    -0.1721574223     4.6654852595
   11      H       0.3427305260    -0.0676222146     4.6454462642
   12      C      -2.8773698484    -0.3208090706     3.6270787999
   13      C      -3.5519234285    -0.5212378768     4.8269563917
   14      C      -3.4931883247    -0.3338675170     2.3619536827
   15      C      -4.8432826315    -0.5583275780     2.2944630376
   16      H      -5.3705973893    -0.5993244796     1.3495128748
   17      C      -1.3951125232    -0.3496536746     5.9042967980
   18      H      -0.8014568575    -0.3638167740     6.8089977128
   19      C      -2.7559756933    -0.5214226819     5.9971360722
   20      H      -3.2166466391    -0.6712186596     6.9660429340
   21      C      -5.5580246506    -0.7583013085     3.4994487968
   22      H      -6.6235754222    -0.9396042186     3.4440655859
   23      C      -4.9470033968    -0.7409182331     4.7308176173
   24      H      -5.5327184446    -0.9097859184     5.6262808028
   25      B      -1.2232209851    -0.1248265642    -2.2561417093
   26      B       1.3455201432    -0.0932141885    -0.7756946139
   27      C       1.3526628012     0.0316181824    -2.3278414633
   28      C       2.5588022158     0.0429620106    -3.0358598828
   29      H       3.4966274394     0.0190536769    -2.4917269130
   30      C       2.5513743594     0.0246327737    -4.4184424395
   31      C       1.3243350854    -0.0333835186    -5.1159610749
   32      C       0.1275933878    -0.0403176530    -4.4265666084
   33      H      -0.8129181985    -0.1190583755    -4.9610099844
   34      C       0.1246109033    -0.0031481590    -3.0297022297
   35      C       1.6121767912    -0.1985158970    -6.5384443507
   36      C       0.8538842239    -0.4045883479    -7.6598131297
   37      H      -0.2284585429    -0.4184842989    -7.6236466380
   38      C       3.0136933508    -0.2201046625    -6.6553672906
   39      C       3.6922351328    -0.4469614126    -7.8469547611
   40      C       3.6340871553    -0.0779402891    -5.3996417203
   41      C       5.0009142549    -0.1347134824    -5.3387766631
   42      H       5.5353668816    -0.0496001791    -4.4008974420
   43      C       1.5166188252    -0.6253482287    -8.8897696764
   44      H       0.9192974616    -0.7930211243    -9.7764879565
   45      C       2.8875024771    -0.6486941959    -8.9940720286
   46      H       3.3508582909    -0.8354848689    -9.9550582837
   47      C       5.7228258236    -0.3329534953    -6.5399556568
   48      H       6.8028116561    -0.3795610551    -6.4904949655
   49      C       5.1042523469    -0.4910441767    -7.7578564947
   50      H       5.6990672828    -0.6627125160    -8.6465258969
   51      C       2.6511983885    -0.4578581997     0.0142143258
   52      C       3.6031894266     0.5012601528     0.3590994077
   53      C       4.7450122487     0.1490898722     1.0793072411
   54      H       5.4573076920     0.9252596351     1.3314595106
   55      C       4.9505719949    -1.1690235400     1.4585351849
   56      O       6.0221882386    -1.6127341761     2.1483601387
   57      C       4.0028467111    -2.1311786309     1.1203400399
   58      H       4.1723893555    -3.1591182842     1.4208246615
   59      C       2.8645275913    -1.7915929719     0.4123975855
   60      C       7.0167584750    -0.6925126030     2.5061745445
   61      H       7.7813179337    -1.2521806142     3.0411446768
   62      H       6.6381861928     0.0948268363     3.1664638985
   63      H       7.4797366372    -0.2198217050     1.6335561132
   64      C       3.3864142604     1.9555760607     0.0291462960
   65      H       4.3481525283     2.4343709494    -0.1735045637
   66      H       2.8040366366     2.0545737263    -0.8911280462
   67      C       1.9013424644    -2.8891351224     0.0316629671
   68      H       1.9433225521    -3.6819562345     0.7827816465
   69      H       0.8721086526    -2.5218139845     0.0512146509
   70      C       2.6772863259     2.7049087708     1.1555075309
   71      H       1.6809362856     2.3001829789     1.3329921558
   72      H       2.5650986513     3.7625602702     0.9147586295
   73      H       3.2351546205     2.6303869284     2.0897996483
   74      C       2.2000968795    -3.4861591577    -1.3425137951
   75      H       2.1310465954    -2.7354040570    -2.1298548560
   76      H       3.2047388539    -3.9085660487    -1.3767087808
   77      H       1.4928927054    -4.2821595705    -1.5805926179
   78      C      -2.5645530306    -0.4003713850    -3.0261501349
   79      C      -2.8704855949    -1.6996591170    -3.4395332487
   80      C      -4.0637056050    -1.9700877878    -4.1074187675
   81      H      -4.2640267338    -2.9901040502    -4.4132875518
   82      C      -4.9686856831    -0.9513568344    -4.3666971768
   83      O      -6.1437753824    -1.1193397312    -5.0091361356
   84      C      -4.6752881388     0.3434513873    -3.9481767549
   85      H      -5.3875082880     1.1346780322    -4.1529611246
   86      C      -3.4920716117     0.6216134516    -3.2857337631
   87      C      -6.4787524119    -2.4023143503    -5.4649188224
   88      H      -7.4461782475    -2.3159250633    -5.9554031471
   89      H      -6.5680015074    -3.1255814791    -4.6475303920
   90      H      -5.7554420120    -2.7884643249    -6.1909194607
   91      C      -3.1881127570     2.0476157969    -2.9083302468
   92      H      -4.1211031116     2.5794521459    -2.7056994660
   93      H      -2.6166856062     2.0824509379    -1.9764856199
   94      C      -1.9616243257    -2.8592264971    -3.1139892956
   95      H      -0.9268680413    -2.5217302493    -3.0126612488
   96      H      -1.9577478056    -3.5685513294    -3.9462840399
   97      C      -2.4171546162     2.7813818391    -4.0030347905
   98      H      -1.4493995717     2.3149328948    -4.1871167778
   99      H      -2.9720164590     2.7757694607    -4.9416120376
  100      H      -2.2354193654     3.8199720295    -3.7247924282
  101      C      -2.3793572058    -3.5835174235    -1.8352841078
  102      H      -2.3671709163    -2.9098999832    -0.9780403067
  103      H      -3.3882839003    -3.9883064019    -1.9220068563
  104      H      -1.7038925759    -4.4119403823    -1.6172450800
 ----------------------------------------------------------------

   15   -2280.7120158883      6.10e-09  Convergence criterion met
 Total energy in the final basis set =    -2280.7120158883

         TDDFT/TDA Excitation Energies
 ---------------------------------------------------

 Excited state   1: excitation energy (eV) =    2.3736
 Total energy for state  1:                 -2280.62478771 au
    Multiplicity: Triplet
    Trans. Mom.:  0.0000 X   0.0000 Y   0.0000 Z
    Strength   :     0.0000000000
    D(191) --> V(  2) amplitude =  0.2778
    D(195) --> V(  1) amplitude =  0.8302
    D(196) --> V(  1) amplitude =  0.2851
    D(197) --> V(  1) amplitude = -0.2173

 Excited state   2: excitation energy (eV) =    2.5109
 Total energy for state  2:                 -2280.61974186 au
    Multiplicity: Triplet
    Trans. Mom.:  0.0000 X   0.0000 Y   0.0000 Z
    Strength   :     0.0000000000
    D(194) --> V(  2) amplitude =  0.4958
    D(195) --> V(  1) amplitude = -0.2572
    D(196) --> V(  1) amplitude =  0.6553
    D(198) --> V(  1) amplitude = -0.3072

 Excited state   3: excitation energy (eV) =    2.5543
 Total energy for state  3:                 -2280.61814632 au
    Multiplicity: Triplet
    Trans. Mom.:  0.0000 X   0.0000 Y   0.0000 Z
    Strength   :     0.0000000000
    D(194) --> V(  1) amplitude =  0.6711
    D(194) --> V(  4) amplitude = -0.2446
    D(196) --> V(  2) amplitude =  0.5237

 Excited state   4: excitation energy (eV) =    2.7559
 Total energy for state  4:                 -2280.61073766 au
    Multiplicity: Triplet
    Trans. Mom.:  0.0000 X   0.0000 Y   0.0000 Z
    Strength   :     0.0000000000
    D(191) --> V(  1) amplitude =  0.6075
    D(195) --> V(  2) amplitude =  0.4981
    D(198) --> V(  1) amplitude =  0.4008

 Excited state   5: excitation energy (eV) =    2.9369
 Total energy for state  5:                 -2280.60408645 au
    Multiplicity: Triplet
    Trans. Mom.:  0.0000 X   0.0000 Y   0.0000 Z
    Strength   :     0.0000000000
    D(191) --> V(  1) amplitude = -0.3277
    D(195) --> V(  2) amplitude = -0.2370
    D(196) --> V(  1) amplitude =  0.2328
    D(198) --> V(  1) amplitude =  0.7936

 Excited state   6: excitation energy (eV) =    2.9841
 Total energy for state  6:                 -2280.60235275 au
    Multiplicity: Singlet
    Trans. Mom.:  0.3003 X   0.0061 Y   0.7423 Z
    Strength   :     0.0468752076
    D(198) --> V(  1) amplitude =  0.9430

 Excited state   7: excitation energy (eV) =    3.0462
 Total energy for state  7:                 -2280.60007057 au
    Multiplicity: Singlet
    Trans. Mom.:  0.0243 X   0.0291 Y  -0.2046 Z
    Strength   :     0.0032316917
    D(195) --> V(  1) amplitude =  0.7541
    D(196) --> V(  1) amplitude =  0.2194
    D(197) --> V(  1) amplitude = -0.5437

 Excited state   8: excitation energy (eV) =    3.0615
 Total energy for state  8:                 -2280.59950754 au
    Multiplicity: Triplet
    Trans. Mom.:  0.0000 X   0.0000 Y   0.0000 Z
    Strength   :     0.0000000000
    D(194) --> V(  1) amplitude = -0.2127
    D(197) --> V(  1) amplitude =  0.9010

 Excited state   9: excitation energy (eV) =    3.1157
 Total energy for state  9:                 -2280.59751782 au
    Multiplicity: Singlet
    Trans. Mom.: -0.0446 X  -0.0562 Y   0.0844 Z
    Strength   :     0.0009363598
    D(195) --> V(  1) amplitude =  0.5097
    D(197) --> V(  1) amplitude =  0.7932

 Excited state  10: excitation energy (eV) =    3.3427
 Total energy for state 10:                 -2280.58917234 au
    Multiplicity: Singlet
    Trans. Mom.:  1.7157 X   0.0187 Y  -2.8486 Z
    Strength   :     0.9056223196
    D(195) --> V(  1) amplitude = -0.3008
    D(196) --> V(  1) amplitude =  0.8783

 Excited state  11: excitation energy (eV) =    3.6242
 Total energy for state 11:                 -2280.57882725 au
    Multiplicity: Singlet
    Trans. Mom.:  0.0302 X   0.0999 Y   0.0620 Z
    Strength   :     0.0013077558
    D(194) --> V(  1) amplitude =  0.9171

 Excited state  12: excitation energy (eV) =    3.7183
 Total energy for state 12:                 -2280.57537110 au
    Multiplicity: Singlet
    Trans. Mom.:  0.6149 X   0.0077 Y   0.3621 Z
    Strength   :     0.0463923330
    D(191) --> V(  1) amplitude =  0.6988
    D(195) --> V(  2) amplitude =  0.5725

 ---------------------------------------------------

                    Orbital Energies (a.u.)
 --------------------------------------------------------------

 Alpha MOs
 -- Occupied --
-19.523 -19.523 -10.499 -10.499 -10.489 -10.489 -10.462 -10.462
-10.462 -10.462 -10.461 -10.461 -10.460 -10.460 -10.460 -10.459
-10.459 -10.459 -10.459 -10.459 -10.458 -10.458 -10.458 -10.458
-10.457 -10.457 -10.457 -10.457 -10.450 -10.449 -10.449 -10.449
-10.448 -10.447 -10.446 -10.446 -10.444 -10.443 -10.434 -10.432
-10.432 -10.431 -10.431 -10.430 -10.430 -10.430 -10.429 -10.429
-10.426 -10.426 -10.420 -10.418 -10.416 -10.415 -10.414 -10.413
 -6.945  -6.945  -1.181  -1.180  -1.013  -1.013  -0.960  -0.956
 -0.952  -0.951  -0.931  -0.930  -0.906  -0.898  -0.886  -0.885
 -0.864  -0.862  -0.851  -0.851  -0.845  -0.844  -0.821  -0.819
 -0.816  -0.811  -0.809  -0.802  -0.798  -0.798  -0.773  -0.772
 -0.732  -0.726  -0.724  -0.718  -0.709  -0.709  -0.700  -0.700
 -0.687  -0.678  -0.677  -0.662  -0.655  -0.645  -0.644  -0.643
 -0.628  -0.628  -0.592  -0.590  -0.590  -0.586  -0.582  -0.582
 -0.581  -0.573  -0.572  -0.561  -0.560  -0.542  -0.541  -0.534
 -0.534  -0.533  -0.525  -0.521  -0.510  -0.505  -0.502  -0.501
 -0.500  -0.499  -0.497  -0.493  -0.492  -0.487  -0.487  -0.482
 -0.481  -0.481  -0.480  -0.479  -0.479  -0.477  -0.475  -0.465
 -0.462  -0.458  -0.457  -0.454  -0.452  -0.450  -0.440  -0.438
 -0.433  -0.433  -0.429  -0.427  -0.426  -0.423  -0.422  -0.416
 -0.411  -0.410  -0.407  -0.405  -0.398  -0.398  -0.396  -0.393
 -0.392  -0.392  -0.390  -0.389  -0.388  -0.385  -0.379  -0.379
 -0.375  -0.369  -0.361  -0.360  -0.357  -0.353  -0.352  -0.346
 -0.336  -0.335  -0.314  -0.309  -0.293  -0.292  -0.277  -0.272
 -0.272  -0.259  -0.253  -0.253  -0.248  -0.245

          Ground-State Mulliken Net Atomic Charges

     Atom                 Charge (a.u.)
  ----------------------------------------
      1 C                    -0.148342
      2 C                    -0.388435
      3 H                     0.236897
      4 C                     0.098619
      5 C                     0.094100
      6 C                    -0.388512
      7 H                     0.236752
      8 C                    -0.154275
      9 C                     0.193380
     10 C                    -0.381333
     11 H                     0.220169
     12 C                    -0.061537
     13 C                     0.248789
     14 C                     0.194672
     15 C                    -0.381707
     16 H                     0.220949
     17 C                    -0.204206
     18 H                     0.225690
     19 C                    -0.333933
     20 H                     0.219461
     21 C                    -0.204221
     22 H                     0.225865
     23 C                    -0.333454
     24 H                     0.219411
     25 B                     0.651394
     26 B                     0.643292
     27 C                    -0.155196
     28 C                    -0.386169
     29 H                     0.230419
     30 C                     0.099814
     31 C                     0.092159
     32 C                    -0.387924
     33 H                     0.237283
     34 C                    -0.153339
     35 C                     0.190760
     36 C                    -0.378258
     37 H                     0.220617
     38 C                    -0.060132
     39 C                     0.249464
     40 C                     0.192311
     41 C                    -0.381035
     42 H                     0.219163
     43 C                    -0.204969
     44 H                     0.225754
     45 C                    -0.333276
     46 H                     0.219380
     47 C                    -0.203560
     48 H                     0.225469
     49 C                    -0.334761
     50 H                     0.219636
     51 C                    -0.221273
     52 C                     0.095997
     53 C                    -0.422571
     54 H                     0.220991
     55 C                     0.403707
     56 O                    -0.453063
     57 C                    -0.380872
     58 H                     0.219897
     59 C                     0.076375
     60 C                    -0.405243
     61 H                     0.239037
     62 H                     0.202381
     63 H                     0.203020
     64 C                    -0.546370
     65 H                     0.225094
     66 H                     0.250041
     67 C                    -0.553332
     68 H                     0.231547
     69 H                     0.260207
     70 C                    -0.642728
     71 H                     0.239441
     72 H                     0.219927
     73 H                     0.213754
     74 C                    -0.644979
     75 H                     0.245075
     76 H                     0.219446
     77 H                     0.213976
     78 C                    -0.227751
     79 C                     0.074066
     80 C                    -0.427533
     81 H                     0.221787
     82 C                     0.402959
     83 O                    -0.453569
     84 C                    -0.376211
     85 H                     0.219405
     86 C                     0.095657
     87 C                    -0.406081
     88 H                     0.239046
     89 H                     0.203222
     90 H                     0.203420
     91 C                    -0.548099
     92 H                     0.229444
     93 H                     0.250380
     94 C                    -0.556921
     95 H                     0.262729
     96 H                     0.227943
     97 C                    -0.644648
     98 H                     0.240491
     99 H                     0.217695
    100 H                     0.218499
    101 C                    -0.640816
    102 H                     0.242812
    103 H                     0.213190
    104 H                     0.216304
  ----------------------------------------
  Sum of atomic charges =    -0.000000

                    Cartesian Multipole Moments
 -----------------------------------------------------------------
    Charge (ESU x 10^10)
                -0.0000
    Dipole Moment (Debye)
         X       0.7114      Y      -1.1344      Z      -0.0265
       Tot       1.3393
    Quadrupole Moments (Debye-Ang)
        XX    -291.1976     XY      17.2132     YY    -336.8271
        XZ      -0.1586     YZ      13.0262     ZZ    -291.9561

 Total job time:  7490.22s(wall), 37073.61s(cpu)
        *  Thank you very much for using Q-Chem.  Have a nice day.  *
