 Q-Chem 5.0, Q-Chem, Inc., Pleasanton, CA (2017)
 Q-Chem 5.0.1 for Intel X86 EM64T Linux

User input:
--------------------------------------------------------------
$rem
threads 8
jobtype	opt
method PBEh-3c
basis def2-mSVP
mem_static	512
mem_total	6096
sym_ignore	true
$end

$molecule
read incoords.mol
$end

--------------------------------------------------------------

   15   -2280.6599868325      4.67E-09 Convergence criterion met
 Total energy in the final basis set = -2280.65998683
   12   -2280.6935548826      7.59E-09 Convergence criterion met
 Total energy in the final basis set = -2280.69355488
   13   -2280.7050328512      5.29E-09 Convergence criterion met
 Total energy in the final basis set = -2280.70503285
   12   -2280.7083492002      9.69E-09 Convergence criterion met
 Total energy in the final basis set = -2280.70834920
   13   -2280.7097236768      5.36E-09 Convergence criterion met
 Total energy in the final basis set = -2280.70972368
   12   -2280.7103694586      7.35E-09 Convergence criterion met
 Total energy in the final basis set = -2280.71036946
   12   -2280.7108834195      8.86E-09 Convergence criterion met
 Total energy in the final basis set = -2280.71088342
   12   -2280.7110394823      6.79E-09 Convergence criterion met
   10   -2280.7120823724      8.30E-09 Convergence criterion met
 Total energy in the final basis set = -2280.71208237
   10   -2280.7120882391      4.72E-09 Convergence criterion met
 Total energy in the final basis set = -2280.71208824
   10   -2280.7120832586      6.09E-09 Convergence criterion met
 Total energy in the final basis set = -2280.71208326
    9   -2280.7120988398      6.54E-09 Convergence criterion met
 Total energy in the final basis set = -2280.71209884
    9   -2280.7120936737      7.20E-09 Convergence criterion met
 Total energy in the final basis set = -2280.71209367
    8   -2280.7120974866      6.54E-09 Convergence criterion met
 Total energy in the final basis set = -2280.71209749

             Standard Nuclear Orientation (Angstroms)
    I     Atom           X                Y                Z
 ----------------------------------------------------------------
    1      C       2.6388824690    -1.5427374718     0.3864467337
    2      C       3.5963291726    -1.2352641009    -0.6088854834
    3      B       4.5596084153    -2.3520384924    -1.1085877275
    4      C       4.6344288320    -3.7055219541    -0.3448479067
    5      C       3.6659935497    -4.0169089443     0.6358699832
    6      B       2.5747253305    -2.9721592865     1.0049029316
    7      C       5.5759039232    -4.6675049502    -0.7221094155
    8      C       5.5524477515    -5.9202478695    -0.1417786090
    9      C       4.5595687370    -6.2443588038     0.8093555709
   10      C       3.6294314137    -5.2987454209     1.1935349409
   11      C       1.6755865103    -0.5927102236     0.7359154163
   12      C       1.6665338649     0.6425001041     0.1181148837
   13      C       2.6354612600     0.9605362082    -0.8594110571
   14      C       3.5810782653     0.0202757237    -1.2249843340
   15      C       7.3903308941    -7.4425558741    -1.2256324658
   16      C       7.8629918768    -8.7762626041    -1.2355147809
   17      C       7.3036060955    -9.7631953227    -0.4589047772
   18      C       6.2157615603    -9.4622239492     0.3948312883
   19      C       5.7892416180    -8.1382330806     0.4003709332
   20      C       6.3465329959    -7.1231739156    -0.3982277386
   21      C       5.4857390387   -10.3577223448     1.2126932247
   22      C       4.4151774719    -9.9036679895     1.9459400734
   23      C       4.0000677510    -8.5508564621     1.9253917121
   24      C       4.6968888784    -7.6624605330     1.1489358231
   25      C       2.1739725676     4.3037804878    -2.6750480210
   26      C       2.8370777473     3.0897726160    -2.3754443021
   27      C       2.3172767299     2.2855998555    -1.3965375358
   28      C       1.1474201508     2.7063795487    -0.7359872317
   29      C       0.4562364821     3.8761915193    -1.0285072642
   30      C       1.0201476103     4.6940556896    -2.0368616290
   31      C       0.7119132309     1.7454438816     0.1942395991
   32      C      -0.4600493966     1.9637964256     0.8678624122
   33      C      -1.1791520944     3.1521511753     0.6005603546
   34      C      -0.7478027971     4.0843699197    -0.3135803934
   35      C       7.2437137672    -1.3887913065    -3.7399422127
   36      C       6.5524834077    -1.4922563468    -2.5324741916
   37      C       5.3515768709    -2.1971167985    -2.4541366910
   38      C       4.8518738993    -2.8072864421    -3.6207118321
   39      C       5.5415273808    -2.6931536631    -4.8138689990
   40      C       6.7382523747    -1.9853195070    -4.8854354781
   41      C       7.1735293676    -0.8886112299    -1.2992635485
   42      C       3.5345696395    -3.5434880412    -3.6200976555
   43      O       7.3243527675    -1.9377839138    -6.1000658409
   44      C       8.5252696725    -1.2285856422    -6.2373465219
   45      C       0.4324949495    -3.8297537146     4.1152752824
   46      C       1.5013009999    -3.4375506454     3.3278504431
   47      C       1.3755735828    -3.3896080392     1.9299875156
   48      C       0.1555752706    -3.7581547434     1.3569209287
   49      C      -0.9157464667    -4.1502184497     2.1578790118
   50      C      -0.7833924704    -4.1852390792     3.5381983966
   51      C       2.7769135486    -3.0007142757     3.9988901027
   52      C      -0.0202578873    -3.8160471904    -0.1405220904
   53      O      -1.7655910414    -4.5471216039     4.3903186841
   54      C      -3.0147119909    -4.8991301369     3.8595105991
   55      H       6.2929579450    -4.4414227426    -1.5033315099
   56      H       2.8479481978    -5.5543068953     1.9006534630
   57      H       0.9112509008    -0.8487280166     1.4616131669
   58      H       4.2856441482     0.2316476750    -2.0219018940
   59      H       7.8492185793    -6.7090733554    -1.8765176909
   60      H       8.6869396035    -9.0276679520    -1.8905092246
   61      H       7.6873450410   -10.7748148268    -0.5118906207
   62      H       5.7607776628   -11.4047777006     1.2509339774
   63      H       3.8611523767   -10.6048368938     2.5564759611
   64      H       3.1389236264    -8.2492079099     2.5085822751
   65      H       2.5844978882     4.9376298065    -3.4500906809
   66      H       3.7242061796     2.8131036663    -2.9312845445
   67      H       0.5365349105     5.6218581362    -2.3166999336
   68      H      -0.8522731133     1.2481460104     1.5798822777
   69      H      -2.1080152246     3.3245986680     1.1284345285
   70      H      -1.3392620972     4.9732924185    -0.4954524996
   71      H       8.1755121521    -0.8366573049    -3.7568034446
   72      H       5.1540121395    -3.1557707602    -5.7147096547
   73      H       7.7038635728     0.0294765102    -1.5659318142
   74      C       8.1415510514    -1.8482781900    -0.6100436423
   75      H       6.3972958992    -0.5893621295    -0.5894881075
   76      H       3.5520315655    -4.3139584529    -4.3950662044
   77      C       2.3419153175    -2.6195005353    -3.8606707666
   78      H       3.3936140207    -4.0793310338    -2.6779543459
   79      H       8.8176525382    -1.3100366002    -7.2822625899
   80      H       9.3280950701    -1.6446231428    -5.6196187290
   81      H       8.4126079250    -0.1676566135    -5.9903923248
   82      H       0.5294768888    -3.8605273854     5.1945719122
   83      H      -1.8459339825    -4.4271365910     1.6760241750
   84      H       3.6419301807    -3.2675686820     3.3852038885
   85      H       2.9001481278    -3.5434201250     4.9394560396
   86      C       2.7967428274    -1.4995322590     4.2767891958
   87      H       0.6524478024    -3.1108111613    -0.6354985553
   88      H      -1.0304679843    -3.4915062166    -0.4051364208
   89      C       0.2229305429    -5.2166737707    -0.7002445511
   90      H      -3.6545596340    -5.1440978012     4.7048132366
   91      H      -3.4767692347    -4.0776434320     3.3018110156
   92      H      -2.9578191567    -5.7737814005     3.2030413107
   93      H       2.4287103190    -2.1086309543    -4.8200357386
   94      H       2.2631062060    -1.8561220517    -3.0864934926
   95      H       1.4089005660    -3.1851016122    -3.8646519684
   96      H       1.2332854829    -5.5608241094    -0.4777127647
   97      H       0.0973723778    -5.2314574617    -1.7838007517
   98      H      -0.4730055481    -5.9393740725    -0.2728265420
   99      H       2.7406832933    -0.9244543704     3.3525854924
  100      H       3.7131353212    -1.2088159842     4.7914000209
  101      H       1.9520171465    -1.2072203461     4.9011475380
  102      H       8.9335583251    -2.1640549969    -1.2902506076
  103      H       7.6283354363    -2.7448048727    -0.2623839388
  104      H       8.6098012709    -1.3799249700     0.2563049692
 ----------------------------------------------------------------

    7   -2280.7120984888      8.70E-09 Convergence criterion met
 Total energy in the final basis set = -2280.71209849
 Final energy is   -2280.71209848884
 **  OPTIMIZATION CONVERGED  **

                    Orbital Energies (a.u.)
 --------------------------------------------------------------

 Alpha MOs
 -- Occupied --
-19.523 -19.523 -10.499 -10.499 -10.489 -10.489 -10.462 -10.462
-10.462 -10.462 -10.461 -10.461 -10.460 -10.460 -10.460 -10.459
-10.459 -10.459 -10.459 -10.459 -10.458 -10.458 -10.458 -10.458
-10.457 -10.457 -10.457 -10.457 -10.450 -10.449 -10.449 -10.449
-10.448 -10.447 -10.446 -10.446 -10.444 -10.443 -10.434 -10.432
-10.432 -10.431 -10.431 -10.430 -10.430 -10.430 -10.429 -10.429
-10.426 -10.426 -10.420 -10.418 -10.416 -10.415 -10.414 -10.413
 -6.945  -6.945  -1.181  -1.180  -1.013  -1.013  -0.960  -0.956
 -0.952  -0.951  -0.931  -0.930  -0.906  -0.898  -0.886  -0.885
 -0.864  -0.862  -0.851  -0.851  -0.845  -0.844  -0.821  -0.819
 -0.816  -0.811  -0.809  -0.802  -0.798  -0.798  -0.773  -0.772
 -0.732  -0.726  -0.724  -0.718  -0.709  -0.709  -0.700  -0.700
 -0.687  -0.678  -0.677  -0.662  -0.655  -0.645  -0.644  -0.643
 -0.628  -0.628  -0.592  -0.590  -0.590  -0.586  -0.582  -0.582
 -0.581  -0.573  -0.572  -0.561  -0.560  -0.542  -0.541  -0.534
 -0.534  -0.533  -0.525  -0.521  -0.510  -0.505  -0.502  -0.501
 -0.500  -0.499  -0.497  -0.493  -0.492  -0.487  -0.487  -0.482
 -0.481  -0.481  -0.480  -0.479  -0.479  -0.477  -0.475  -0.465
 -0.462  -0.458  -0.457  -0.454  -0.452  -0.450  -0.440  -0.438
 -0.433  -0.433  -0.429  -0.427  -0.426  -0.423  -0.422  -0.416
 -0.411  -0.410  -0.407  -0.405  -0.398  -0.398  -0.396  -0.393
 -0.392  -0.392  -0.390  -0.389  -0.388  -0.385  -0.379  -0.379
 -0.375  -0.369  -0.361  -0.360  -0.357  -0.353  -0.352  -0.346
 -0.336  -0.335  -0.314  -0.309  -0.293  -0.292  -0.277  -0.272
 -0.272  -0.259  -0.253  -0.253  -0.248  -0.245

          Ground-State Mulliken Net Atomic Charges

     Atom                 Charge (a.u.)
  ----------------------------------------
      1 C                    -0.153076
      2 C                    -0.155114
      3 B                     0.642660
      4 C                    -0.148138
      5 C                    -0.154551
      6 B                     0.651109
      7 C                    -0.388556
      8 C                     0.099004
      9 C                     0.093980
     10 C                    -0.388280
     11 C                    -0.388180
     12 C                     0.092264
     13 C                     0.099571
     14 C                    -0.386128
     15 C                    -0.381350
     16 C                    -0.204142
     17 C                    -0.334098
     18 C                     0.248752
     19 C                    -0.061292
     20 C                     0.193124
     21 C                    -0.333426
     22 C                    -0.204220
     23 C                    -0.381889
     24 C                     0.195006
     25 C                    -0.203593
     26 C                    -0.380979
     27 C                     0.191923
     28 C                    -0.059995
     29 C                     0.249351
     30 C                    -0.334620
     31 C                     0.191129
     32 C                    -0.378071
     33 C                    -0.204987
     34 C                    -0.333295
     35 C                    -0.422830
     36 C                     0.096525
     37 C                    -0.221152
     38 C                     0.076782
     39 C                    -0.380829
     40 C                     0.403428
     41 C                    -0.546806
     42 C                    -0.553799
     43 O                    -0.453033
     44 C                    -0.405191
     45 C                    -0.376312
     46 C                     0.096038
     47 C                    -0.228128
     48 C                     0.074112
     49 C                    -0.427717
     50 C                     0.403226
     51 C                    -0.547974
     52 C                    -0.556971
     53 O                    -0.453668
     54 C                    -0.405929
     55 H                     0.236915
     56 H                     0.236630
     57 H                     0.237262
     58 H                     0.230345
     59 H                     0.220142
     60 H                     0.225698
     61 H                     0.219480
     62 H                     0.219404
     63 H                     0.225864
     64 H                     0.221018
     65 H                     0.225482
     66 H                     0.219106
     67 H                     0.219583
     68 H                     0.220686
     69 H                     0.225764
     70 H                     0.219387
     71 H                     0.221053
     72 H                     0.219943
     73 H                     0.225160
     74 C                    -0.642712
     75 H                     0.250118
     76 H                     0.231640
     77 C                    -0.644859
     78 H                     0.260304
     79 H                     0.239031
     80 H                     0.202370
     81 H                     0.203016
     82 H                     0.219407
     83 H                     0.221859
     84 H                     0.250385
     85 H                     0.229450
     86 C                    -0.644964
     87 H                     0.262615
     88 H                     0.227974
     89 C                    -0.640453
     90 H                     0.239020
     91 H                     0.203380
     92 H                     0.203182
     93 H                     0.219450
     94 H                     0.245103
     95 H                     0.213962
     96 H                     0.242743
     97 H                     0.216222
     98 H                     0.213115
     99 H                     0.240573
    100 H                     0.218571
    101 H                     0.217737
    102 H                     0.213778
    103 H                     0.239429
    104 H                     0.219961
  ----------------------------------------
  Sum of atomic charges =    -0.000000

                    Cartesian Multipole Moments
 -----------------------------------------------------------------
    Charge (ESU x 10^10)
                -0.0000
    Dipole Moment (Debye)
         X      -0.4692      Y       0.0668      Z      -1.2502
       Tot       1.3370
    Quadrupole Moments (Debye-Ang)
        XX    -295.0209     XY      -1.2576     YY    -296.2401
        XZ     -24.4822     YZ     -10.6554     ZZ    -332.7079

 Total job time:  19903.38s(wall), 93221.59s(cpu)
        *  Thank you very much for using Q-Chem.  Have a nice day.  *
