 Q-Chem 5.0, Q-Chem, Inc., Pleasanton, CA (2017)
 Q-Chem 5.0.1 for Intel X86 EM64T Linux

User input:
--------------------------------------------------------------
$rem
threads 8
jobtype	opt
method PBEh-3c
basis def2-mSVP
mem_static	1024
mem_total	14000
sym_ignore	true
cis_n_roots             2
cis_singlets            false
cis_triplets		true
rpa                     false
cis_state_deriv         1
$end

$molecule
read incoords.mol
$end

--------------------------------------------------------------

   15   -2280.6599868326      4.67E-09 Convergence criterion met
 Total energy in the final basis set = -2280.65998683
   12   -2280.6905405203      7.66E-09 Convergence criterion met
 Total energy in the final basis set = -2280.69054052
   13   -2280.6997656812      6.18E-09 Convergence criterion met
 Total energy in the final basis set = -2280.69976568
   13   -2280.6999982040      6.22E-09 Convergence criterion met
 Total energy in the final basis set = -2280.69999820
   13   -2280.6990474141      5.41E-09 Convergence criterion met
 Total energy in the final basis set = -2280.69904741
   13   -2280.6995494632      5.56E-09 Convergence criterion met
 Total energy in the final basis set = -2280.69954946
   12   -2280.6997425533      8.43E-09 Convergence criterion met
 Total energy in the final basis set = -2280.69974255
   12   -2280.7002095778      8.22E-09 Convergence criterion met
   10   -2280.7064965397      8.60E-09 Convergence criterion met
 Total energy in the final basis set = -2280.70649654
    9   -2280.7065536694      8.14E-09 Convergence criterion met
 Total energy in the final basis set = -2280.70655367
   10   -2280.7065609708      4.46E-09 Convergence criterion met
 Total energy in the final basis set = -2280.70656097
    8   -2280.7065572743      8.76E-09 Convergence criterion met
 Total energy in the final basis set = -2280.70655727
    8   -2280.7065448351      8.15E-09 Convergence criterion met
 Total energy in the final basis set = -2280.70654484
    8   -2280.7065412558      7.09E-09 Convergence criterion met
 Total energy in the final basis set = -2280.70654126

             Standard Nuclear Orientation (Angstroms)
    I     Atom           X                Y                Z
 ----------------------------------------------------------------
    1      C       2.5718103093    -1.6072660203     0.3299492105
    2      C       3.5407251926    -1.3046417292    -0.7157714845
    3      B       4.5250309578    -2.3849336987    -1.1954519740
    4      C       4.5576413388    -3.7306299194    -0.4545580831
    5      C       3.5670633211    -4.0445080265     0.5597126625
    6      B       2.5172100435    -3.0021351075     0.9770119839
    7      C       5.5008911884    -4.7032510329    -0.8235426195
    8      C       5.4648043712    -5.9526631100    -0.2582012483
    9      C       4.4398074768    -6.2834930646     0.7130535399
   10      C       3.5277171411    -5.3351950752     1.1072232576
   11      C       1.6162098909    -0.6449548449     0.6773306093
   12      C       1.5873796066     0.5710925230     0.0363989535
   13      C       2.5699760780     0.8859341297    -0.9876611755
   14      C       3.5125956281    -0.0477174721    -1.3423257391
   15      C       7.2986257317    -7.4748067192    -1.3241273929
   16      C       7.7628139300    -8.8067617367    -1.3267433250
   17      C       7.1922761000    -9.7927913750    -0.5529183967
   18      C       6.0976378204    -9.4907315324     0.2916680109
   19      C       5.6719551428    -8.1654373800     0.2916832200
   20      C       6.2433600684    -7.1507687692    -0.5051846055
   21      C       5.3631432329   -10.3818741301     1.1104855864
   22      C       4.2895333970    -9.9257088636     1.8432275575
   23      C       3.8742993700    -8.5782426107     1.8228827121
   24      C       4.5743364388    -7.6883876507     1.0413405311
   25      C       2.0686555994     4.1851796796    -2.8351589734
   26      C       2.7435594691     2.9852428908    -2.5293301341
   27      C       2.2360636400     2.1871658753    -1.5315680465
   28      C       1.0667073143     2.6086788320    -0.8608385340
   29      C       0.3667626442     3.7720758379    -1.1625739235
   30      C       0.9169345744     4.5771857521    -2.1885562776
   31      C       0.6441683514     1.6612036424     0.0981948598
   32      C      -0.5225765027     1.8922425012     0.7899234096
   33      C      -1.2433654206     3.0692775200     0.5085334193
   34      C      -0.8269718583     3.9868987609    -0.4320289171
   35      C       7.3717735016    -1.2778421021    -3.5991478381
   36      C       6.6005369387    -1.4459744880    -2.4486571534
   37      C       5.4117086289    -2.1774377463    -2.4800139559
   38      C       5.0138643276    -2.7487465556    -3.7048199609
   39      C       5.7843565622    -2.5743248493    -4.8413678884
   40      C       6.9638435360    -1.8376594919    -4.8005154480
   41      C       7.1231959549    -0.8778495209    -1.1547685752
   42      C       3.7181617205    -3.5123283575    -3.8371622834
   43      O       7.6338436833    -1.7248569598    -5.9675092164
   44      C       8.8278720759    -0.9914582897    -5.9848651599
   45      C       0.5907155607    -3.7914111988     4.2504633482
   46      C       1.6012062429    -3.4255173868     3.3772142623
   47      C       1.3727152842    -3.3905081025     1.9900464382
   48      C       0.1028261937    -3.7414032812     1.5220159840
   49      C      -0.9102993945    -4.1052664212     2.4087332303
   50      C      -0.6719608636    -4.1315712243     3.7743549618
   51      C       2.9295193888    -3.0020923319     3.9465586486
   52      C      -0.2053372876    -3.8100455801     0.0458927203
   53      O      -1.5913290325    -4.4695362792     4.7040629250
   54      C      -2.8822361093    -4.8069849333     4.2747134985
   55      H       6.2303730818    -4.4704234432    -1.5908518127
   56      H       2.7549454298    -5.5840365620     1.8258754424
   57      H       0.8722767068    -0.8860511000     1.4286326328
   58      H       4.2165294816     0.1566243939    -2.1412392396
   59      H       7.7665250717    -6.7414558669    -1.9680153115
   60      H       8.5924888150    -9.0638717847    -1.9722367124
   61      H       7.5748353780   -10.8049449706    -0.6009679040
   62      H       5.6372637146   -11.4288918804     1.1522400222
   63      H       3.7368180169   -10.6279499136     2.4537333977
   64      H       3.0149004818    -8.2725643629     2.4057483888
   65      H       2.4645504929     4.8133873696    -3.6223471879
   66      H       3.6279230210     2.7062010796    -3.0875050773
   67      H       0.4254627899     5.4983805794    -2.4757944325
   68      H      -0.8988742800     1.1899209611     1.5227485666
   69      H      -2.1649732029     3.2528895600     1.0452893196
   70      H      -1.4240197375     4.8704814122    -0.6206033958
   71      H       8.2887873549    -0.7053746943    -3.5298795464
   72      H       5.4722176709    -3.0093774802    -5.7842371961
   73      H       7.6797170512     0.0420561171    -1.3534899135
   74      C       8.0264517176    -1.8647738303    -0.4177874796
   75      H       6.2939673460    -0.5942299195    -0.5019334736
   76      H       3.8049413795    -4.2278528643    -4.6586353468
   77      C       2.5217664482    -2.5987295749    -4.0964180559
   78      H       3.5270628181    -4.1101750875    -2.9427457372
   79      H       9.1972320127    -1.0214761955    -7.0080174394
   80      H       9.5913593545    -1.4218511336    -5.3282156681
   81      H       8.6775413311     0.0554023964    -5.7010239301
   82      H       0.7699243162    -3.8125041466     5.3194321357
   83      H      -1.8799722086    -4.3674960135     2.0025128276
   84      H       3.7416014139    -3.3060707033     3.2814386623
   85      H       3.1047133235    -3.5194434649     4.8930316048
   86      C       2.9997498985    -1.4942674873     4.1738365820
   87      H       0.4019694663    -3.0928042436    -0.5105416254
   88      H      -1.2444668429    -3.5148918362    -0.1242031454
   89      C       0.0207566055    -5.2079474917    -0.5269368840
   90      H      -3.4589473798    -5.0345242264     5.1689816179
   91      H      -3.3738484789    -3.9837106149     3.7454738596
   92      H      -2.8891095366    -5.6882396855     3.6245573977
   93      H       2.6640069843    -2.0153985794    -5.0066820922
   94      H       2.3699404872    -1.8978640650    -3.2754926748
   95      H       1.6055806602    -3.1800663040    -4.2089830644
   96      H       1.0603307888    -5.5160014525    -0.4130146655
   97      H      -0.2208739451    -5.2401613786    -1.5902122418
   98      H      -0.6003132188    -5.9469956335    -0.0192789439
   99      H       2.8875078440    -0.9485403991     3.2368829176
  100      H       3.9564041981    -1.2070029357     4.6116373554
  101      H       2.2077050054    -1.1639662439     4.8466255944
  102      H       8.8720826014    -2.1620798480    -1.0392516787
  103      H       7.4828190915    -2.7694211303    -0.1444203061
  104      H       8.4213006803    -1.4277482967     0.5001266465
 ----------------------------------------------------------------

    7   -2280.7065479080      8.11E-09 Convergence criterion met
 Total energy in the final basis set = -2280.70654791

         TDDFT/TDA Excitation Energies
 ---------------------------------------------------

 Excited state   1: excitation energy (eV) =    1.9999
 Total energy for state  1:                 -2280.63305245 au
    Multiplicity: Triplet
    Trans. Mom.:  0.0000 X   0.0000 Y   0.0000 Z
    Strength   :     0.0000000000
    D(191) --> V(  2) amplitude = -0.2489
    D(196) --> V(  1) amplitude = -0.2493
    D(197) --> V(  1) amplitude =  0.7166
    D(198) --> V(  1) amplitude =  0.5279

 Excited state   2: excitation energy (eV) =    2.3711
 Total energy for state  2:                 -2280.61941296 au
    Multiplicity: Triplet
    Trans. Mom.:  0.0000 X   0.0000 Y   0.0000 Z
    Strength   :     0.0000000000
    D(194) --> V(  2) amplitude =  0.4658
    D(195) --> V(  1) amplitude = -0.7500
    D(198) --> V(  1) amplitude =  0.2280

 ---------------------------------------------------

 Final energy is   -2280.63305244772
 **  OPTIMIZATION CONVERGED  **

                    Orbital Energies (a.u.)
 --------------------------------------------------------------

 Alpha MOs
 -- Occupied --
-19.522 -19.522 -10.498 -10.498 -10.488 -10.488 -10.464 -10.463
-10.463 -10.463 -10.463 -10.462 -10.462 -10.461 -10.461 -10.461
-10.461 -10.460 -10.460 -10.460 -10.459 -10.458 -10.458 -10.458
-10.458 -10.458 -10.458 -10.458 -10.450 -10.449 -10.448 -10.448
-10.447 -10.447 -10.446 -10.445 -10.445 -10.444 -10.432 -10.432
-10.432 -10.431 -10.431 -10.431 -10.431 -10.430 -10.429 -10.428
-10.426 -10.425 -10.419 -10.417 -10.415 -10.414 -10.414 -10.414
 -6.940  -6.939  -1.180  -1.180  -1.012  -1.011  -0.957  -0.953
 -0.951  -0.950  -0.932  -0.931  -0.903  -0.894  -0.885  -0.885
 -0.864  -0.861  -0.854  -0.853  -0.846  -0.845  -0.819  -0.819
 -0.813  -0.811  -0.810  -0.797  -0.797  -0.795  -0.772  -0.771
 -0.731  -0.730  -0.727  -0.716  -0.707  -0.707  -0.700  -0.699
 -0.687  -0.680  -0.676  -0.664  -0.653  -0.644  -0.640  -0.639
 -0.627  -0.627  -0.596  -0.592  -0.588  -0.588  -0.581  -0.581
 -0.581  -0.574  -0.573  -0.560  -0.559  -0.540  -0.540  -0.534
 -0.533  -0.533  -0.525  -0.521  -0.513  -0.506  -0.502  -0.501
 -0.499  -0.499  -0.497  -0.494  -0.490  -0.489  -0.485  -0.482
 -0.481  -0.480  -0.479  -0.478  -0.478  -0.478  -0.476  -0.463
 -0.459  -0.457  -0.456  -0.454  -0.451  -0.449  -0.441  -0.435
 -0.432  -0.431  -0.428  -0.426  -0.425  -0.425  -0.420  -0.413
 -0.410  -0.409  -0.406  -0.404  -0.398  -0.397  -0.397  -0.394
 -0.393  -0.393  -0.390  -0.388  -0.387  -0.383  -0.378  -0.378
 -0.372  -0.368  -0.360  -0.359  -0.355  -0.355  -0.351  -0.343
 -0.337  -0.333  -0.318  -0.312  -0.294  -0.293  -0.274  -0.271
 -0.271  -0.259  -0.252  -0.248  -0.245  -0.245

          Ground-State Mulliken Net Atomic Charges

     Atom                 Charge (a.u.)
  ----------------------------------------
      1 C                    -0.150505
      2 C                    -0.156920
      3 B                     0.637711
      4 C                    -0.149353
      5 C                    -0.153156
      6 B                     0.641091
      7 C                    -0.387280
      8 C                     0.092893
      9 C                     0.087591
     10 C                    -0.385432
     11 C                    -0.384427
     12 C                     0.085474
     13 C                     0.091116
     14 C                    -0.382716
     15 C                    -0.374895
     16 C                    -0.204850
     17 C                    -0.332478
     18 C                     0.247452
     19 C                    -0.069530
     20 C                     0.198223
     21 C                    -0.331986
     22 C                    -0.204696
     23 C                    -0.374487
     24 C                     0.199547
     25 C                    -0.204338
     26 C                    -0.373661
     27 C                     0.197462
     28 C                    -0.069478
     29 C                     0.248215
     30 C                    -0.332701
     31 C                     0.195900
     32 C                    -0.369725
     33 C                    -0.205176
     34 C                    -0.331947
     35 C                    -0.422762
     36 C                     0.087917
     37 C                    -0.223719
     38 C                     0.075838
     39 C                    -0.379342
     40 C                     0.402711
     41 C                    -0.546860
     42 C                    -0.550928
     43 O                    -0.453571
     44 C                    -0.405303
     45 C                    -0.375086
     46 C                     0.089661
     47 C                    -0.228465
     48 C                     0.072107
     49 C                    -0.425320
     50 C                     0.402291
     51 C                    -0.547948
     52 C                    -0.551447
     53 O                    -0.453778
     54 C                    -0.405718
     55 H                     0.239030
     56 H                     0.238207
     57 H                     0.237365
     58 H                     0.233833
     59 H                     0.221753
     60 H                     0.226197
     61 H                     0.220013
     62 H                     0.219912
     63 H                     0.226273
     64 H                     0.222292
     65 H                     0.226093
     66 H                     0.221167
     67 H                     0.220207
     68 H                     0.221984
     69 H                     0.226220
     70 H                     0.220028
     71 H                     0.221032
     72 H                     0.219713
     73 H                     0.224255
     74 C                    -0.643513
     75 H                     0.252224
     76 H                     0.230095
     77 C                    -0.645270
     78 H                     0.257373
     79 H                     0.238795
     80 H                     0.202593
     81 H                     0.202781
     82 H                     0.219336
     83 H                     0.221489
     84 H                     0.252038
     85 H                     0.229037
     86 C                    -0.645146
     87 H                     0.259198
     88 H                     0.225669
     89 C                    -0.641556
     90 H                     0.238843
     91 H                     0.202997
     92 H                     0.203004
     93 H                     0.217763
     94 H                     0.245426
     95 H                     0.214958
     96 H                     0.243234
     97 H                     0.216761
     98 H                     0.212529
     99 H                     0.241303
    100 H                     0.217885
    101 H                     0.217613
    102 H                     0.213441
    103 H                     0.241179
    104 H                     0.219124
  ----------------------------------------
  Sum of atomic charges =    -0.000000

                    Cartesian Multipole Moments
 -----------------------------------------------------------------
    Charge (ESU x 10^10)
                -0.0000
    Dipole Moment (Debye)
         X      -0.5688      Y       0.1260      Z      -1.0205
       Tot       1.1751
    Quadrupole Moments (Debye-Ang)
        XX    -294.6201     XY      -1.9722     YY    -293.7869
        XZ     -23.4895     YZ     -11.7496     ZZ    -333.7348

 Total job time:  84520.18s(wall), 525808.77s(cpu)
        *  Thank you very much for using Q-Chem.  Have a nice day.  *
