 Q-Chem 5.0, Q-Chem, Inc., Pleasanton, CA (2017)
 Q-Chem 5.0.1 for Intel X86 EM64T Linux

User input:
--------------------------------------------------------------
$rem
threads 8
jobtype	opt
method PBEh-3c
basis def2-mSVP
mem_static	1024
mem_total	14000
sym_ignore	true
cis_n_roots             3
cis_singlets            false
cis_triplets		true
rpa                     false
cis_state_deriv         2
state_follow		true
$end

$molecule
read incoords.mol
$end

--------------------------------------------------------------

   15   -2280.6599868327      4.67E-09 Convergence criterion met
 Total energy in the final basis set = -2280.65998683
   12   -2280.6905022935      7.58E-09 Convergence criterion met
 Total energy in the final basis set = -2280.69050229
   13   -2280.6998527784      6.20E-09 Convergence criterion met
 Total energy in the final basis set = -2280.69985278
   13   -2280.6996349648      6.42E-09 Convergence criterion met
 Total energy in the final basis set = -2280.69963496
   13   -2280.6996760895      5.48E-09 Convergence criterion met
 Total energy in the final basis set = -2280.69967609
   13   -2280.6998684602      4.84E-09 Convergence criterion met
 Total energy in the final basis set = -2280.69986846
   12   -2280.6998521281      8.38E-09 Convergence criterion met
 Total energy in the final basis set = -2280.69985213
   12   -2280.6996944928      8.20E-09 Convergence criterion met
   10   -2280.7065365770      8.83E-09 Convergence criterion met
 Total energy in the final basis set = -2280.70653658
   10   -2280.7064569603      7.91E-09 Convergence criterion met
 Total energy in the final basis set = -2280.70645696
   10   -2280.7064563559      4.75E-09 Convergence criterion met
 Total energy in the final basis set = -2280.70645636
   10   -2280.7065068480      6.00E-09 Convergence criterion met
 Total energy in the final basis set = -2280.70650685
    9   -2280.7065252313      9.13E-09 Convergence criterion met
 Total energy in the final basis set = -2280.70652523
    8   -2280.7065409691      9.21E-09 Convergence criterion met
 Total energy in the final basis set = -2280.70654097

             Standard Nuclear Orientation (Angstroms)
    I     Atom           X                Y                Z
 ----------------------------------------------------------------
    1      C       2.5718692487    -1.6069815135     0.3304994910
    2      C       3.5406767138    -1.3043154304    -0.7154396896
    3      B       4.5248626558    -2.3845971777    -1.1953121196
    4      C       4.5575445601    -3.7303545333    -0.4545361195
    5      C       3.5667855040    -4.0444003219     0.5594623126
    6      B       2.5169865483    -3.0020416379     0.9770253780
    7      C       5.5008152213    -4.7029037710    -0.8235747934
    8      C       5.4647038887    -5.9524149316    -0.2583648845
    9      C       4.4395874728    -6.2833960039     0.7125775603
   10      C       3.5273662792    -5.3353150437     1.1066938093
   11      C       1.6166116343    -0.6444230710     0.6784322433
   12      C       1.5878694656     0.5716752795     0.0377588624
   13      C       2.5701984091     0.8864593887    -0.9866851366
   14      C       3.5125330317    -0.0473189639    -1.3418209489
   15      C       7.2987335356    -7.4743256627    -1.3242331352
   16      C       7.7629882764    -8.8062527046    -1.3269935374
   17      C       7.1923659785    -9.7924378964    -0.5534070188
   18      C       6.0975925631    -9.4905807410     0.2910460711
   19      C       5.6718443086    -8.1652949514     0.2912068360
   20      C       6.2433277930    -7.1504723850    -0.5054063123
   21      C       5.3630295662   -10.3819120110     1.1095777567
   22      C       4.2893025139    -9.9259111490     1.8421891436
   23      C       3.8740152733    -8.5784086700     1.8219602907
   24      C       4.5741254686    -7.6884522286     1.0407164332
   25      C       2.0686447665     4.1857416146    -2.8339787680
   26      C       2.7435151690     2.9857597404    -2.5283616033
   27      C       2.2362571382     2.1877563207    -1.5303702489
   28      C       1.0671949468     2.6094053521    -0.8592097406
   29      C       0.3672347447     3.7728854364    -1.1607852120
   30      C       0.9171537141     4.5778924683    -2.1869735840
   31      C       0.6448317708     1.6620204297     0.0999102319
   32      C      -0.5216949603     1.8931183446     0.7919404718
   33      C      -1.2424833735     3.0702152911     0.5107473594
   34      C      -0.8262604531     3.9878105579    -0.4299400048
   35      C       7.3715971754    -1.2780492530    -3.5992825507
   36      C       6.6004440480    -1.4459485589    -2.4486960712
   37      C       5.4114319372    -2.1771331344    -2.4799351448
   38      C       5.0133797467    -2.7484986132    -3.7046407892
   39      C       5.7838233784    -2.5743536299    -4.8412554890
   40      C       6.9634483731    -1.8378935431    -4.8005638747
   41      C       7.1233787475    -0.8778069760    -1.1549142207
   42      C       3.7175595143    -3.5119261127    -3.8367331609
   43      O       7.6334216654    -1.7254066752    -5.9676009823
   44      C       8.8279858568    -0.9928844306    -5.9849803169
   45      C       0.5907845968    -3.7944397073     4.2498728390
   46      C       1.6010839347    -3.4273999768     3.3769041646
   47      C       1.3723964497    -3.3908200687     1.9897811218
   48      C       0.1023518336    -3.7409005301     1.5215425937
   49      C      -0.9105797279    -4.1059335231     2.4080221759
   50      C      -0.6719403227    -4.1341505250     3.7735566478
   51      C       2.9294030557    -3.0043819785     3.9465423033
   52      C      -0.2063480255    -3.8071428060     0.0454220776
   53      O      -1.5910830921    -4.4733858382     4.7030335478
   54      C      -2.8822022485    -4.8099871614     4.2736529204
   55      H       6.2303524218    -4.4699788450    -1.5907999391
   56      H       2.7544477403    -5.5844144360     1.8250895976
   57      H       0.8728669648    -0.8855418885     1.4299150207
   58      H       4.2162346820     0.1570001130    -2.1409445906
   59      H       7.7667025599    -6.7408447085    -1.9679231360
   60      H       8.5927803077    -9.0632183965    -1.9723924176
   61      H       7.5749872979   -10.8045613847    -0.6015661975
   62      H       5.6372167443   -11.4289188026     1.1511910748
   63      H       3.7364892460   -10.6282385753     2.4525061421
   64      H       3.0145041571    -8.2728754089     2.4047403071
   65      H       2.4643087237     4.8139025680    -3.6213201381
   66      H       3.6276415423     2.7065675726    -3.0868324152
   67      H       0.4256877041     5.4991223762    -2.4741080382
   68      H      -0.8978332351     1.1907874023     1.5248374533
   69      H      -2.1639464236     3.2539093079     1.0477250639
   70      H      -1.4233100497     4.8714241666    -0.6183723870
   71      H       8.2887439068    -0.7057786879    -3.5301451612
   72      H       5.4715520255    -3.0094784861    -5.7840488160
   73      H       7.6799913922     0.0420076355    -1.3538180611
   74      C       8.0266794489    -1.8647563905    -0.4180085672
   75      H       6.2943131558    -0.5940270652    -0.5019422562
   76      H       3.8041683146    -4.2276154170    -4.6580841639
   77      C       2.5212659102    -2.5982203048    -4.0960774241
   78      H       3.5264257858    -4.1095810560    -2.9421914476
   79      H       9.1975088086    -1.0235024678    -7.0080577003
   80      H       9.5910346156    -1.4236186097    -5.3280447421
   81      H       8.6783604857     0.0541832921    -5.7015134210
   82      H       0.7701476079    -3.8167605335     5.3187894940
   83      H      -1.8803586282    -4.3675416358     2.0016662122
   84      H       3.7415366206    -3.3080498037     3.2813416119
   85      H       3.1044991210    -3.5222187020     4.8927717181
   86      C       2.9997234249    -1.4966855970     4.1746514765
   87      H       0.3994018074    -3.0876960916    -0.5098659522
   88      H      -1.2460773327    -3.5134251316    -0.1235043899
   89      C       0.0217647029    -5.2034306510    -0.5305054689
   90      H      -3.4586722554    -5.0386024395     5.1678057643
   91      H      -3.3738160299    -3.9859070908     3.7456663317
   92      H      -2.8894669789    -5.6903810526     3.6223311270
   93      H       2.6634405566    -2.0151952389    -5.0065534718
   94      H       2.3696777280    -1.8970824158    -3.2753375045
   95      H       1.6049806515    -3.1794695466    -4.2083048639
   96      H       1.0619550134    -5.5099425241    -0.4180766513
   97      H      -0.2206427197    -5.2337854895    -1.5936653223
   98      H      -0.5976011511    -5.9446580946    -0.0239460971
   99      H       2.8880635061    -0.9504032000     3.2379473565
  100      H       3.9561943799    -1.2098130886     4.6131141419
  101      H       2.2073782407    -1.1666425387     4.8472199038
  102      H       8.8719599505    -2.1624631502    -1.0397591897
  103      H       7.4829245920    -2.7691762295    -0.1441368758
  104      H       8.4220366884    -1.4275596400     0.4996078248
 ----------------------------------------------------------------

    8   -2280.7065443817      7.03E-09 Convergence criterion met
 Total energy in the final basis set = -2280.70654438

         TDDFT/TDA Excitation Energies
 ---------------------------------------------------

 Excited state   1: excitation energy (eV) =    1.9999
 Total energy for state  1:                 -2280.63304990 au
    Multiplicity: Triplet
    Trans. Mom.:  0.0000 X   0.0000 Y   0.0000 Z
    Strength   :     0.0000000000
    D(191) --> V(  2) amplitude = -0.2487
    D(196) --> V(  1) amplitude = -0.2497
    D(197) --> V(  1) amplitude =  0.7370
    D(198) --> V(  1) amplitude =  0.4989

 Excited state   2: excitation energy (eV) =    2.3710
 Total energy for state  2:                 -2280.61941052 au
    Multiplicity: Triplet
    Trans. Mom.:  0.0000 X   0.0000 Y   0.0000 Z
    Strength   :     0.0000000000
    D(194) --> V(  2) amplitude =  0.4662
    D(195) --> V(  1) amplitude = -0.7495
    D(198) --> V(  1) amplitude =  0.2321

 Excited state   3: excitation energy (eV) =    2.4289
 Total energy for state  3:                 -2280.61728374 au
    Multiplicity: Triplet
    Trans. Mom.:  0.0000 X   0.0000 Y   0.0000 Z
    Strength   :     0.0000000000
    D(194) --> V(  1) amplitude = -0.6765
    D(194) --> V(  4) amplitude =  0.2155
    D(195) --> V(  2) amplitude =  0.5205
    D(196) --> V(  1) amplitude =  0.2290

 ---------------------------------------------------

 Final energy is   -2280.63304990498
 **  OPTIMIZATION CONVERGED  **

                    Orbital Energies (a.u.)
 --------------------------------------------------------------

 Alpha MOs
 -- Occupied --
-19.522 -19.522 -10.498 -10.498 -10.488 -10.488 -10.464 -10.463
-10.463 -10.463 -10.463 -10.462 -10.462 -10.461 -10.461 -10.461
-10.461 -10.460 -10.460 -10.460 -10.459 -10.458 -10.458 -10.458
-10.458 -10.458 -10.458 -10.458 -10.450 -10.449 -10.448 -10.448
-10.447 -10.447 -10.446 -10.445 -10.445 -10.444 -10.432 -10.432
-10.432 -10.431 -10.431 -10.431 -10.431 -10.430 -10.429 -10.428
-10.426 -10.425 -10.419 -10.417 -10.415 -10.414 -10.414 -10.414
 -6.940  -6.939  -1.180  -1.180  -1.012  -1.011  -0.957  -0.953
 -0.951  -0.950  -0.932  -0.931  -0.903  -0.894  -0.885  -0.885
 -0.864  -0.861  -0.854  -0.853  -0.846  -0.845  -0.819  -0.819
 -0.813  -0.811  -0.810  -0.797  -0.797  -0.795  -0.772  -0.771
 -0.731  -0.730  -0.727  -0.716  -0.707  -0.707  -0.700  -0.699
 -0.687  -0.680  -0.676  -0.664  -0.653  -0.644  -0.640  -0.639
 -0.627  -0.627  -0.596  -0.592  -0.588  -0.588  -0.581  -0.581
 -0.581  -0.574  -0.573  -0.560  -0.559  -0.540  -0.540  -0.534
 -0.533  -0.533  -0.525  -0.521  -0.513  -0.506  -0.502  -0.501
 -0.499  -0.499  -0.497  -0.494  -0.490  -0.489  -0.485  -0.482
 -0.481  -0.480  -0.479  -0.478  -0.478  -0.478  -0.476  -0.463
 -0.459  -0.457  -0.456  -0.454  -0.451  -0.449  -0.441  -0.435
 -0.432  -0.431  -0.428  -0.426  -0.425  -0.425  -0.420  -0.413
 -0.410  -0.409  -0.406  -0.404  -0.398  -0.397  -0.397  -0.394
 -0.393  -0.393  -0.390  -0.388  -0.387  -0.383  -0.378  -0.378
 -0.372  -0.368  -0.360  -0.359  -0.355  -0.355  -0.351  -0.343
 -0.337  -0.333  -0.318  -0.312  -0.294  -0.293  -0.274  -0.271
 -0.271  -0.259  -0.252  -0.248  -0.245  -0.245

          Ground-State Mulliken Net Atomic Charges

     Atom                 Charge (a.u.)
  ----------------------------------------
      1 C                    -0.150490
      2 C                    -0.156929
      3 B                     0.637695
      4 C                    -0.149347
      5 C                    -0.153253
      6 B                     0.641044
      7 C                    -0.387274
      8 C                     0.092926
      9 C                     0.087611
     10 C                    -0.385383
     11 C                    -0.384437
     12 C                     0.085485
     13 C                     0.091076
     14 C                    -0.382707
     15 C                    -0.374901
     16 C                    -0.204849
     17 C                    -0.332495
     18 C                     0.247449
     19 C                    -0.069473
     20 C                     0.198184
     21 C                    -0.331971
     22 C                    -0.204719
     23 C                    -0.374522
     24 C                     0.199585
     25 C                    -0.204346
     26 C                    -0.373605
     27 C                     0.197398
     28 C                    -0.069405
     29 C                     0.248199
     30 C                    -0.332694
     31 C                     0.195875
     32 C                    -0.369708
     33 C                    -0.205203
     34 C                    -0.331937
     35 C                    -0.422767
     36 C                     0.087948
     37 C                    -0.223755
     38 C                     0.075871
     39 C                    -0.379357
     40 C                     0.402718
     41 C                    -0.546852
     42 C                    -0.550946
     43 O                    -0.453572
     44 C                    -0.405300
     45 C                    -0.375088
     46 C                     0.089636
     47 C                    -0.228404
     48 C                     0.072165
     49 C                    -0.425373
     50 C                     0.402296
     51 C                    -0.547928
     52 C                    -0.551435
     53 O                    -0.453789
     54 C                    -0.405707
     55 H                     0.239028
     56 H                     0.238206
     57 H                     0.237369
     58 H                     0.233836
     59 H                     0.221745
     60 H                     0.226192
     61 H                     0.220007
     62 H                     0.219908
     63 H                     0.226270
     64 H                     0.222292
     65 H                     0.226098
     66 H                     0.221175
     67 H                     0.220210
     68 H                     0.221987
     69 H                     0.226224
     70 H                     0.220032
     71 H                     0.221034
     72 H                     0.219713
     73 H                     0.224258
     74 C                    -0.643518
     75 H                     0.252214
     76 H                     0.230102
     77 C                    -0.645255
     78 H                     0.257395
     79 H                     0.238796
     80 H                     0.202595
     81 H                     0.202778
     82 H                     0.219341
     83 H                     0.221484
     84 H                     0.252051
     85 H                     0.229028
     86 C                    -0.645152
     87 H                     0.259179
     88 H                     0.225647
     89 C                    -0.641616
     90 H                     0.238840
     91 H                     0.202999
     92 H                     0.203005
     93 H                     0.217758
     94 H                     0.245413
     95 H                     0.214957
     96 H                     0.243289
     97 H                     0.216750
     98 H                     0.212559
     99 H                     0.241289
    100 H                     0.217890
    101 H                     0.217619
    102 H                     0.213438
    103 H                     0.241176
    104 H                     0.219126
  ----------------------------------------
  Sum of atomic charges =    -0.000000

                    Cartesian Multipole Moments
 -----------------------------------------------------------------
    Charge (ESU x 10^10)
                -0.0000
    Dipole Moment (Debye)
         X      -0.5692      Y       0.1283      Z      -1.0206
       Tot       1.1756
    Quadrupole Moments (Debye-Ang)
        XX    -294.6145     XY      -1.9733     YY    -293.8072
        XZ     -23.4962     YZ     -11.7378     ZZ    -333.7337

 Total job time:  85880.64s(wall), 534673.53s(cpu)
        *  Thank you very much for using Q-Chem.  Have a nice day.  *
