 Q-Chem 5.0, Q-Chem, Inc., Pleasanton, CA (2017)
 Q-Chem 5.0.1 for Intel X86 EM64T Linux

User input:
--------------------------------------------------------------
$rem
threads 8
jobtype	opt
method PBEh-3c
basis def2-mSVP
mem_static	1024
mem_total	14000
sym_ignore	true
cis_n_roots             3
cis_singlets            false
cis_triplets		true
rpa                     false
cis_state_deriv         2
state_follow		true
$end

$molecule
read incoords.mol
$end

--------------------------------------------------------------

   15   -2280.7030709993      7.01E-09 Convergence criterion met
 Total energy in the final basis set = -2280.70307100
   13   -2280.7090272628      6.12E-09 Convergence criterion met
 Total energy in the final basis set = -2280.70902726
   13   -2280.7054112447      6.70E-09 Convergence criterion met
 Total energy in the final basis set = -2280.70541124
   13   -2280.7061548140      5.32E-09 Convergence criterion met
 Total energy in the final basis set = -2280.70615481
   13   -2280.7025668812      6.93E-09 Convergence criterion met
 Total energy in the final basis set = -2280.70256688
   13   -2280.7035330064      4.41E-09 Convergence criterion met
 Total energy in the final basis set = -2280.70353301
   12   -2280.7057612056      4.89E-09 Convergence criterion met
 Total energy in the final basis set = -2280.70576121
   12   -2280.7056987377      7.32E-09 Convergence criterion met
   11   -2280.7069134983      6.45E-09 Convergence criterion met
 Total energy in the final basis set = -2280.70691350
   12   -2280.7070793052      5.81E-09 Convergence criterion met
 Total energy in the final basis set = -2280.70707931
   11   -2280.7076641912      6.11E-09 Convergence criterion met
 Total energy in the final basis set = -2280.70766419
   10   -2280.7078752590      9.34E-09 Convergence criterion met
 Total energy in the final basis set = -2280.70787526
   10   -2280.7080685045      8.02E-09 Convergence criterion met
 Total energy in the final basis set = -2280.70806850
    9   -2280.7081293972      8.30E-09 Convergence criterion met
 Total energy in the final basis set = -2280.70812940

             Standard Nuclear Orientation (Angstroms)
    I     Atom           X                Y                Z
 ----------------------------------------------------------------
    1      C       0.0614012915    -0.4147052930     0.0915276750
    2      C       0.0620070880    -0.3970740553     1.5002796216
    3      H       1.0100082167    -0.3938904900     2.0266184767
    4      C      -1.1206902846    -0.3840324237     2.1974569419
    5      C      -2.3848818407    -0.3854045978     1.4689930128
    6      C      -2.4035745731    -0.3974293358     0.0916220647
    7      H      -3.3476102505    -0.3970347321    -0.4422813183
    8      C      -1.2111477675    -0.4069321887    -0.6297573631
    9      C      -1.4393559088    -0.3668003236     3.6129459501
   10      C      -0.7152860036    -0.3577242507     4.7815152377
   11      H       0.3669211964    -0.3633808338     4.7817971196
   12      C      -2.8495790259    -0.3589590899     3.7014289048
   13      C      -3.5670096953    -0.3422405493     4.8922395688
   14      C      -3.4558465650    -0.3698520304     2.4230184601
   15      C      -4.8323428530    -0.3633150043     2.3320865749
   16      H      -5.3400145140    -0.3703401102     1.3758923986
   17      C      -1.4179972946    -0.3407410691     6.0043563068
   18      H      -0.8487539251    -0.3335253076     6.9245095512
   19      C      -2.7939565948    -0.3329832270     6.0765298488
   20      H      -3.2827875400    -0.3198127742     7.0426019982
   21      C      -5.5756861986    -0.3467906198     3.5252276966
   22      H      -6.6562283321    -0.3416759719     3.4638249014
   23      C      -4.9790255676    -0.3364667862     4.7699218871
   24      H      -5.5973955193    -0.3237276589     5.6587892977
   25      B      -1.2523400117    -0.4036456559    -2.1654137274
   26      C       0.0831732395    -0.4179193047    -2.9265773636
   27      C       0.0765544542    -0.4214667453    -4.3254910240
   28      H      -0.8694763797    -0.4006797280    -4.8547894877
   29      C       1.2578730024    -0.4566524588    -5.0234886196
   30      C       2.5250390722    -0.4941629371    -4.3331777858
   31      C       2.5495320856    -0.4867453805    -2.9608896819
   32      H       3.4925927730    -0.5197940273    -2.4274971750
   33      C       1.3477764946    -0.4444541208    -2.2248457021
   34      C       1.5138333203    -0.4749929432    -6.4468750724
   35      C       0.7245851393    -0.4571099761    -7.5725588449
   36      H      -0.3556141322    -0.4162268937    -7.5110695376
   37      C       2.9147491769    -0.5278299558    -6.5959420148
   38      C       3.5581330145    -0.5664043459    -7.8296692356
   39      C       3.5717274914    -0.5419462717    -5.3473248421
   40      C       4.9431978136    -0.5983338449    -5.3405225771
   41      H       5.5085718383    -0.6149794999    -4.4178316248
   42      C       1.3539785680    -0.4935893306    -8.8338789039
   43      H       0.7360411625    -0.4793919702    -9.7223725784
   44      C       2.7231103733    -0.5473283362    -8.9735503484
   45      H       3.1618286233    -0.5751065772    -9.9634175898
   46      C       5.6241141209    -0.6375963317    -6.5778304362
   47      H       6.7052203698    -0.6823523132    -6.5687382509
   48      C       4.9704484669    -0.6228501864    -7.7890331153
   49      H       5.5386885574    -0.6558533948    -8.7104326259
   50      B       1.3887420467    -0.4404757220    -0.6866691274
   51      C      -2.6246065897    -0.4004460248    -2.9462458133
   52      C      -3.3335113250     0.7929110185    -3.1726871993
   53      C      -4.5323302534     0.7822346583    -3.8659603496
   54      H      -5.0727016981     1.7065139677    -4.0375128571
   55      C      -5.0614558669    -0.4064704823    -4.3575821309
   56      O      -6.2347363530    -0.3102325806    -5.0194423227
   57      C      -4.3721603919    -1.5906681726    -4.1458703660
   58      H      -4.7537572607    -2.5360368633    -4.5132983393
   59      C      -3.1657201292    -1.5888094303    -3.4467102506
   60      C      -6.8103789716    -1.4815670187    -5.5316487708
   61      H      -7.7377670596    -1.1863216256    -6.0183658526
   62      H      -7.0466605555    -2.2076997097    -4.7466538359
   63      H      -6.1706543197    -1.9711013422    -6.2735441888
   64      C      -2.7798482900     2.1230672766    -2.7325817099
   65      H      -2.1715329046     2.0059989890    -1.8325109319
   66      H      -3.6027776800     2.7870797078    -2.4555122770
   67      C      -2.5010497483    -2.9198496468    -3.1993734378
   68      H      -1.4243471965    -2.7915944786    -3.0681124783
   69      H      -2.6209372093    -3.5574476762    -4.0796575124
   70      C      -1.9457245808     2.7845140510    -3.8274824244
   71      H      -1.0836195090     2.1719386677    -4.0921462161
   72      H      -1.5741737552     3.7577743046    -3.5047910613
   73      H      -2.5359775886     2.9326822044    -4.7324180394
   74      C      -3.0763835291    -3.6319842178    -1.9773681063
   75      H      -2.9273242620    -3.0407366204    -1.0736219082
   76      H      -2.5976525800    -4.5999388683    -1.8243643995
   77      H      -4.1481132019    -3.8015336760    -2.0883441272
   78      C       2.7666168701    -0.4695798248     0.0708487544
   79      C       3.5281405516     0.6928582831     0.2201047201
   80      C       4.7462595068     0.6663081788     0.8981851709
   81      H       5.3024158174     1.5904375687     0.9975552766
   82      C       5.2236199197    -0.5230826427     1.4303140198
   83      O       6.3885268164    -0.6491678053     2.1013366914
   84      C       4.4751015833    -1.6863788109     1.2792516841
   85      H       4.8575834702    -2.6122141002     1.6941580305
   86      C       3.2616069196    -1.6684888396     0.6130787304
   87      C       7.1669924740     0.4979539124     2.3061446117
   88      H       8.0402997490     0.1849465927     2.8748326273
   89      H       7.5077547191     0.9442611418     1.3658072823
   90      H       6.6355184631     1.2647536032     2.8797044484
   91      C       3.0246104026     2.0172550187    -0.2958133868
   92      H       2.4795246655     1.8792187951    -1.2328714085
   93      H       3.8733350781     2.6625481756    -0.5376224223
   94      C       2.5139071212    -2.9668386581     0.4373503206
   95      H       1.4358942168    -2.7969603090     0.4979987713
   96      H       2.7571972793    -3.6397242868     1.2634988222
   97      C       2.8382275472    -3.6596246133    -0.8847557842
   98      H       2.5466834734    -3.0478737740    -1.7385842669
   99      H       3.9066356632    -3.8599723181    -0.9708379913
  100      H       2.3104872919    -4.6108077539    -0.9660869678
  101      C       2.1208611442     2.7299293870     0.7079746401
  102      H       1.2263199108     2.1444282096     0.9214939433
  103      H       2.6385055528     2.8983327226     1.6529927679
  104      H       1.7969240800     3.6981999040     0.3242915562
 ----------------------------------------------------------------

    8   -2280.7081807490      8.12E-09 Convergence criterion met
 Total energy in the final basis set = -2280.70818075

         TDDFT/TDA Excitation Energies
 ---------------------------------------------------

 Excited state   1: excitation energy (eV) =    1.9892
 Total energy for state  1:                 -2280.63508046 au
    Multiplicity: Triplet
    Trans. Mom.:  0.0000 X   0.0000 Y   0.0000 Z
    Strength   :     0.0000000000
    D(191) --> V(  2) amplitude = -0.2440
    D(197) --> V(  1) amplitude =  0.7829
    D(198) --> V(  1) amplitude =  0.4783

 Excited state   2: excitation energy (eV) =    2.3624
 Total energy for state  2:                 -2280.62136310 au
    Multiplicity: Triplet
    Trans. Mom.:  0.0000 X   0.0000 Y   0.0000 Z
    Strength   :     0.0000000000
    D(194) --> V(  1) amplitude =  0.3314
    D(194) --> V(  2) amplitude =  0.4237
    D(195) --> V(  1) amplitude =  0.7105

 Excited state   3: excitation energy (eV) =    2.4226
 Total energy for state  3:                 -2280.61915295 au
    Multiplicity: Triplet
    Trans. Mom.:  0.0000 X   0.0000 Y   0.0000 Z
    Strength   :     0.0000000000
    D(191) --> V(  1) amplitude = -0.2326
    D(194) --> V(  1) amplitude =  0.5667
    D(195) --> V(  1) amplitude = -0.3543
    D(195) --> V(  2) amplitude =  0.4046
    D(197) --> V(  2) amplitude =  0.2897

 ---------------------------------------------------

 Final energy is   -2280.63508045975
 **  OPTIMIZATION CONVERGED  **

                    Orbital Energies (a.u.)
 --------------------------------------------------------------

 Alpha MOs
 -- Occupied --
-19.523 -19.522 -10.498 -10.498 -10.488 -10.488 -10.464 -10.464
-10.463 -10.463 -10.463 -10.462 -10.462 -10.462 -10.462 -10.461
-10.461 -10.461 -10.460 -10.460 -10.459 -10.458 -10.458 -10.458
-10.458 -10.458 -10.457 -10.457 -10.450 -10.449 -10.448 -10.447
-10.447 -10.446 -10.446 -10.445 -10.445 -10.444 -10.433 -10.432
-10.431 -10.431 -10.430 -10.430 -10.430 -10.430 -10.430 -10.428
-10.426 -10.425 -10.418 -10.416 -10.416 -10.415 -10.414 -10.412
 -6.940  -6.939  -1.180  -1.179  -1.012  -1.012  -0.957  -0.953
 -0.951  -0.950  -0.932  -0.931  -0.903  -0.894  -0.885  -0.884
 -0.864  -0.861  -0.854  -0.853  -0.847  -0.845  -0.819  -0.818
 -0.814  -0.811  -0.810  -0.797  -0.797  -0.795  -0.772  -0.771
 -0.731  -0.730  -0.727  -0.716  -0.708  -0.706  -0.700  -0.699
 -0.687  -0.680  -0.676  -0.664  -0.653  -0.644  -0.640  -0.639
 -0.627  -0.627  -0.596  -0.592  -0.588  -0.587  -0.582  -0.581
 -0.580  -0.574  -0.573  -0.560  -0.559  -0.540  -0.540  -0.534
 -0.533  -0.533  -0.525  -0.521  -0.512  -0.506  -0.502  -0.501
 -0.499  -0.498  -0.496  -0.494  -0.489  -0.489  -0.485  -0.482
 -0.481  -0.480  -0.479  -0.478  -0.478  -0.478  -0.476  -0.463
 -0.459  -0.457  -0.456  -0.454  -0.451  -0.448  -0.441  -0.435
 -0.433  -0.431  -0.428  -0.426  -0.425  -0.424  -0.420  -0.413
 -0.410  -0.409  -0.406  -0.403  -0.398  -0.397  -0.397  -0.394
 -0.393  -0.393  -0.390  -0.388  -0.387  -0.383  -0.379  -0.377
 -0.372  -0.367  -0.360  -0.359  -0.356  -0.354  -0.351  -0.343
 -0.337  -0.333  -0.318  -0.312  -0.294  -0.293  -0.274  -0.271
 -0.271  -0.259  -0.252  -0.247  -0.245  -0.245

          Ground-State Mulliken Net Atomic Charges

     Atom                 Charge (a.u.)
  ----------------------------------------
      1 C                    -0.154850
      2 C                    -0.390688
      3 H                     0.237891
      4 C                     0.102231
      5 C                     0.075572
      6 C                    -0.382999
      7 H                     0.235899
      8 C                    -0.148393
      9 C                     0.203668
     10 C                    -0.378400
     11 H                     0.222475
     12 C                    -0.074496
     13 C                     0.251279
     14 C                     0.197777
     15 C                    -0.366278
     16 H                     0.222743
     17 C                    -0.204030
     18 H                     0.226353
     19 C                    -0.334898
     20 H                     0.220508
     21 C                    -0.205848
     22 H                     0.226696
     23 C                    -0.331437
     24 H                     0.220102
     25 B                     0.646492
     26 C                    -0.149500
     27 C                    -0.385658
     28 H                     0.237778
     29 C                     0.081915
     30 C                     0.109449
     31 C                    -0.392857
     32 H                     0.238625
     33 C                    -0.154106
     34 C                     0.198140
     35 C                    -0.372761
     36 H                     0.221303
     37 C                    -0.069730
     38 C                     0.250527
     39 C                     0.202079
     40 C                    -0.383386
     41 H                     0.221298
     42 C                    -0.205761
     43 H                     0.226090
     44 C                    -0.331319
     45 H                     0.219582
     46 C                    -0.203265
     47 H                     0.225707
     48 C                    -0.335816
     49 H                     0.220067
     50 B                     0.644686
     51 C                    -0.232417
     52 C                     0.079850
     53 C                    -0.373126
     54 H                     0.219183
     55 C                     0.401827
     56 O                    -0.453987
     57 C                    -0.423604
     58 H                     0.221650
     59 C                     0.077770
     60 C                    -0.405800
     61 H                     0.238858
     62 H                     0.203170
     63 H                     0.203015
     64 C                    -0.550645
     65 H                     0.253102
     66 H                     0.229964
     67 C                    -0.550971
     68 H                     0.257322
     69 H                     0.226411
     70 C                    -0.643979
     71 H                     0.241136
     72 H                     0.217312
     73 H                     0.216850
     74 C                    -0.639977
     75 H                     0.240328
     76 H                     0.217779
     77 H                     0.211975
     78 C                    -0.222518
     79 C                     0.082805
     80 C                    -0.428928
     81 H                     0.221133
     82 C                     0.401985
     83 O                    -0.453665
     84 C                    -0.379124
     85 H                     0.219175
     86 C                     0.081284
     87 C                    -0.405705
     88 H                     0.238565
     89 H                     0.202667
     90 H                     0.203257
     91 C                    -0.550484
     92 H                     0.255948
     93 H                     0.224523
     94 C                    -0.550386
     95 H                     0.253605
     96 H                     0.228901
     97 C                    -0.647068
     98 H                     0.244594
     99 H                     0.217299
    100 H                     0.216916
    101 C                    -0.645219
    102 H                     0.245801
    103 H                     0.213678
    104 H                     0.217511
  ----------------------------------------
  Sum of atomic charges =     0.000000

                    Cartesian Multipole Moments
 -----------------------------------------------------------------
    Charge (ESU x 10^10)
                 0.0000
    Dipole Moment (Debye)
         X      -0.0404      Y      -0.0637      Z      -0.2325
       Tot       0.2445
    Quadrupole Moments (Debye-Ang)
        XX    -290.6752     XY      16.6126     YY    -337.9716
        XZ      -1.9430     YZ      10.5101     ZZ    -287.9215

 Total job time:  51342.38s(wall), 300427.70s(cpu)
        *  Thank you very much for using Q-Chem.  Have a nice day.  *
