 Q-Chem 5.0, Q-Chem, Inc., Pleasanton, CA (2017)
 Q-Chem 5.0.1 for Intel X86 EM64T Linux

User input:
--------------------------------------------------------------
$rem
threads 8
jobtype	sp
method PBEh-3c
basis def2-mSVP
mem_static	1024
mem_total	8000
sym_ignore	true
unrestricted true
scf_convergence	9
solvent_method	pcm
$end

$molecule
read moms1opt_tol.mol
$end

$solvent
dielectric	2.75
$end

$pcm
theory iefpcm
$end
--------------------------------------------------------------

   17   -1855.5358166165      6.07E-10 Convergence criterion met
 Total energy in the final basis set = -1855.53581662
 Total job time:  1536.82s(wall), 4475.87s(cpu)
        *  Thank you very much for using Q-Chem.  Have a nice day.  *
 Q-Chem 5.0, Q-Chem, Inc., Pleasanton, CA (2017)
 Q-Chem 5.0.1 for Intel X86 EM64T Linux

User input:
--------------------------------------------------------------

$rem
threads 8
jobtype opt
method PBEh-3c
basis def2-mSVP
scf_guess	read
mem_static      1024
mem_total       8000
sym_ignore      true
unrestricted true
mom_start       1
scf_algorithm	diis
scf_max_cycles	250
solvent_method	pcm
geom_opt_tol_energy 25
geom_opt_tol_gradient 75
$end

$solvent
dielectric      2.75
$end

$pcm
theory iefpcm
$end

$occupied
1 2 3 4 5 6 7 8 9 10 11 12 13 14 15 16 17 18 19 20 21 22 23 24 25 26 27 28 29 30 31 32 33 34 35 36 37 38 39 40 41 42 43 44 45 46 47 48 49 50 51 52 53 54 55 56 57 58 59 60 61 62 63 64 65 66 67 68 69 70 71 72 73 74 75 76 77 78 79 80 81 82 83 84 85 86 87 88 89 90 91 92 93 94 95 96 97 98 99 100 101 102 103 104 105 106 107 108 109 110 111 112 113 114 115 116 117 118 119 120 121 122 123 124 125 126 127 128 129 130 131 132 133 134 135 136 137 138 139 140 141 142 143 144 145 146 147 148 149 150 151 152 153 154 155 156 157 159
1 2 3 4 5 6 7 8 9 10 11 12 13 14 15 16 17 18 19 20 21 22 23 24 25 26 27 28 29 30 31 32 33 34 35 36 37 38 39 40 41 42 43 44 45 46 47 48 49 50 51 52 53 54 55 56 57 58 59 60 61 62 63 64 65 66 67 68 69 70 71 72 73 74 75 76 77 78 79 80 81 82 83 84 85 86 87 88 89 90 91 92 93 94 95 96 97 98 99 100 101 102 103 104 105 106 107 108 109 110 111 112 113 114 115 116 117 118 119 120 121 122 123 124 125 126 127 128 129 130 131 132 133 134 135 136 137 138 139 140 141 142 143 144 145 146 147 148 149 150 151 152 153 154 155 156 157 158
$end

$molecule
read
$end

--------------------------------------------------------------

   19   -1855.4356368608      6.59E-09 Convergence criterion met
 Total energy in the final basis set = -1855.43563686
   16   -1855.4356802935      9.58E-09 Convergence criterion met
 Total energy in the final basis set = -1855.43568029
   17   -1855.4355698327      6.38E-09 Convergence criterion met
 Total energy in the final basis set = -1855.43556983
   16   -1855.4358604620      9.57E-09 Convergence criterion met
 Total energy in the final basis set = -1855.43586046
   16   -1855.4358594867      9.11E-09 Convergence criterion met
 Total energy in the final basis set = -1855.43585949
   17   -1855.4358681975      4.57E-09 Convergence criterion met
 Total energy in the final basis set = -1855.43586820
   17   -1855.4358682299      4.57E-09 Convergence criterion met
 Total energy in the final basis set = -1855.43586823
   17   -1855.4358790141      4.52E-09 Convergence criterion met
 Total energy in the final basis set = -1855.43587901
   17   -1855.4358824248      6.17E-09 Convergence criterion met
 Total energy in the final basis set = -1855.43588242

             Standard Nuclear Orientation (Angstroms)
    I     Atom           X                Y                Z
 ----------------------------------------------------------------
    1      N       0.0247227017     0.0882272594     0.0783696785
    2      C       0.0084590094     0.0127457494     1.4560003105
    3      C       1.1936667596     0.1075412961    -0.6525727125
    4      C       1.1963340178    -0.2390320288     2.1645877961
    5      C       1.1046443890    -0.3637343826     3.5433233107
    6      H       1.9912347890    -0.5902296890     4.1193870839
    7      C      -0.1000015681    -0.2104206716     4.2103965821
    8      H      -0.1335294023    -0.3129994556     5.2863802609
    9      C      -1.2608934425     0.0869811317     3.5000435615
   10      H      -2.1984452309     0.2355134676     4.0170509487
   11      C      -1.2138473850     0.1970598078     2.1329394455
   12      H      -2.1115722246     0.4413445989     1.5846301194
   13      C       2.4280574782    -0.0843961279    -0.0020539133
   14      C       3.5760064838    -0.0492116545    -0.7795174073
   15      H       4.5384010945    -0.2146554934    -0.3160667342
   16      C       3.5284612072     0.1762792695    -2.1457598702
   17      H       4.4459729407     0.2035099685    -2.7174908257
   18      C       2.3013604732     0.3517775238    -2.7796691505
   19      H       2.2479581265     0.5219693583    -3.8457924853
   20      C       1.1414374966     0.3049462285    -2.0488398790
   21      H       0.2007843741     0.4335831187    -2.5626306091
   22      C      -1.2326945235     0.0683210647    -0.6135097723
   23      C      -1.6971638680     1.1991828031    -1.2467870732
   24      H      -1.1103393482     2.1075387936    -1.1918647601
   25      C      -1.9455214029    -1.1205576308    -0.6553851825
   26      H      -1.5751175747    -2.0151245875    -0.1719902867
   27      C      -3.1529092682    -1.1166273730    -1.3174070137
   28      H      -3.7443952913    -2.0236687937    -1.3286967018
   29      C      -2.8835476863     1.1830674364    -1.9869175622
   30      C      -3.6488400339     0.0134387476    -1.9770978935
   31      C      -5.0265264024    -0.0805136323    -2.5653621638
   32      H      -5.5017187343    -0.9800888892    -2.1695962298
   33      H      -4.9838607588    -0.2101438802    -3.6501856207
   34      C       2.5172992892    -0.4285794778     1.4641163847
   35      C      -5.8730074168     1.1524782069    -2.2353217905
   36      H      -6.9268310361     0.8718532260    -2.1968861794
   37      H      -5.6166502140     1.4958133157    -1.2253560135
   38      C      -5.6866140358     2.2077956829    -3.2790170705
   39      C      -6.7792101522     2.6655954186    -3.9623330112
   40      H      -7.7638950049     2.3376508716    -3.6467066069
   41      C      -6.6968496664     3.5115876133    -5.0889077008
   42      C      -7.8565614270     3.9510384866    -5.7312419852
   43      N      -8.8301849590     4.3075348385    -6.2601327366
   44      C      -5.3713267104     3.8485448738    -5.5526610821
   45      C      -4.2666027274     3.3911226935    -4.8299969882
   46      H      -3.2943618356     3.7101635242    -5.1824704332
   47      C      -4.3640157875     2.5949489804    -3.7044337692
   48      C      -5.1643740873     4.6248883287    -6.7051141811
   49      N      -4.9879161337     5.2679168983    -7.6552739645
   50      C      -3.1249183458     2.4514891866    -2.8232558162
   51      C      -1.8594970944     2.6195106618    -3.6512652591
   52      C      -1.3814381973     1.7681600679    -4.6288228474
   53      H      -1.9293102651     0.8730465546    -4.8990644430
   54      C      -0.2018013617     2.1023636078    -5.2826247382
   55      H       0.1800435135     1.4595779473    -6.0655830346
   56      C       0.4798327173     3.2715322115    -4.9544990795
   57      H       1.3913670445     3.5241223076    -5.4805507918
   58      C      -0.0049428152     4.1251061868    -3.9727507823
   59      H       0.5247996447     5.0386648529    -3.7329033422
   60      C      -1.1835154596     3.7909967393    -3.3190934851
   61      C      -1.9330275281     4.4694000653    -2.2641660330
   62      C      -1.7006789656     5.6712092597    -1.6141725401
   63      H      -0.8442980518     6.2843352324    -1.8673427522
   64      C      -2.5948574439     6.0844981516    -0.6355109083
   65      H      -2.4337280307     7.0234748778    -0.1223737753
   66      C      -3.7034208085     5.3063716564    -0.3168403143
   67      H      -4.3964096753     5.6477342295     0.4412761616
   68      C      -3.9384083159     4.1028797174    -0.9698619549
   69      H      -4.8151717738     3.5148645963    -0.7292566598
   70      C      -3.0475861929     3.6898852797    -1.9421536427
   71      C       3.5851752569     0.4451357842     2.1422499162
   72      H       4.5602070423     0.3087431487     1.6785364370
   73      H       3.7001000540     0.1812941977     3.1917899285
   74      H       3.3223151361     1.5005414066     2.0817292398
   75      C       2.9035876877    -1.9211430316     1.5667087062
   76      H       3.8643447955    -2.1010671345     1.0845442712
   77      H       2.1590794557    -2.5556021957     1.0849693129
   78      H       2.9850290583    -2.2258728236     2.6100359834
 ----------------------------------------------------------------

   17   -1855.4358859927      6.29E-09 Convergence criterion met
 Total energy in the final basis set = -1855.43588599
 Final energy is   -1855.43588599266
 **  OPTIMIZATION CONVERGED  **

                    Orbital Energies (a.u.)
 --------------------------------------------------------------

 Alpha MOs
 -- Occupied --
-14.787 -14.593 -14.588 -10.557 -10.557 -10.526 -10.518 -10.516
-10.515 -10.499 -10.496 -10.496 -10.495 -10.494 -10.493 -10.492
-10.489 -10.487 -10.482 -10.481 -10.480 -10.480 -10.471 -10.465
-10.462 -10.459 -10.458 -10.455 -10.454 -10.454 -10.453 -10.453
-10.452 -10.449 -10.446 -10.445 -10.445 -10.445 -10.443 -10.440
-10.434 -10.433 -10.430 -10.429 -10.428 -10.424 -10.423  -1.163
 -1.022  -1.015  -1.012  -0.986  -0.971  -0.960  -0.959  -0.952
 -0.941  -0.914  -0.910  -0.909  -0.890  -0.877  -0.871  -0.867
 -0.859  -0.841  -0.838  -0.830  -0.811  -0.809  -0.807  -0.776
 -0.770  -0.767  -0.748  -0.727  -0.721  -0.716  -0.708  -0.689
 -0.678  -0.672  -0.669  -0.665  -0.662  -0.655  -0.650  -0.632
 -0.597  -0.590  -0.588  -0.583  -0.581  -0.576  -0.576  -0.565
 -0.555  -0.549  -0.548  -0.544  -0.539  -0.534  -0.531  -0.527
 -0.524  -0.514  -0.513  -0.506  -0.501  -0.496  -0.491  -0.489
 -0.486  -0.483  -0.483  -0.478  -0.473  -0.471  -0.469  -0.463
 -0.461  -0.455  -0.453  -0.450  -0.440  -0.436  -0.435  -0.428
 -0.427  -0.424  -0.418  -0.415  -0.414  -0.411  -0.405  -0.399
 -0.396  -0.393  -0.392  -0.387  -0.379  -0.377  -0.368  -0.350
 -0.342  -0.340  -0.335  -0.334  -0.332  -0.331  -0.323  -0.312
 -0.294  -0.289  -0.275  -0.264  -0.254  -0.114

 Beta MOs
 -- Occupied --
-14.799 -14.590 -14.584 -10.556 -10.555 -10.526 -10.519 -10.518
-10.518 -10.501 -10.500 -10.498 -10.498 -10.492 -10.491 -10.490
-10.487 -10.487 -10.482 -10.482 -10.481 -10.481 -10.471 -10.466
-10.463 -10.459 -10.458 -10.454 -10.454 -10.454 -10.453 -10.453
-10.452 -10.449 -10.446 -10.446 -10.445 -10.445 -10.442 -10.441
-10.434 -10.430 -10.430 -10.425 -10.425 -10.425 -10.421  -1.182
 -1.025  -1.019  -1.013  -0.988  -0.965  -0.963  -0.952  -0.951
 -0.937  -0.913  -0.910  -0.909  -0.893  -0.878  -0.872  -0.869
 -0.858  -0.843  -0.838  -0.825  -0.811  -0.809  -0.808  -0.776
 -0.773  -0.767  -0.746  -0.728  -0.723  -0.715  -0.709  -0.686
 -0.679  -0.674  -0.668  -0.668  -0.662  -0.655  -0.650  -0.633
 -0.602  -0.594  -0.592  -0.589  -0.582  -0.577  -0.577  -0.565
 -0.556  -0.552  -0.548  -0.544  -0.542  -0.537  -0.533  -0.526
 -0.525  -0.515  -0.513  -0.511  -0.506  -0.496  -0.496  -0.492
 -0.487  -0.484  -0.482  -0.478  -0.474  -0.472  -0.470  -0.467
 -0.461  -0.458  -0.451  -0.450  -0.448  -0.438  -0.433  -0.431
 -0.427  -0.422  -0.421  -0.416  -0.412  -0.410  -0.406  -0.398
 -0.395  -0.390  -0.388  -0.383  -0.374  -0.367  -0.360  -0.355
 -0.345  -0.341  -0.338  -0.336  -0.334  -0.332  -0.322  -0.314
 -0.297  -0.292  -0.287  -0.263  -0.255  -0.225

          Ground-State Mulliken Net Atomic Charges

     Atom                 Charge (a.u.)    Spin (a.u.)
  --------------------------------------------------------
      1 N                    -0.610054      -0.440309
      2 C                     0.289419       0.096677
      3 C                     0.298693       0.091788
      4 C                     0.195344      -0.219442
      5 C                    -0.307273       0.144382
      6 H                     0.258834      -0.006823
      7 C                    -0.200677      -0.242242
      8 H                     0.271357       0.012986
      9 C                    -0.243107       0.127144
     10 H                     0.273462      -0.005820
     11 C                    -0.260491      -0.176705
     12 H                     0.310487       0.009379
     13 C                     0.187854      -0.223480
     14 C                    -0.304729       0.146973
     15 H                     0.258086      -0.006954
     16 C                    -0.200619      -0.249461
     17 H                     0.270904       0.013353
     18 C                    -0.239308       0.128935
     19 H                     0.272849      -0.005867
     20 C                    -0.267842      -0.179577
     21 H                     0.321485       0.010008
     22 C                     0.138825       0.034831
     23 C                    -0.279652      -0.029791
     24 H                     0.293659       0.001211
     25 C                    -0.218625      -0.030615
     26 H                     0.260177       0.001635
     27 C                    -0.315424       0.014461
     28 H                     0.250778      -0.001626
     29 C                     0.219183       0.020342
     30 C                     0.071144      -0.022309
     31 C                    -0.512491       0.009825
     32 H                     0.242382      -0.001517
     33 H                     0.269004      -0.001966
     34 C                    -0.240713       0.036922
     35 C                    -0.544571      -0.014293
     36 H                     0.250312       0.000348
     37 H                     0.221538       0.012756
     38 C                     0.097598       0.165315
     39 C                    -0.337208      -0.090945
     40 H                     0.216588       0.003737
     41 C                    -0.011865       0.330505
     42 C                    -0.057953      -0.089908
     43 N                    -0.291861       0.204553
     44 C                    -0.002032       0.247578
     45 C                    -0.296031      -0.146245
     46 H                     0.244462       0.007406
     47 C                     0.102113       0.250874
     48 C                    -0.044284      -0.067267
     49 N                    -0.281464       0.147236
     50 C                    -0.404309      -0.015802
     51 C                     0.029591       0.006139
     52 C                    -0.270014      -0.001327
     53 H                     0.245160       0.000559
     54 C                    -0.257392       0.002292
     55 H                     0.238500      -0.000106
     56 C                    -0.231787      -0.002561
     57 H                     0.237914       0.000172
     58 C                    -0.347171       0.002488
     59 H                     0.228229      -0.000104
     60 C                     0.156159      -0.004237
     61 C                     0.115073       0.015094
     62 C                    -0.337872      -0.012059
     63 H                     0.223642       0.000809
     64 C                    -0.240834       0.023317
     65 H                     0.235313      -0.001439
     66 C                    -0.237915      -0.014029
     67 H                     0.235997       0.000782
     68 C                    -0.299755       0.021486
     69 H                     0.238639      -0.001403
     70 C                     0.166919       0.003557
     71 C                    -0.622758      -0.017003
     72 H                     0.245739       0.000141
     73 H                     0.244930       0.000223
     74 H                     0.254850       0.000496
     75 C                    -0.601275      -0.025197
     76 H                     0.246862      -0.000638
     77 H                     0.243655       0.001199
     78 H                     0.245649      -0.000844
  --------------------------------------------------------
  Sum of atomic charges =     0.000000

                    Cartesian Multipole Moments
 -----------------------------------------------------------------
    Charge (ESU x 10^10)
                 0.0000
    Dipole Moment (Debye)
         X      30.4462      Y     -19.4744      Z      28.8332
       Tot      46.2340
    Quadrupole Moments (Debye-Ang)
        XX    -422.5518     XY     130.4263     YY    -349.6769
        XZ    -186.9340     YZ     127.0074     ZZ    -415.4923

 Total job time:  15904.02s(wall), 47004.36s(cpu)
        *  Thank you very much for using Q-Chem.  Have a nice day.  *
