 Q-Chem 5.0, Q-Chem, Inc., Pleasanton, CA (2017)
 Q-Chem 5.0.1 for Intel X86 EM64T Linux

User input:
--------------------------------------------------------------
$rem
threads 8
jobtype	sp
method PBEh-3c
basis def2-mSVP
mem_static	1024
mem_total	8000
sym_ignore	true
unrestricted true
scf_convergence	9
solvent_method	pcm
$end

$molecule
read moms1opt_tol.mol
$end

$solvent
dielectric	3.50
$end

$pcm
theory iefpcm
$end
--------------------------------------------------------------

   17   -1855.5389661390      6.20E-10 Convergence criterion met
 Total energy in the final basis set = -1855.53896614
 Total job time:  1570.15s(wall), 4593.34s(cpu)
        *  Thank you very much for using Q-Chem.  Have a nice day.  *
 Q-Chem 5.0, Q-Chem, Inc., Pleasanton, CA (2017)
 Q-Chem 5.0.1 for Intel X86 EM64T Linux

User input:
--------------------------------------------------------------

$rem
threads 8
jobtype opt
method PBEh-3c
basis def2-mSVP
scf_guess	read
mem_static      1024
mem_total       8000
sym_ignore      true
unrestricted true
mom_start       1
scf_algorithm	diis
scf_max_cycles	250
solvent_method	pcm
geom_opt_tol_energy 25
geom_opt_tol_gradient 75
$end

$solvent
dielectric      3.50
$end

$pcm
theory iefpcm
$end

$occupied
1 2 3 4 5 6 7 8 9 10 11 12 13 14 15 16 17 18 19 20 21 22 23 24 25 26 27 28 29 30 31 32 33 34 35 36 37 38 39 40 41 42 43 44 45 46 47 48 49 50 51 52 53 54 55 56 57 58 59 60 61 62 63 64 65 66 67 68 69 70 71 72 73 74 75 76 77 78 79 80 81 82 83 84 85 86 87 88 89 90 91 92 93 94 95 96 97 98 99 100 101 102 103 104 105 106 107 108 109 110 111 112 113 114 115 116 117 118 119 120 121 122 123 124 125 126 127 128 129 130 131 132 133 134 135 136 137 138 139 140 141 142 143 144 145 146 147 148 149 150 151 152 153 154 155 156 157 159
1 2 3 4 5 6 7 8 9 10 11 12 13 14 15 16 17 18 19 20 21 22 23 24 25 26 27 28 29 30 31 32 33 34 35 36 37 38 39 40 41 42 43 44 45 46 47 48 49 50 51 52 53 54 55 56 57 58 59 60 61 62 63 64 65 66 67 68 69 70 71 72 73 74 75 76 77 78 79 80 81 82 83 84 85 86 87 88 89 90 91 92 93 94 95 96 97 98 99 100 101 102 103 104 105 106 107 108 109 110 111 112 113 114 115 116 117 118 119 120 121 122 123 124 125 126 127 128 129 130 131 132 133 134 135 136 137 138 139 140 141 142 143 144 145 146 147 148 149 150 151 152 153 154 155 156 157 158
$end

$molecule
read
$end

--------------------------------------------------------------

   19   -1855.4429941807      6.68E-09 Convergence criterion met
 Total energy in the final basis set = -1855.44299418
   17   -1855.4430710908      5.57E-09 Convergence criterion met
 Total energy in the final basis set = -1855.44307109
   17   -1855.4429929269      8.03E-09 Convergence criterion met
 Total energy in the final basis set = -1855.44299293
   17   -1855.4432649447      5.07E-09 Convergence criterion met
 Total energy in the final basis set = -1855.44326494
   17   -1855.4432589702      5.19E-09 Convergence criterion met
 Total energy in the final basis set = -1855.44325897
   17   -1855.4432630027      5.48E-09 Convergence criterion met
 Total energy in the final basis set = -1855.44326300
   17   -1855.4432632062      5.28E-09 Convergence criterion met
 Total energy in the final basis set = -1855.44326321
   17   -1855.4432737003      5.11E-09 Convergence criterion met
 Total energy in the final basis set = -1855.44327370
   17   -1855.4432764153      6.06E-09 Convergence criterion met
 Total energy in the final basis set = -1855.44327642
   17   -1855.4432827571      6.59E-09 Convergence criterion met
 Total energy in the final basis set = -1855.44328276

             Standard Nuclear Orientation (Angstroms)
    I     Atom           X                Y                Z
 ----------------------------------------------------------------
    1      N       0.0282519736     0.0875060838     0.0746636934
    2      C       0.0104936039     0.0218949483     1.4523654151
    3      C       1.1972090051     0.0940527501    -0.6561938828
    4      C       1.1973658584    -0.2284158102     2.1635263972
    5      C       1.1046533015    -0.3419270404     3.5432182064
    6      H       1.9899720031    -0.5671967569     4.1217163248
    7      C      -0.0999997706    -0.1795452716     4.2082336057
    8      H      -0.1344337786    -0.2734780135     5.2849874046
    9      C      -1.2600735280     0.1147426937     3.4947815454
   10      H      -2.1976541758     0.2688868830     4.0101235145
   11      C      -1.2120710511     0.2136675159     2.1269427498
   12      H      -2.1094551799     0.4543691835     1.5764877172
   13      C       2.4304041643    -0.0993517360    -0.0041187935
   14      C       3.5786419309    -0.0781749911    -0.7819813110
   15      H       4.5401480286    -0.2455885375    -0.3173823378
   16      C       3.5320766792     0.1352560433    -2.1501386919
   17      H       4.4495436799     0.1513264049    -2.7223805857
   18      C       2.3057869272     0.3130605265    -2.7855099217
   19      H       2.2541695830     0.4734199044    -3.8532976128
   20      C       1.1457939367     0.2803128372    -2.0540238751
   21      H       0.2055893643     0.4106364439    -2.5681247116
   22      C      -1.2286785908     0.0677815173    -0.6186634839
   23      C      -1.6939661025     1.1989848317    -1.2505501807
   24      H      -1.1067555461     2.1070120414    -1.1946287880
   25      C      -1.9394125374    -1.1219746576    -0.6631536210
   26      H      -1.5679298663    -2.0163928855    -0.1803387869
   27      C      -3.1462112142    -1.1193078028    -1.3263617479
   28      H      -3.7359987651    -2.0274236798    -1.3396849115
   29      C      -2.8806657940     1.1822501662    -1.9905308088
   30      C      -3.6433095855     0.0111575385    -1.9842756621
   31      C      -5.0197081678    -0.0856183397    -2.5753550904
   32      H      -5.4928016458    -0.9874224139    -2.1825491107
   33      H      -4.9746953996    -0.2134860084    -3.6603545120
   34      C       2.5177225787    -0.4293174498     1.4652042799
   35      C      -5.8714591739     1.1428817802    -2.2433048245
   36      H      -6.9243267547     0.8584291071    -2.2078755145
   37      H      -5.6184715564     1.4851611050    -1.2325001226
   38      C      -5.6872769762     2.2024051524    -3.2833085801
   39      C      -6.7807988239     2.6577266760    -3.9663483537
   40      H      -7.7641822418     2.3226268154    -3.6542831211
   41      C      -6.7003648127     3.5112815141    -5.0884225705
   42      C      -7.8589897483     3.9494448942    -5.7317373973
   43      N      -8.8303852957     4.3076281420    -6.2647248560
   44      C      -5.3754115941     3.8578426292    -5.5473312291
   45      C      -4.2692344220     3.4016962705    -4.8232349432
   46      H      -3.2976652135     3.7273112332    -5.1715051522
   47      C      -4.3657579449     2.6004011253    -3.7025063799
   48      C      -5.1717958973     4.6410283739    -6.6944294172
   49      N      -5.0020725188     5.2908879122    -7.6418038433
   50      C      -3.1252396317     2.4529265549    -2.8224120272
   51      C      -1.8610553872     2.6272660833    -3.6510634715
   52      C      -1.3789744788     1.7786582798    -4.6290572414
   53      H      -1.9207012863     0.8795395518    -4.8984621112
   54      C      -0.2002771926     2.1184167708    -5.2817146627
   55      H       0.1864757213     1.4763374891    -6.0628018050
   56      C       0.4762627161     3.2903773213    -4.9525984618
   57      H       1.3881029410     3.5459246007    -5.4766489804
   58      C      -0.0124560893     4.1412057530    -3.9703336159
   59      H       0.5141102189     5.0559478449    -3.7279954825
   60      C      -1.1898065915     3.8009924767    -3.3174505042
   61      C      -1.9404042169     4.4736808826    -2.2595562698
   62      C      -1.7103900385     5.6739550894    -1.6056176502
   63      H      -0.8561602756     6.2903786980    -1.8580687375
   64      C      -2.6033478761     6.0803364749    -0.6227907051
   65      H      -2.4434375373     7.0174685394    -0.1058493138
   66      C      -3.7079702687     5.2968853988    -0.3033819905
   67      H      -4.3990680189     5.6319377475     0.4592743663
   68      C      -3.9404500314     4.0948750860    -0.9606261989
   69      H      -4.8128774181     3.5014564080    -0.7172636553
   70      C      -3.0513226554     3.6892266460    -1.9374499999
   71      C       3.5889821545     0.4468860669     2.1349775812
   72      H       4.5629281837     0.3028367158     1.6713489406
   73      H       3.7036287989     0.1914629529     3.1866165379
   74      H       3.3293348958     1.5025550156     2.0652568962
   75      C       2.8983403641    -1.9223292273     1.5824670754
   76      H       3.8584924623    -2.1096696576     1.1019991201
   77      H       2.1511978827    -2.5583551098     1.1068860339
   78      H       2.9786200810    -2.2164005464     2.6289060916
 ----------------------------------------------------------------

   17   -1855.4432882702      6.54E-09 Convergence criterion met
 Total energy in the final basis set = -1855.44328827
 Final energy is   -1855.44328827024
 **  OPTIMIZATION CONVERGED  **

                    Orbital Energies (a.u.)
 --------------------------------------------------------------

 Alpha MOs
 -- Occupied --
-14.783 -14.599 -14.595 -10.554 -10.553 -10.524 -10.514 -10.512
-10.511 -10.495 -10.492 -10.492 -10.491 -10.490 -10.489 -10.488
-10.486 -10.486 -10.483 -10.479 -10.479 -10.478 -10.469 -10.460
-10.459 -10.458 -10.457 -10.456 -10.455 -10.454 -10.453 -10.452
-10.452 -10.451 -10.449 -10.447 -10.446 -10.446 -10.446 -10.443
-10.438 -10.435 -10.434 -10.433 -10.432 -10.428 -10.427  -1.159
 -1.019  -1.011  -1.010  -0.985  -0.976  -0.965  -0.956  -0.952
 -0.944  -0.914  -0.909  -0.905  -0.886  -0.877  -0.871  -0.863
 -0.859  -0.840  -0.838  -0.833  -0.812  -0.809  -0.802  -0.776
 -0.768  -0.764  -0.747  -0.726  -0.718  -0.716  -0.707  -0.690
 -0.677  -0.670  -0.668  -0.662  -0.661  -0.655  -0.650  -0.632
 -0.600  -0.586  -0.585  -0.583  -0.580  -0.573  -0.572  -0.565
 -0.554  -0.549  -0.545  -0.544  -0.536  -0.531  -0.527  -0.527
 -0.520  -0.513  -0.513  -0.507  -0.501  -0.497  -0.488  -0.487
 -0.485  -0.483  -0.479  -0.478  -0.473  -0.467  -0.466  -0.462
 -0.460  -0.454  -0.453  -0.447  -0.440  -0.438  -0.432  -0.428
 -0.426  -0.421  -0.419  -0.415  -0.411  -0.410  -0.403  -0.400
 -0.398  -0.397  -0.394  -0.389  -0.385  -0.380  -0.371  -0.354
 -0.347  -0.340  -0.337  -0.335  -0.328  -0.327  -0.322  -0.311
 -0.294  -0.289  -0.279  -0.267  -0.255  -0.119

 Beta MOs
 -- Occupied --
-14.795 -14.596 -14.590 -10.552 -10.552 -10.524 -10.515 -10.515
-10.513 -10.498 -10.495 -10.495 -10.494 -10.488 -10.487 -10.486
-10.486 -10.484 -10.483 -10.480 -10.480 -10.479 -10.469 -10.461
-10.459 -10.458 -10.458 -10.456 -10.455 -10.454 -10.453 -10.452
-10.452 -10.452 -10.449 -10.448 -10.447 -10.446 -10.446 -10.442
-10.435 -10.435 -10.434 -10.430 -10.429 -10.429 -10.425  -1.178
 -1.022  -1.015  -1.012  -0.986  -0.970  -0.959  -0.958  -0.952
 -0.940  -0.913  -0.909  -0.908  -0.889  -0.877  -0.871  -0.866
 -0.858  -0.842  -0.839  -0.828  -0.811  -0.809  -0.804  -0.775
 -0.770  -0.767  -0.745  -0.727  -0.720  -0.715  -0.707  -0.688
 -0.678  -0.670  -0.669  -0.664  -0.662  -0.655  -0.651  -0.633
 -0.600  -0.595  -0.588  -0.587  -0.582  -0.574  -0.573  -0.565
 -0.555  -0.550  -0.546  -0.544  -0.541  -0.533  -0.529  -0.527
 -0.521  -0.513  -0.513  -0.509  -0.506  -0.496  -0.493  -0.492
 -0.487  -0.483  -0.480  -0.479  -0.473  -0.469  -0.467  -0.464
 -0.462  -0.456  -0.452  -0.447  -0.445  -0.438  -0.431  -0.429
 -0.424  -0.423  -0.421  -0.413  -0.412  -0.411  -0.408  -0.399
 -0.396  -0.394  -0.391  -0.386  -0.378  -0.370  -0.366  -0.351
 -0.346  -0.342  -0.340  -0.337  -0.335  -0.333  -0.322  -0.313
 -0.295  -0.293  -0.288  -0.267  -0.256  -0.229

          Ground-State Mulliken Net Atomic Charges

     Atom                 Charge (a.u.)    Spin (a.u.)
  --------------------------------------------------------
      1 N                    -0.610239      -0.439467
      2 C                     0.292042       0.095115
      3 C                     0.300578       0.091365
      4 C                     0.194593      -0.220367
      5 C                    -0.308826       0.145014
      6 H                     0.262552      -0.006829
      7 C                    -0.202482      -0.243503
      8 H                     0.273876       0.013029
      9 C                    -0.245018       0.126699
     10 H                     0.275467      -0.005780
     11 C                    -0.261909      -0.176266
     12 H                     0.310534       0.009379
     13 C                     0.187613      -0.223748
     14 C                    -0.306394       0.147143
     15 H                     0.261925      -0.006938
     16 C                    -0.202569      -0.249138
     17 H                     0.273440       0.013312
     18 C                    -0.241925       0.128003
     19 H                     0.274131      -0.005814
     20 C                    -0.268750      -0.178659
     21 H                     0.319854       0.009973
     22 C                     0.136442       0.035024
     23 C                    -0.277385      -0.028894
     24 H                     0.294076       0.001186
     25 C                    -0.217875      -0.029374
     26 H                     0.264279       0.001569
     27 C                    -0.317634       0.013321
     28 H                     0.253711      -0.001570
     29 C                     0.218257       0.018988
     30 C                     0.070340      -0.020261
     31 C                    -0.514069       0.009382
     32 H                     0.245895      -0.001444
     33 H                     0.267568      -0.001806
     34 C                    -0.239317       0.036998
     35 C                    -0.545574      -0.014128
     36 H                     0.251863       0.000366
     37 H                     0.225369       0.012273
     38 C                     0.096528       0.160848
     39 C                    -0.340443      -0.085631
     40 H                     0.220212       0.003385
     41 C                    -0.014985       0.326299
     42 C                    -0.058948      -0.086920
     43 N                    -0.299486       0.205693
     44 C                    -0.005138       0.251135
     45 C                    -0.298891      -0.145341
     46 H                     0.246632       0.007305
     47 C                     0.105427       0.247422
     48 C                    -0.045124      -0.066781
     49 N                    -0.288777       0.150981
     50 C                    -0.403927      -0.016558
     51 C                     0.030528       0.005841
     52 C                    -0.271622      -0.001415
     53 H                     0.246723       0.000501
     54 C                    -0.258171       0.002230
     55 H                     0.241368      -0.000103
     56 C                    -0.234187      -0.002522
     57 H                     0.241305       0.000167
     58 C                    -0.349182       0.002419
     59 H                     0.231980      -0.000104
     60 C                     0.154882      -0.004003
     61 C                     0.114145       0.014341
     62 C                    -0.339946      -0.011354
     63 H                     0.228009       0.000759
     64 C                    -0.243526       0.021524
     65 H                     0.238828      -0.001320
     66 C                    -0.240983      -0.013159
     67 H                     0.239319       0.000732
     68 C                    -0.302504       0.020132
     69 H                     0.240905      -0.001280
     70 C                     0.165115       0.002657
     71 C                    -0.624771      -0.017198
     72 H                     0.247322       0.000143
     73 H                     0.246592       0.000220
     74 H                     0.254491       0.000500
     75 C                    -0.603514      -0.025422
     76 H                     0.248022      -0.000644
     77 H                     0.244330       0.001206
     78 H                     0.247024      -0.000839
  --------------------------------------------------------
  Sum of atomic charges =     0.000000

                    Cartesian Multipole Moments
 -----------------------------------------------------------------
    Charge (ESU x 10^10)
                 0.0000
    Dipole Moment (Debye)
         X      31.1643      Y     -20.0072      Z      29.5130
       Tot      47.3553
    Quadrupole Moments (Debye-Ang)
        XX    -426.6572     XY     134.0150     YY    -351.8732
        XZ    -191.7596     YZ     130.8536     ZZ    -419.2044

 Total job time:  18593.81s(wall), 54744.59s(cpu)
        *  Thank you very much for using Q-Chem.  Have a nice day.  *
