 Q-Chem 5.0, Q-Chem, Inc., Pleasanton, CA (2017)
 Q-Chem 5.0.1 for Intel X86 EM64T Linux

User input:
--------------------------------------------------------------
$rem
threads 8
jobtype	sp
method PBEh-3c
basis def2-mSVP
mem_static	1024
mem_total	8000
sym_ignore	true
unrestricted true
scf_convergence	9
solvent_method	pcm
$end

$molecule
read moms1opt_tol.mol
$end

$solvent
dielectric	2.57
$end

$pcm
theory iefpcm
$end
--------------------------------------------------------------

   17   -1855.5348581510      6.03E-10 Convergence criterion met
 Total energy in the final basis set = -1855.53485815

                    Orbital Energies (a.u.)
 --------------------------------------------------------------

 Alpha MOs
 -- Occupied --
-14.678 -14.667 -14.664 -10.527 -10.525 -10.511 -10.508 -10.507
-10.507 -10.500 -10.493 -10.493 -10.493 -10.491 -10.489 -10.482
-10.474 -10.472 -10.469 -10.467 -10.467 -10.467 -10.465 -10.460
-10.460 -10.460 -10.459 -10.459 -10.458 -10.458 -10.457 -10.457
-10.457 -10.457 -10.457 -10.450 -10.450 -10.443 -10.443 -10.442
-10.441 -10.440 -10.438 -10.435 -10.434 -10.424 -10.424  -1.094
 -1.039  -1.026  -1.024  -0.998  -0.982  -0.962  -0.958  -0.957
 -0.933  -0.927  -0.908  -0.896  -0.885  -0.879  -0.854  -0.849
 -0.848  -0.840  -0.836  -0.818  -0.816  -0.804  -0.790  -0.772
 -0.768  -0.741  -0.726  -0.723  -0.711  -0.710  -0.701  -0.684
 -0.676  -0.672  -0.668  -0.665  -0.662  -0.642  -0.615  -0.615
 -0.611  -0.605  -0.593  -0.582  -0.573  -0.565  -0.559  -0.554
 -0.536  -0.534  -0.530  -0.527  -0.525  -0.523  -0.522  -0.518
 -0.510  -0.505  -0.503  -0.501  -0.495  -0.494  -0.492  -0.488
 -0.485  -0.482  -0.480  -0.478  -0.469  -0.461  -0.458  -0.450
 -0.449  -0.449  -0.446  -0.441  -0.437  -0.435  -0.432  -0.429
 -0.426  -0.425  -0.424  -0.420  -0.416  -0.412  -0.411  -0.407
 -0.404  -0.402  -0.400  -0.397  -0.396  -0.394  -0.389  -0.374
 -0.373  -0.364  -0.343  -0.331  -0.321  -0.308  -0.301  -0.297
 -0.295  -0.288  -0.287  -0.284  -0.265  -0.218

 Beta MOs
 -- Occupied --
-14.678 -14.667 -14.664 -10.527 -10.525 -10.511 -10.508 -10.507
-10.507 -10.500 -10.493 -10.493 -10.493 -10.491 -10.489 -10.482
-10.474 -10.472 -10.469 -10.467 -10.467 -10.467 -10.465 -10.460
-10.460 -10.460 -10.459 -10.459 -10.458 -10.458 -10.457 -10.457
-10.457 -10.457 -10.457 -10.450 -10.450 -10.443 -10.443 -10.442
-10.441 -10.440 -10.438 -10.435 -10.434 -10.424 -10.424  -1.094
 -1.039  -1.026  -1.024  -0.998  -0.982  -0.962  -0.958  -0.957
 -0.933  -0.927  -0.908  -0.896  -0.885  -0.879  -0.854  -0.849
 -0.848  -0.840  -0.836  -0.818  -0.816  -0.804  -0.790  -0.772
 -0.768  -0.741  -0.726  -0.723  -0.711  -0.710  -0.701  -0.684
 -0.676  -0.672  -0.668  -0.665  -0.662  -0.642  -0.615  -0.615
 -0.611  -0.605  -0.593  -0.582  -0.573  -0.565  -0.559  -0.554
 -0.536  -0.534  -0.530  -0.527  -0.525  -0.523  -0.522  -0.518
 -0.510  -0.505  -0.503  -0.501  -0.495  -0.494  -0.492  -0.488
 -0.485  -0.482  -0.480  -0.478  -0.469  -0.461  -0.458  -0.450
 -0.449  -0.449  -0.446  -0.441  -0.437  -0.435  -0.432  -0.429
 -0.426  -0.425  -0.424  -0.420  -0.416  -0.412  -0.411  -0.407
 -0.404  -0.402  -0.400  -0.397  -0.396  -0.394  -0.389  -0.374
 -0.373  -0.364  -0.343  -0.331  -0.321  -0.308  -0.301  -0.297
 -0.295  -0.288  -0.287  -0.284  -0.265  -0.218

          Ground-State Mulliken Net Atomic Charges

     Atom                 Charge (a.u.)    Spin (a.u.)
  --------------------------------------------------------
      1 N                    -0.706715       0.000000
      2 C                     0.299944       0.000000
      3 C                     0.306545       0.000000
      4 C                     0.140026      -0.000000
      5 C                    -0.308736      -0.000000
      6 H                     0.224667      -0.000000
      7 C                    -0.249571       0.000000
      8 H                     0.224384       0.000000
      9 C                    -0.246112       0.000000
     10 H                     0.230791       0.000000
     11 C                    -0.308699      -0.000000
     12 H                     0.260082      -0.000000
     13 C                     0.130295      -0.000000
     14 C                    -0.306738      -0.000000
     15 H                     0.223895      -0.000000
     16 C                    -0.250905       0.000000
     17 H                     0.222645      -0.000000
     18 C                    -0.240892      -0.000000
     19 H                     0.225966      -0.000000
     20 C                    -0.313674       0.000000
     21 H                     0.269502       0.000000
     22 C                     0.159992      -0.000000
     23 C                    -0.260008       0.000000
     24 H                     0.285768       0.000000
     25 C                    -0.223149       0.000000
     26 H                     0.256432      -0.000000
     27 C                    -0.316575      -0.000000
     28 H                     0.236664       0.000000
     29 C                     0.225934       0.000000
     30 C                     0.056735       0.000000
     31 C                    -0.520477      -0.000000
     32 H                     0.260052       0.000000
     33 H                     0.259604      -0.000000
     34 C                    -0.206384       0.000000
     35 C                    -0.555735      -0.000000
     36 H                     0.266816      -0.000000
     37 H                     0.266091      -0.000000
     38 C                     0.142045      -0.000000
     39 C                    -0.316749       0.000000
     40 H                     0.266777       0.000000
     41 C                     0.070077      -0.000000
     42 C                     0.009803       0.000000
     43 N                    -0.194070       0.000000
     44 C                     0.078073      -0.000000
     45 C                    -0.291737      -0.000000
     46 H                     0.290346       0.000000
     47 C                     0.160665       0.000000
     48 C                     0.008921       0.000000
     49 N                    -0.194423      -0.000000
     50 C                    -0.406837      -0.000000
     51 C                     0.014765       0.000000
     52 C                    -0.264556      -0.000000
     53 H                     0.245039      -0.000000
     54 C                    -0.247086       0.000000
     55 H                     0.242925       0.000000
     56 C                    -0.221533      -0.000000
     57 H                     0.244590      -0.000000
     58 C                    -0.339713       0.000000
     59 H                     0.232481       0.000000
     60 C                     0.160820      -0.000000
     61 C                     0.122366      -0.000000
     62 C                    -0.331119       0.000000
     63 H                     0.232219       0.000000
     64 C                    -0.232293      -0.000000
     65 H                     0.244459      -0.000000
     66 C                    -0.234501       0.000000
     67 H                     0.242218       0.000000
     68 C                    -0.297469      -0.000000
     69 H                     0.231704       0.000000
     70 C                     0.172528       0.000000
     71 C                    -0.625250      -0.000000
     72 H                     0.225218       0.000000
     73 H                     0.225257       0.000000
     74 H                     0.239861      -0.000000
     75 C                    -0.601825       0.000000
     76 H                     0.223314       0.000000
     77 H                     0.232135       0.000000
     78 H                     0.222094      -0.000000
  --------------------------------------------------------
  Sum of atomic charges =    -0.000000

                    Cartesian Multipole Moments
 -----------------------------------------------------------------
    Charge (ESU x 10^10)
                -0.0000
    Dipole Moment (Debye)
         X       2.7505      Y      -3.8223      Z       6.6414
       Tot       8.1414
    Quadrupole Moments (Debye-Ang)
        XX    -288.9087     XY      43.0851     YY    -287.1217
        XZ     -63.8807     YZ      50.6283     ZZ    -336.2005

 Total job time:  1851.94s(wall), 4971.99s(cpu)
        *  Thank you very much for using Q-Chem.  Have a nice day.  *
 Q-Chem 5.0, Q-Chem, Inc., Pleasanton, CA (2017)
 Q-Chem 5.0.1 for Intel X86 EM64T Linux

User input:
--------------------------------------------------------------

$rem
threads 8
jobtype opt
method PBEh-3c
basis def2-mSVP
scf_guess	read
mem_static      1024
mem_total       8000
sym_ignore      true
unrestricted true
mom_start       1
scf_algorithm	diis
scf_max_cycles	250
solvent_method	pcm
geom_opt_tol_energy 25
geom_opt_tol_gradient 75
$end

$solvent
dielectric      2.57
$end

$pcm
theory iefpcm
$end

$occupied
1 2 3 4 5 6 7 8 9 10 11 12 13 14 15 16 17 18 19 20 21 22 23 24 25 26 27 28 29 30 31 32 33 34 35 36 37 38 39 40 41 42 43 44 45 46 47 48 49 50 51 52 53 54 55 56 57 58 59 60 61 62 63 64 65 66 67 68 69 70 71 72 73 74 75 76 77 78 79 80 81 82 83 84 85 86 87 88 89 90 91 92 93 94 95 96 97 98 99 100 101 102 103 104 105 106 107 108 109 110 111 112 113 114 115 116 117 118 119 120 121 122 123 124 125 126 127 128 129 130 131 132 133 134 135 136 137 138 139 140 141 142 143 144 145 146 147 148 149 150 151 152 153 154 155 156 157 159
1 2 3 4 5 6 7 8 9 10 11 12 13 14 15 16 17 18 19 20 21 22 23 24 25 26 27 28 29 30 31 32 33 34 35 36 37 38 39 40 41 42 43 44 45 46 47 48 49 50 51 52 53 54 55 56 57 58 59 60 61 62 63 64 65 66 67 68 69 70 71 72 73 74 75 76 77 78 79 80 81 82 83 84 85 86 87 88 89 90 91 92 93 94 95 96 97 98 99 100 101 102 103 104 105 106 107 108 109 110 111 112 113 114 115 116 117 118 119 120 121 122 123 124 125 126 127 128 129 130 131 132 133 134 135 136 137 138 139 140 141 142 143 144 145 146 147 148 149 150 151 152 153 154 155 156 157 158
$end

$molecule
read
$end

--------------------------------------------------------------

             Standard Nuclear Orientation (Angstroms)
    I     Atom           X                Y                Z
 ----------------------------------------------------------------
    1      N       0.0000000000     0.0000000000     0.0000000000
    2      C       0.0000000000     0.0000000000     1.3777940000
    3      C       1.1582939163     0.0000000000    -0.7474551064
    4      C       1.2028907607    -0.1808698506     2.0839154358
    5      C       1.1311082926    -0.2263101379     3.4689172746
    6      H       2.0297665848    -0.3904260099     4.0471580676
    7      C      -0.0680179056    -0.0704370924     4.1446174175
    8      H      -0.0832545019    -0.1114165094     5.2252203347
    9      C      -1.2456466760     0.1511436374     3.4350913649
   10      H      -2.1812002989     0.2993537234     3.9557833668
   11      C      -1.2179473285     0.1878832393     2.0634578745
   12      H      -2.1302974962     0.3753933491     1.5177581630
   13      C       2.4063009813    -0.1218839390    -0.1029935401
   14      C       3.5425605545    -0.0911840833    -0.8968894792
   15      H       4.5167718082    -0.1968960956    -0.4406154582
   16      C       3.4698903827     0.0581619532    -2.2728517643
   17      H       4.3791682144     0.0853933400    -2.8576852199
   18      C       2.2304576972     0.1573521630    -2.8992593456
   19      H       2.1608009436     0.2664628106    -3.9721612748
   20      C       1.0811767388     0.1152473144    -2.1508230605
   21      H       0.1273000258     0.1870696149    -2.6508838727
   22      C      -1.2681914881    -0.0053643238    -0.6706748286
   23      C      -1.7136427770     1.1436216604    -1.2795566547
   24      H      -1.0923556311     2.0281151964    -1.2280930308
   25      C      -2.0193229773    -1.1691658861    -0.6945567089
   26      H      -1.6676601259    -2.0786184538    -0.2248870714
   27      C      -3.2458366306    -1.1114777875    -1.3179326275
   28      H      -3.8710398240    -1.9956903399    -1.3152828368
   29      C      -2.9196700397     1.1861691525    -1.9831037034
   30      C      -3.7265898720     0.0424870981    -1.9518732057
   31      C      -5.1274419578    -0.0188038698    -2.4860670870
   32      H      -5.6238973458    -0.8763047482    -2.0267856215
   33      H      -5.1286010726    -0.2065686262    -3.5633862255
   34      C       2.5209546297    -0.3825038082     1.3803469267
   35      C      -5.9144132476     1.2601170384    -2.1959847851
   36      H      -6.9791576699     1.0258668013    -2.1494001424
   37      H      -5.6442779226     1.6190347461    -1.1951485228
   38      C      -5.6824726533     2.2660758601    -3.2799847032
   39      C      -6.7544698169     2.6734072062    -4.0269232611
   40      H      -7.7476558070     2.3664553885    -3.7167884753
   41      C      -6.6416469136     3.4321409906    -5.2086701123
   42      C      -7.7869960057     3.8177580567    -5.9104819682
   43      N      -8.7514248325     4.1250324118    -6.4839239889
   44      C      -5.3039364493     3.7303569674    -5.6607423891
   45      C      -4.2196414124     3.3351459193    -4.8716088146
   46      H      -3.2385569060     3.6235124079    -5.2244650356
   47      C      -4.3453363197     2.6288335343    -3.6908521181
   48      C      -5.0614095426     4.4028809926    -6.8696250211
   49      N      -4.8524325437     4.9584034657    -7.8670154732
   50      C      -3.1273365006     2.4945328213    -2.7791581715
   51      C      -1.8310459094     2.6965044323    -3.5621005633
   52      C      -1.3145213234     1.8758687132    -4.5466192693
   53      H      -1.8586639648     0.9974429780    -4.8731959985
   54      C      -0.1009211714     2.2169134639    -5.1310406823
   55      H       0.3076024482     1.5992912850    -5.9208162890
   56      C       0.5821441311     3.3590945761    -4.7228604415
   57      H       1.5232128023     3.6156309100    -5.1916732903
   58      C       0.0626564190     4.1791910094    -3.7313605942
   59      H       0.5971354779     5.0692026540    -3.4235464582
   60      C      -1.1527199417     3.8408700617    -3.1520879615
   61      C      -1.9277228265     4.4793616083    -2.0925481525
   62      C      -1.6959798595     5.6455738462    -1.3802097907
   63      H      -0.8221629153     6.2535794989    -1.5794012474
   64      C      -2.6123090401     6.0306201190    -0.4111601114
   65      H      -2.4522976032     6.9426573212     0.1487283737
   66      C      -3.7416135090     5.2578536745    -0.1627594096
   67      H      -4.4532640669     5.5748717416     0.5885899714
   68      C      -3.9731917499     4.0886371584    -0.8768287423
   69      H      -4.8646502896     3.5060794574    -0.6855111382
   70      C      -3.0611772686     3.7026695748    -1.8412071552
   71      C       3.5801589634     0.5458609434     1.9977621344
   72      H       4.5552925066     0.3942725873     1.5388836804
   73      H       3.7068626968     0.3502277663     3.0610536285
   74      H       3.3032899829     1.5921185625     1.8748282763
   75      C       2.9386151376    -1.8588311289     1.5692435426
   76      H       3.8987998631    -2.0488715501     1.0901066359
   77      H       2.2029403078    -2.5374556571     1.1373270426
   78      H       3.0362140356    -2.0954933501     2.6288603689
 ----------------------------------------------------------------
