 Q-Chem 5.0, Q-Chem, Inc., Pleasanton, CA (2017)
 Q-Chem 5.0.1 for Intel X86 EM64T Linux

User input:
--------------------------------------------------------------
$rem
threads 8
jobtype	sp
method PBEh-3c
basis def2-mSVP
mem_static	1024
mem_total	8000
sym_ignore	true
unrestricted true
scf_convergence	9
solvent_method	pcm
$end

$molecule
read moms1opt_tol.mol
$end

$solvent
dielectric	2.75
$end

$pcm
theory iefpcm
$end
--------------------------------------------------------------

   17   -1855.5358166165      6.07E-10 Convergence criterion met
 Total energy in the final basis set = -1855.53581662
 Total job time:  1619.39s(wall), 4712.00s(cpu)
        *  Thank you very much for using Q-Chem.  Have a nice day.  *
 Q-Chem 5.0, Q-Chem, Inc., Pleasanton, CA (2017)
 Q-Chem 5.0.1 for Intel X86 EM64T Linux

User input:
--------------------------------------------------------------

$rem
threads 8
jobtype opt
method PBEh-3c
basis def2-mSVP
scf_guess	read
mem_static      1024
mem_total       8000
sym_ignore      true
unrestricted true
mom_start       1
scf_algorithm	diis
scf_max_cycles	250
solvent_method	pcm
geom_opt_tol_energy 25
geom_opt_tol_gradient 75
$end

$solvent
dielectric      2.75
$end

$pcm
theory iefpcm
$end

$occupied
1 2 3 4 5 6 7 8 9 10 11 12 13 14 15 16 17 18 19 20 21 22 23 24 25 26 27 28 29 30 31 32 33 34 35 36 37 38 39 40 41 42 43 44 45 46 47 48 49 50 51 52 53 54 55 56 57 58 59 60 61 62 63 64 65 66 67 68 69 70 71 72 73 74 75 76 77 78 79 80 81 82 83 84 85 86 87 88 89 90 91 92 93 94 95 96 97 98 99 100 101 102 103 104 105 106 107 108 109 110 111 112 113 114 115 116 117 118 119 120 121 122 123 124 125 126 127 128 129 130 131 132 133 134 135 136 137 138 139 140 141 142 143 144 145 146 147 148 149 150 151 152 153 154 155 156 157 159
1 2 3 4 5 6 7 8 9 10 11 12 13 14 15 16 17 18 19 20 21 22 23 24 25 26 27 28 29 30 31 32 33 34 35 36 37 38 39 40 41 42 43 44 45 46 47 48 49 50 51 52 53 54 55 56 57 58 59 60 61 62 63 64 65 66 67 68 69 70 71 72 73 74 75 76 77 78 79 80 81 82 83 84 85 86 87 88 89 90 91 92 93 94 95 96 97 98 99 100 101 102 103 104 105 106 107 108 109 110 111 112 113 114 115 116 117 118 119 120 121 122 123 124 125 126 127 128 129 130 131 132 133 134 135 136 137 138 139 140 141 142 143 144 145 146 147 148 149 150 151 152 153 154 155 156 157 158
$end

$molecule
read
$end

--------------------------------------------------------------

   19   -1855.4356368609      6.59E-09 Convergence criterion met
 Total energy in the final basis set = -1855.43563686
   16   -1855.4356802936      9.58E-09 Convergence criterion met
 Total energy in the final basis set = -1855.43568029

                    Orbital Energies (a.u.)
 --------------------------------------------------------------

 Alpha MOs
 -- Occupied --
-14.787 -14.593 -14.589 -10.557 -10.557 -10.526 -10.518 -10.516
-10.515 -10.499 -10.496 -10.496 -10.495 -10.494 -10.493 -10.492
-10.490 -10.488 -10.482 -10.481 -10.481 -10.480 -10.471 -10.465
-10.462 -10.458 -10.457 -10.455 -10.454 -10.453 -10.452 -10.452
-10.451 -10.449 -10.446 -10.445 -10.445 -10.444 -10.443 -10.440
-10.433 -10.433 -10.430 -10.429 -10.428 -10.424 -10.423  -1.163
 -1.021  -1.015  -1.011  -0.986  -0.970  -0.960  -0.959  -0.951
 -0.941  -0.913  -0.910  -0.909  -0.890  -0.877  -0.871  -0.867
 -0.859  -0.841  -0.838  -0.830  -0.811  -0.808  -0.807  -0.776
 -0.770  -0.767  -0.748  -0.727  -0.721  -0.717  -0.707  -0.689
 -0.678  -0.672  -0.669  -0.666  -0.662  -0.655  -0.649  -0.632
 -0.597  -0.590  -0.588  -0.583  -0.581  -0.576  -0.576  -0.565
 -0.555  -0.549  -0.548  -0.544  -0.539  -0.534  -0.532  -0.527
 -0.524  -0.514  -0.513  -0.506  -0.501  -0.496  -0.491  -0.489
 -0.487  -0.483  -0.483  -0.478  -0.473  -0.471  -0.469  -0.463
 -0.461  -0.455  -0.453  -0.450  -0.440  -0.436  -0.435  -0.428
 -0.427  -0.424  -0.417  -0.415  -0.414  -0.410  -0.405  -0.398
 -0.396  -0.392  -0.391  -0.387  -0.379  -0.377  -0.368  -0.350
 -0.341  -0.341  -0.335  -0.334  -0.332  -0.331  -0.322  -0.312
 -0.293  -0.289  -0.275  -0.264  -0.254  -0.114

 Beta MOs
 -- Occupied --
-14.799 -14.590 -14.584 -10.556 -10.556 -10.526 -10.519 -10.519
-10.518 -10.501 -10.500 -10.499 -10.498 -10.492 -10.491 -10.490
-10.488 -10.487 -10.482 -10.482 -10.481 -10.481 -10.471 -10.466
-10.463 -10.458 -10.457 -10.455 -10.454 -10.453 -10.452 -10.452
-10.451 -10.449 -10.446 -10.445 -10.445 -10.445 -10.442 -10.441
-10.433 -10.430 -10.429 -10.425 -10.425 -10.425 -10.421  -1.182
 -1.025  -1.019  -1.012  -0.988  -0.965  -0.963  -0.952  -0.951
 -0.937  -0.913  -0.910  -0.909  -0.893  -0.877  -0.872  -0.869
 -0.858  -0.843  -0.838  -0.825  -0.811  -0.809  -0.808  -0.776
 -0.773  -0.767  -0.746  -0.728  -0.723  -0.715  -0.708  -0.686
 -0.679  -0.674  -0.669  -0.668  -0.662  -0.654  -0.650  -0.633
 -0.601  -0.594  -0.592  -0.589  -0.582  -0.577  -0.577  -0.565
 -0.556  -0.551  -0.548  -0.544  -0.542  -0.537  -0.533  -0.526
 -0.525  -0.514  -0.513  -0.511  -0.505  -0.496  -0.496  -0.492
 -0.487  -0.484  -0.482  -0.478  -0.474  -0.472  -0.470  -0.467
 -0.461  -0.458  -0.451  -0.450  -0.448  -0.438  -0.433  -0.431
 -0.427  -0.422  -0.422  -0.416  -0.412  -0.409  -0.405  -0.398
 -0.395  -0.390  -0.388  -0.383  -0.374  -0.367  -0.360  -0.355
 -0.345  -0.341  -0.338  -0.336  -0.333  -0.332  -0.322  -0.314
 -0.297  -0.292  -0.287  -0.263  -0.255  -0.225

          Ground-State Mulliken Net Atomic Charges

     Atom                 Charge (a.u.)    Spin (a.u.)
  --------------------------------------------------------
      1 N                    -0.609466      -0.438904
      2 C                     0.292354       0.097235
      3 C                     0.300743       0.091668
      4 C                     0.193825      -0.220408
      5 C                    -0.307222       0.144927
      6 H                     0.258685      -0.006848
      7 C                    -0.200655      -0.243034
      8 H                     0.271439       0.013027
      9 C                    -0.242365       0.127378
     10 H                     0.273494      -0.005820
     11 C                    -0.260844      -0.177204
     12 H                     0.310167       0.009434
     13 C                     0.189463      -0.224496
     14 C                    -0.305082       0.148003
     15 H                     0.258287      -0.006993
     16 C                    -0.200619      -0.251754
     17 H                     0.271286       0.013478
     18 C                    -0.239441       0.130046
     19 H                     0.273175      -0.005898
     20 C                    -0.267994      -0.181069
     21 H                     0.319645       0.009984
     22 C                     0.134997       0.034615
     23 C                    -0.273449      -0.028850
     24 H                     0.290913       0.001175
     25 C                    -0.220427      -0.028740
     26 H                     0.259900       0.001532
     27 C                    -0.314041       0.013248
     28 H                     0.250993      -0.001554
     29 C                     0.218817       0.020299
     30 C                     0.068024      -0.020469
     31 C                    -0.508884       0.009883
     32 H                     0.241310      -0.001489
     33 H                     0.269273      -0.001840
     34 C                    -0.241951       0.037061
     35 C                    -0.548767      -0.014643
     36 H                     0.250486       0.000346
     37 H                     0.220900       0.012933
     38 C                     0.096858       0.171574
     39 C                    -0.334787      -0.095943
     40 H                     0.216687       0.004008
     41 C                    -0.011723       0.329679
     42 C                    -0.057753      -0.089661
     43 N                    -0.291356       0.203443
     44 C                    -0.002290       0.251161
     45 C                    -0.295418      -0.143623
     46 H                     0.245577       0.007255
     47 C                     0.101008       0.242933
     48 C                    -0.045349      -0.068183
     49 N                    -0.282206       0.149572
     50 C                    -0.399662      -0.014148
     51 C                     0.024971       0.005457
     52 C                    -0.267005      -0.000793
     53 H                     0.245158       0.000535
     54 C                    -0.256516       0.001848
     55 H                     0.238113      -0.000086
     56 C                    -0.232027      -0.002175
     57 H                     0.237654       0.000153
     58 C                    -0.346910       0.002131
     59 H                     0.227726      -0.000083
     60 C                     0.157492      -0.003785
     61 C                     0.112005       0.013243
     62 C                    -0.336354      -0.010662
     63 H                     0.223701       0.000722
     64 C                    -0.241354       0.021332
     65 H                     0.235317      -0.001318
     66 C                    -0.237266      -0.012863
     67 H                     0.235804       0.000735
     68 C                    -0.304252       0.020148
     69 H                     0.238244      -0.001312
     70 C                     0.170536       0.004323
     71 C                    -0.623393      -0.016763
     72 H                     0.245679       0.000176
     73 H                     0.245053       0.000237
     74 H                     0.255152       0.000470
     75 C                    -0.600629      -0.025659
     76 H                     0.246960      -0.000651
     77 H                     0.243778       0.001228
     78 H                     0.245808      -0.000910
  --------------------------------------------------------
  Sum of atomic charges =     0.000000

                    Cartesian Multipole Moments
 -----------------------------------------------------------------
    Charge (ESU x 10^10)
                 0.0000
    Dipole Moment (Debye)
         X      30.5156      Y     -19.2402      Z      29.0325
       Tot      46.3063
    Quadrupole Moments (Debye-Ang)
        XX    -422.7784     XY     128.6637     YY    -347.0813
        XZ    -188.4101     YZ     126.0727     ZZ    -417.8785

             Standard Nuclear Orientation (Angstroms)
    I     Atom           X                Y                Z
 ----------------------------------------------------------------
    1      N       0.0381428851     0.0934617276     0.0715152659
    2      C       0.0231295496     0.0255441865     1.4497352635
    3      C       1.2054085534     0.0884743818    -0.6611049781
    4      C       1.2104328992    -0.2308743149     2.1585140943
    5      C       1.1212995657    -0.3393024071     3.5385205027
    6      H       2.0071171685    -0.5668387339     4.1153127849
    7      C      -0.0806172375    -0.1672766122     4.2063974007
    8      H      -0.1123450295    -0.2563260596     5.2835691167
    9      C      -1.2409540731     0.1302810512     3.4949901949
   10      H      -2.1766049714     0.2915013398     4.0116225094
   11      C      -1.1962630217     0.2251372157     2.1268202573
   12      H      -2.0932329897     0.4719532140     1.5783970008
   13      C       2.4393430460    -0.1095812400    -0.0116870459
   14      C       3.5850076931    -0.0956841348    -0.7927562574
   15      H       4.5471367300    -0.2669883943    -0.3313559678
   16      C       3.5361143194     0.1146314916    -2.1615911132
   17      H       4.4523369490     0.1261651742    -2.7358793836
   18      C       2.3095385914     0.2933621470    -2.7950122830
   19      H       2.2565186770     0.4491497746    -3.8633882081
   20      C       1.1514401427     0.2673639352    -2.0602861540
   21      H       0.2100381059     0.3972024827    -2.5719378162
   22      C      -1.2206607404     0.0792333446    -0.6206040686
   23      C      -1.6891671449     1.2113192652    -1.2508538128
   24      H      -1.0999874058     2.1191760164    -1.2040103610
   25      C      -1.9311938769    -1.1110523429    -0.6674505918
   26      H      -1.5553041620    -2.0085646149    -0.1941675364
   27      C      -3.1413106813    -1.1073025479    -1.3239523845
   28      H      -3.7284694757    -2.0170865645    -1.3408907176
   29      C      -2.8834235274     1.1952115733    -1.9807594763
   30      C      -3.6470298142     0.0253985917    -1.9711280690
   31      C      -5.0315499047    -0.0730372225    -2.5466211675
   32      H      -5.5056213074    -0.9620350117    -2.1262359634
   33      H      -5.0017656063    -0.2258413858    -3.6288905582
   34      C       2.5261982599    -0.4454773177     1.4553813521
   35      C      -5.8703844931     1.1673166040    -2.2300569114
   36      H      -6.9258722606     0.8939455820    -2.1865896056
   37      H      -5.6092345407     1.5167083973    -1.2236324918
   38      C      -5.6816113282     2.2093887696    -3.2855087595
   39      C      -6.7736370952     2.6542222051    -3.9791382304
   40      H      -7.7582807813     2.3288786303    -3.6607519448
   41      C      -6.6908772294     3.4899930705    -5.1129296968
   42      C      -7.8508598450     3.9206841036    -5.7609545443
   43      N      -8.8267215523     4.2669082322    -6.2926410572
   44      C      -5.3658708230     3.8352309053    -5.5709240499
   45      C      -4.2617040905     3.3884859602    -4.8386466297
   46      H      -3.2920172438     3.7207009922    -5.1844636271
   47      C      -4.3586711978     2.5951216749    -3.7113217850
   48      C      -5.1573947222     4.6114177966    -6.7226933167
   49      N      -4.9779609210     5.2537722683    -7.6731409959
   50      C      -3.1305276798     2.4612001255    -2.8169256895
   51      C      -1.8572231790     2.6362138822    -3.6259903487
   52      C      -1.3592756389     1.7853463432    -4.5941805197
   53      H      -1.8975650594     0.8856430925    -4.8684878750
   54      C      -0.1761899027     2.1298491543    -5.2353709239
   55      H       0.2209093637     1.4888696735    -6.0121626662
   56      C       0.4895503774     3.3076876508    -4.9039110355
   57      H       1.4047837690     3.5672986792    -5.4200049616
   58      C      -0.0151008427     4.1595485306    -3.9305983996
   59      H       0.5021256574     5.0792836727    -3.6872256360
   60      C      -1.1980169567     3.8147873182    -3.2898007310
   61      C      -1.9666031075     4.4864833627    -2.2444605013
   62      C      -1.7529107553     5.6926014931    -1.5962693328
   63      H      -0.8994043310     6.3129740646    -1.8419217617
   64      C      -2.6622875313     6.1007189524    -0.6295398678
   65      H      -2.5154837472     7.0424791813    -0.1171208113
   66      C      -3.7682283278     5.3141774476    -0.3231027370
   67      H      -4.4748308713     5.6519592145     0.4239418295
   68      C      -3.9848036656     4.1068489916    -0.9759810602
   69      H      -4.8615372956     3.5147646564    -0.7463820228
   70      C      -3.0772772680     3.6968203564    -1.9336206513
   71      C       3.6131037979     0.4092649898     2.1261956108
   72      H       4.5829343711     0.2524734768     1.6582522680
   73      H       3.7279429080     0.1449553205     3.1754821212
   74      H       3.3705435736     1.4694941076     2.0643054589
   75      C       2.8837009267    -1.9451382999     1.5589217775
   76      H       3.8376842863    -2.1431675112     1.0704530650
   77      H       2.1242310496    -2.5655729481     1.0821795531
   78      H       2.9654984088    -2.2487086227     2.6024335456
 ----------------------------------------------------------------
