 Q-Chem 5.0, Q-Chem, Inc., Pleasanton, CA (2017)
 Q-Chem 5.0.1 for Intel X86 EM64T Linux

User input:
--------------------------------------------------------------
$rem
threads 8
jobtype	sp
method PBEh-3c
basis def2-mSVP
mem_static	1024
mem_total	8000
sym_ignore	true
unrestricted true
scf_convergence	9
solvent_method	pcm
$end

$molecule
read moms1opt_tol.mol
$end

$solvent
dielectric	3.00
$end

$pcm
theory iefpcm
$end
--------------------------------------------------------------

   17   -1855.5370007609      6.13E-10 Convergence criterion met
 Total energy in the final basis set = -1855.53700076
 Total job time:  1490.82s(wall), 4291.28s(cpu)
        *  Thank you very much for using Q-Chem.  Have a nice day.  *
 Q-Chem 5.0, Q-Chem, Inc., Pleasanton, CA (2017)
 Q-Chem 5.0.1 for Intel X86 EM64T Linux

User input:
--------------------------------------------------------------

$rem
threads 8
jobtype opt
method PBEh-3c
basis def2-mSVP
scf_guess	read
mem_static      1024
mem_total       8000
sym_ignore      true
unrestricted true
mom_start       1
scf_algorithm	diis
scf_max_cycles	250
solvent_method	pcm
geom_opt_tol_energy 25
geom_opt_tol_gradient 75
$end

$solvent
dielectric      3.00
$end

$pcm
theory iefpcm
$end

$occupied
1 2 3 4 5 6 7 8 9 10 11 12 13 14 15 16 17 18 19 20 21 22 23 24 25 26 27 28 29 30 31 32 33 34 35 36 37 38 39 40 41 42 43 44 45 46 47 48 49 50 51 52 53 54 55 56 57 58 59 60 61 62 63 64 65 66 67 68 69 70 71 72 73 74 75 76 77 78 79 80 81 82 83 84 85 86 87 88 89 90 91 92 93 94 95 96 97 98 99 100 101 102 103 104 105 106 107 108 109 110 111 112 113 114 115 116 117 118 119 120 121 122 123 124 125 126 127 128 129 130 131 132 133 134 135 136 137 138 139 140 141 142 143 144 145 146 147 148 149 150 151 152 153 154 155 156 157 159
1 2 3 4 5 6 7 8 9 10 11 12 13 14 15 16 17 18 19 20 21 22 23 24 25 26 27 28 29 30 31 32 33 34 35 36 37 38 39 40 41 42 43 44 45 46 47 48 49 50 51 52 53 54 55 56 57 58 59 60 61 62 63 64 65 66 67 68 69 70 71 72 73 74 75 76 77 78 79 80 81 82 83 84 85 86 87 88 89 90 91 92 93 94 95 96 97 98 99 100 101 102 103 104 105 106 107 108 109 110 111 112 113 114 115 116 117 118 119 120 121 122 123 124 125 126 127 128 129 130 131 132 133 134 135 136 137 138 139 140 141 142 143 144 145 146 147 148 149 150 151 152 153 154 155 156 157 158
$end

$molecule
read
$end

--------------------------------------------------------------

   19   -1855.4384286967      6.61E-09 Convergence criterion met
 Total energy in the final basis set = -1855.43842870
   16   -1855.4384812881      9.58E-09 Convergence criterion met
 Total energy in the final basis set = -1855.43848129
   17   -1855.4383831978      6.48E-09 Convergence criterion met
 Total energy in the final basis set = -1855.43838320
   17   -1855.4386671200      5.98E-09 Convergence criterion met
 Total energy in the final basis set = -1855.43866712
   17   -1855.4386650360      4.96E-09 Convergence criterion met
 Total energy in the final basis set = -1855.43866504
   17   -1855.4386716531      5.82E-09 Convergence criterion met
 Total energy in the final basis set = -1855.43867165
   17   -1855.4386707632      6.32E-09 Convergence criterion met
 Total energy in the final basis set = -1855.43867076
   17   -1855.4386818639      7.24E-09 Convergence criterion met
 Total energy in the final basis set = -1855.43868186
   17   -1855.4386849066      9.44E-09 Convergence criterion met
 Total energy in the final basis set = -1855.43868491
   17   -1855.4386884954      8.55E-09 Convergence criterion met
 Total energy in the final basis set = -1855.43868850

             Standard Nuclear Orientation (Angstroms)
    I     Atom           X                Y                Z
 ----------------------------------------------------------------
    1      N       0.0260096890     0.0878930938     0.0769409132
    2      C       0.0092305635     0.0161220143     1.4545986418
    3      C       1.1949257387     0.1021876730    -0.6540429922
    4      C       1.1967353509    -0.2351381456     2.1641263079
    5      C       1.1046798808    -0.3556616850     3.5432330573
    6      H       1.9908148068    -0.5816958395     4.1201829975
    7      C      -0.0999581212    -0.1989083966     4.2095563996
    8      H      -0.1338297970    -0.2982562441     5.2858353852
    9      C      -1.2605363579     0.0974161584     3.4980489421
   10      H      -2.1980859480     0.2481069366     4.0144464478
   11      C      -1.2131475275     0.2033255258     2.1306642114
   12      H      -2.1107338246     0.4463413751     1.5815537236
   13      C       2.4288861434    -0.0903068203    -0.0029849838
   14      C       3.5769255146    -0.0605267564    -0.7806682269
   15      H       4.5389962808    -0.2266217162    -0.3167721485
   16      C       3.5297040330     0.1601916627    -2.1476762391
   17      H       4.4471758095     0.1831108819    -2.7196671139
   18      C       2.3028748845     0.3365096062    -2.7820977103
   19      H       2.2501384732     0.5028031051    -3.8488898204
   20      C       1.1429539473     0.2952066562    -2.0509392674
   21      H       0.2024510878     0.4245310011    -2.5647974481
   22      C      -1.2312758186     0.0681437795    -0.6154129830
   23      C      -1.6960535866     1.1991513422    -1.2481410059
   24      H      -1.1090603982     2.1073804479    -1.1929097267
   25      C      -1.9433195838    -1.1210702733    -0.6583236336
   26      H      -1.5725016083    -2.0156105547    -0.1752082118
   27      C      -3.1504517771    -1.1176294381    -1.3208453897
   28      H      -3.7412413371    -2.0251123578    -1.3330216515
   29      C      -2.8825628836     1.1828012958    -1.9881990857
   30      C      -3.6468321637     0.0126117731    -1.9798162716
   31      C      -5.0239907079    -0.0824505062    -2.5692536949
   32      H      -5.4983667698    -0.9829013482    -2.1746488916
   33      H      -4.9803455264    -0.2114116291    -3.6541378279
   34      C       2.5175081031    -0.4287812459     1.4644630751
   35      C      -5.8725477762     1.1488135711    -2.2385010263
   36      H      -6.9260125958     0.8667207389    -2.2013388090
   37      H      -5.6176108220     1.4916780511    -1.2281631928
   38      C      -5.6869096311     2.2058084988    -3.2807086006
   39      C      -6.7798014535     2.6626026794    -3.9640387838
   40      H      -7.7640082269     2.3318637916    -3.6498687134
   41      C      -6.6981068899     3.5114595730    -5.0889145049
   42      C      -7.8573824682     3.9502549706    -5.7317698339
   43      N      -8.8301430890     4.3072637292    -6.2623426000
   44      C      -5.3727651508     3.8522024129    -5.5506704717
   45      C      -4.2675341367     3.3953165781    -4.8273312125
   46      H      -3.2955364713     3.7169495882    -5.1781005785
   47      C      -4.3646829107     2.5971714607    -3.7036423063
   48      C      -5.1669711132     4.6312132398    -6.7010235319
   49      N      -4.9929573302     5.2769028499    -7.6500751652
   50      C      -3.1251193523     2.4521052592    -2.8227805807
   51      C      -1.8601434967     2.6224659608    -3.6509747443
   52      C      -1.3806124888     1.7721629251    -4.6287296523
   53      H      -1.9262275205     0.8755786559    -4.8986888070
   54      C      -0.2013164612     2.1084374664    -5.2820890489
   55      H       0.1823536182     1.4659323802    -6.0643688325
   56      C       0.4784484178     3.2786260930    -4.9535584948
   57      H       1.3901022082     3.5323124917    -5.4788594674
   58      C      -0.0077736336     4.1311495330    -3.9715903586
   59      H       0.5207872033     5.0451462791    -3.7307984507
   60      C      -1.1858840815     3.7947366459    -3.3182113077
   61      C      -1.9357717402     4.4709756194    -2.2621407552
   62      C      -1.7042139705     5.6721788040    -1.6106444991
   63      H      -0.8485902705     6.2864828419    -1.8635309567
   64      C      -2.5979435009     6.0829577328    -0.6304604632
   65      H      -2.4372149968     7.0212290135    -0.1158848350
   66      C      -3.7051212418     5.3029417905    -0.3115887820
   67      H      -4.3974238756     5.6419953483     0.4481927473
   68      C      -3.9392522908     4.1000350291    -0.9662349145
   69      H      -4.8144735047     3.5101049632    -0.7246296642
   70      C      -3.0490611867     3.6897031790    -1.9401878583
   71      C       3.5863579195     0.4464757776     2.1392095597
   72      H       4.5609768943     0.3076031629     1.6753780281
   73      H       3.7014058792     0.1859547440     3.1895623326
   74      H       3.3242011058     1.5018590882     2.0751381406
   75      C       2.9021749574    -1.9213675843     1.5729646422
   76      H       3.8628531687    -2.1038668180     1.0916451351
   77      H       2.1569815610    -2.5567809352     1.0935395144
   78      H       2.9831005470    -2.2218789955     2.6175418056
 ----------------------------------------------------------------

   17   -1855.4386917818      8.09E-09 Convergence criterion met
 Total energy in the final basis set = -1855.43869178
 Final energy is   -1855.43869178177
 **  OPTIMIZATION CONVERGED  **

                    Orbital Energies (a.u.)
 --------------------------------------------------------------

 Alpha MOs
 -- Occupied --
-14.786 -14.595 -14.591 -10.556 -10.556 -10.526 -10.517 -10.514
-10.514 -10.497 -10.495 -10.494 -10.493 -10.493 -10.491 -10.490
-10.488 -10.487 -10.482 -10.480 -10.480 -10.479 -10.470 -10.463
-10.460 -10.459 -10.458 -10.455 -10.454 -10.454 -10.453 -10.452
-10.452 -10.449 -10.447 -10.446 -10.445 -10.445 -10.443 -10.442
-10.435 -10.434 -10.432 -10.431 -10.430 -10.426 -10.425  -1.162
 -1.021  -1.013  -1.011  -0.986  -0.973  -0.961  -0.958  -0.952
 -0.942  -0.914  -0.909  -0.907  -0.889  -0.877  -0.871  -0.865
 -0.859  -0.841  -0.838  -0.831  -0.811  -0.809  -0.805  -0.776
 -0.769  -0.766  -0.748  -0.726  -0.720  -0.716  -0.707  -0.690
 -0.678  -0.670  -0.669  -0.664  -0.662  -0.655  -0.650  -0.632
 -0.598  -0.588  -0.587  -0.583  -0.581  -0.575  -0.574  -0.565
 -0.554  -0.548  -0.547  -0.544  -0.538  -0.532  -0.530  -0.527
 -0.523  -0.514  -0.513  -0.506  -0.501  -0.496  -0.489  -0.489
 -0.486  -0.483  -0.481  -0.478  -0.473  -0.470  -0.468  -0.463
 -0.461  -0.454  -0.453  -0.449  -0.440  -0.437  -0.434  -0.428
 -0.427  -0.423  -0.418  -0.415  -0.412  -0.411  -0.404  -0.399
 -0.396  -0.395  -0.393  -0.388  -0.381  -0.379  -0.369  -0.352
 -0.344  -0.339  -0.336  -0.335  -0.330  -0.329  -0.323  -0.312
 -0.294  -0.289  -0.276  -0.265  -0.255  -0.116

 Beta MOs
 -- Occupied --
-14.797 -14.592 -14.586 -10.554 -10.554 -10.525 -10.518 -10.517
-10.516 -10.500 -10.498 -10.497 -10.497 -10.491 -10.489 -10.489
-10.486 -10.486 -10.482 -10.481 -10.480 -10.480 -10.470 -10.464
-10.461 -10.459 -10.458 -10.455 -10.454 -10.454 -10.453 -10.452
-10.452 -10.449 -10.448 -10.446 -10.445 -10.445 -10.444 -10.442
-10.434 -10.432 -10.431 -10.427 -10.427 -10.426 -10.423  -1.180
 -1.024  -1.017  -1.012  -0.987  -0.967  -0.961  -0.954  -0.952
 -0.938  -0.912  -0.910  -0.909  -0.891  -0.877  -0.871  -0.868
 -0.858  -0.843  -0.838  -0.826  -0.811  -0.808  -0.807  -0.776
 -0.772  -0.767  -0.746  -0.727  -0.722  -0.715  -0.708  -0.687
 -0.678  -0.672  -0.668  -0.667  -0.662  -0.655  -0.650  -0.633
 -0.601  -0.594  -0.591  -0.588  -0.582  -0.576  -0.575  -0.565
 -0.556  -0.551  -0.547  -0.544  -0.542  -0.535  -0.531  -0.526
 -0.523  -0.514  -0.513  -0.510  -0.506  -0.496  -0.494  -0.492
 -0.487  -0.483  -0.482  -0.479  -0.473  -0.471  -0.469  -0.466
 -0.461  -0.457  -0.451  -0.449  -0.447  -0.438  -0.432  -0.430
 -0.426  -0.423  -0.421  -0.414  -0.412  -0.410  -0.407  -0.398
 -0.395  -0.391  -0.390  -0.384  -0.375  -0.368  -0.362  -0.353
 -0.344  -0.342  -0.339  -0.336  -0.334  -0.334  -0.322  -0.314
 -0.296  -0.292  -0.288  -0.264  -0.256  -0.227

          Ground-State Mulliken Net Atomic Charges

     Atom                 Charge (a.u.)    Spin (a.u.)
  --------------------------------------------------------
      1 N                    -0.610127      -0.439989
      2 C                     0.290387       0.096080
      3 C                     0.299369       0.091628
      4 C                     0.195067      -0.219821
      5 C                    -0.307837       0.144643
      6 H                     0.260236      -0.006827
      7 C                    -0.201354      -0.242750
      8 H                     0.272319       0.013004
      9 C                    -0.243828       0.126993
     10 H                     0.274229      -0.005806
     11 C                    -0.261019      -0.176546
     12 H                     0.310508       0.009380
     13 C                     0.187785      -0.223610
     14 C                    -0.305344       0.147059
     15 H                     0.259535      -0.006949
     16 C                    -0.201346      -0.249362
     17 H                     0.271873       0.013339
     18 C                    -0.240291       0.128595
     19 H                     0.273322      -0.005848
     20 C                    -0.268153      -0.179236
     21 H                     0.320837       0.009995
     22 C                     0.137869       0.034922
     23 C                    -0.278738      -0.029457
     24 H                     0.293797       0.001202
     25 C                    -0.218319      -0.030131
     26 H                     0.261724       0.001609
     27 C                    -0.316260       0.014009
     28 H                     0.251886      -0.001604
     29 C                     0.218834       0.019804
     30 C                     0.070818      -0.021496
     31 C                    -0.513079       0.009653
     32 H                     0.243695      -0.001489
     33 H                     0.268472      -0.001903
     34 C                    -0.240182       0.036956
     35 C                    -0.544950      -0.014238
     36 H                     0.250882       0.000356
     37 H                     0.222961       0.012572
     38 C                     0.097217       0.163663
     39 C                    -0.338425      -0.088982
     40 H                     0.217926       0.003607
     41 C                    -0.013045       0.328942
     42 C                    -0.058340      -0.088811
     43 N                    -0.294790       0.205033
     44 C                    -0.003218       0.249064
     45 C                    -0.297100      -0.145979
     46 H                     0.245292       0.007371
     47 C                     0.103379       0.249585
     48 C                    -0.044606      -0.067129
     49 N                    -0.284278       0.148727
     50 C                    -0.404191      -0.016103
     51 C                     0.029943       0.006017
     52 C                    -0.270606      -0.001365
     53 H                     0.245745       0.000536
     54 C                    -0.257663       0.002273
     55 H                     0.239564      -0.000105
     56 C                    -0.232661      -0.002553
     57 H                     0.239188       0.000170
     58 C                    -0.347926       0.002468
     59 H                     0.229632      -0.000104
     60 C                     0.155694      -0.004151
     61 C                     0.114719       0.014810
     62 C                    -0.338651      -0.011792
     63 H                     0.225283       0.000790
     64 C                    -0.241844       0.022615
     65 H                     0.236639      -0.001392
     66 C                    -0.239063      -0.013701
     67 H                     0.237249       0.000763
     68 C                    -0.300796       0.020967
     69 H                     0.239465      -0.001356
     70 C                     0.166311       0.003169
     71 C                    -0.623472      -0.017091
     72 H                     0.246331       0.000141
     73 H                     0.245549       0.000221
     74 H                     0.254723       0.000498
     75 C                    -0.602124      -0.025275
     76 H                     0.247297      -0.000639
     77 H                     0.243909       0.001200
     78 H                     0.246167      -0.000841
  --------------------------------------------------------
  Sum of atomic charges =     0.000000

                    Cartesian Multipole Moments
 -----------------------------------------------------------------
    Charge (ESU x 10^10)
                 0.0000
    Dipole Moment (Debye)
         X      30.7218      Y     -19.6763      Z      29.0936
       Tot      46.6629
    Quadrupole Moments (Debye-Ang)
        XX    -424.1247     XY     131.7867     YY    -350.5093
        XZ    -188.7831     YZ     128.4771     ZZ    -416.9192

 Total job time:  17662.97s(wall), 51582.53s(cpu)
        *  Thank you very much for using Q-Chem.  Have a nice day.  *
