 Q-Chem 5.0, Q-Chem, Inc., Pleasanton, CA (2017)
 Q-Chem 5.0.1 for Intel X86 EM64T Linux

User input:
--------------------------------------------------------------
$rem
threads 8
jobtype	sp
method PBEh-3c
basis def2-mSVP
mem_static	1024
mem_total	8000
sym_ignore	true
unrestricted true
scf_convergence	9
solvent_method	pcm
$end

$molecule
read moms1opt_tol.mol
$end

$solvent
dielectric	3.00
$end

$pcm
theory iefpcm
$end
--------------------------------------------------------------

   17   -1855.5370007609      6.13E-10 Convergence criterion met
 Total energy in the final basis set = -1855.53700076
 Total job time:  1625.57s(wall), 4569.86s(cpu)
        *  Thank you very much for using Q-Chem.  Have a nice day.  *
 Q-Chem 5.0, Q-Chem, Inc., Pleasanton, CA (2017)
 Q-Chem 5.0.1 for Intel X86 EM64T Linux

User input:
--------------------------------------------------------------

$rem
threads 8
jobtype opt
method PBEh-3c
basis def2-mSVP
scf_guess	read
mem_static      1024
mem_total       8000
sym_ignore      true
unrestricted true
mom_start       1
scf_algorithm	diis
scf_max_cycles	250
solvent_method	pcm
geom_opt_tol_energy 25
geom_opt_tol_gradient 75
$end

$solvent
dielectric      3.00
$end

$pcm
theory iefpcm
$end

$occupied
1 2 3 4 5 6 7 8 9 10 11 12 13 14 15 16 17 18 19 20 21 22 23 24 25 26 27 28 29 30 31 32 33 34 35 36 37 38 39 40 41 42 43 44 45 46 47 48 49 50 51 52 53 54 55 56 57 58 59 60 61 62 63 64 65 66 67 68 69 70 71 72 73 74 75 76 77 78 79 80 81 82 83 84 85 86 87 88 89 90 91 92 93 94 95 96 97 98 99 100 101 102 103 104 105 106 107 108 109 110 111 112 113 114 115 116 117 118 119 120 121 122 123 124 125 126 127 128 129 130 131 132 133 134 135 136 137 138 139 140 141 142 143 144 145 146 147 148 149 150 151 152 153 154 155 156 157 159
1 2 3 4 5 6 7 8 9 10 11 12 13 14 15 16 17 18 19 20 21 22 23 24 25 26 27 28 29 30 31 32 33 34 35 36 37 38 39 40 41 42 43 44 45 46 47 48 49 50 51 52 53 54 55 56 57 58 59 60 61 62 63 64 65 66 67 68 69 70 71 72 73 74 75 76 77 78 79 80 81 82 83 84 85 86 87 88 89 90 91 92 93 94 95 96 97 98 99 100 101 102 103 104 105 106 107 108 109 110 111 112 113 114 115 116 117 118 119 120 121 122 123 124 125 126 127 128 129 130 131 132 133 134 135 136 137 138 139 140 141 142 143 144 145 146 147 148 149 150 151 152 153 154 155 156 157 158
$end

$molecule
read
$end

--------------------------------------------------------------

   19   -1855.4384286967      6.61E-09 Convergence criterion met
 Total energy in the final basis set = -1855.43842870
   16   -1855.4384812881      9.58E-09 Convergence criterion met
 Total energy in the final basis set = -1855.43848129
   17   -1855.4383831978      6.48E-09 Convergence criterion met
 Total energy in the final basis set = -1855.43838320
   17   -1855.4386671199      5.98E-09 Convergence criterion met
 Total energy in the final basis set = -1855.43866712
   17   -1855.4386650360      4.96E-09 Convergence criterion met
 Total energy in the final basis set = -1855.43866504

                    Orbital Energies (a.u.)
 --------------------------------------------------------------

 Alpha MOs
 -- Occupied --
-14.786 -14.595 -14.591 -10.556 -10.556 -10.526 -10.517 -10.514
-10.514 -10.497 -10.495 -10.494 -10.493 -10.493 -10.491 -10.490
-10.488 -10.487 -10.482 -10.480 -10.480 -10.479 -10.470 -10.463
-10.460 -10.459 -10.458 -10.455 -10.454 -10.454 -10.453 -10.452
-10.452 -10.449 -10.447 -10.446 -10.445 -10.445 -10.443 -10.442
-10.435 -10.434 -10.432 -10.431 -10.430 -10.426 -10.425  -1.162
 -1.021  -1.013  -1.011  -0.986  -0.973  -0.961  -0.958  -0.952
 -0.942  -0.914  -0.909  -0.907  -0.889  -0.877  -0.871  -0.865
 -0.859  -0.841  -0.838  -0.831  -0.811  -0.809  -0.805  -0.776
 -0.769  -0.766  -0.748  -0.726  -0.720  -0.716  -0.707  -0.690
 -0.678  -0.670  -0.669  -0.664  -0.662  -0.655  -0.650  -0.632
 -0.598  -0.588  -0.587  -0.583  -0.581  -0.575  -0.574  -0.565
 -0.554  -0.548  -0.547  -0.544  -0.538  -0.532  -0.530  -0.527
 -0.523  -0.514  -0.513  -0.506  -0.501  -0.496  -0.489  -0.489
 -0.486  -0.483  -0.481  -0.478  -0.473  -0.470  -0.468  -0.463
 -0.461  -0.454  -0.453  -0.449  -0.440  -0.437  -0.434  -0.428
 -0.427  -0.423  -0.418  -0.415  -0.412  -0.411  -0.404  -0.399
 -0.396  -0.395  -0.393  -0.388  -0.381  -0.379  -0.369  -0.351
 -0.344  -0.339  -0.336  -0.335  -0.330  -0.329  -0.323  -0.312
 -0.294  -0.289  -0.276  -0.265  -0.255  -0.116

 Beta MOs
 -- Occupied --
-14.797 -14.592 -14.586 -10.554 -10.554 -10.525 -10.518 -10.517
-10.516 -10.500 -10.498 -10.497 -10.497 -10.491 -10.489 -10.489
-10.486 -10.486 -10.482 -10.481 -10.480 -10.480 -10.470 -10.464
-10.461 -10.459 -10.458 -10.455 -10.454 -10.454 -10.453 -10.452
-10.452 -10.449 -10.448 -10.446 -10.445 -10.445 -10.444 -10.442
-10.434 -10.432 -10.431 -10.427 -10.427 -10.426 -10.423  -1.180
 -1.024  -1.017  -1.012  -0.987  -0.967  -0.961  -0.955  -0.952
 -0.938  -0.912  -0.910  -0.909  -0.891  -0.877  -0.871  -0.868
 -0.858  -0.843  -0.838  -0.826  -0.811  -0.808  -0.807  -0.776
 -0.772  -0.767  -0.746  -0.727  -0.722  -0.715  -0.708  -0.687
 -0.678  -0.672  -0.668  -0.667  -0.662  -0.655  -0.650  -0.633
 -0.601  -0.594  -0.591  -0.588  -0.582  -0.576  -0.575  -0.565
 -0.556  -0.551  -0.547  -0.544  -0.542  -0.535  -0.531  -0.526
 -0.523  -0.514  -0.513  -0.510  -0.506  -0.496  -0.494  -0.492
 -0.487  -0.483  -0.482  -0.479  -0.473  -0.471  -0.469  -0.466
 -0.461  -0.457  -0.451  -0.449  -0.447  -0.438  -0.432  -0.430
 -0.426  -0.423  -0.421  -0.414  -0.412  -0.410  -0.407  -0.398
 -0.395  -0.391  -0.390  -0.384  -0.376  -0.368  -0.362  -0.353
 -0.344  -0.342  -0.339  -0.336  -0.334  -0.334  -0.322  -0.314
 -0.296  -0.292  -0.288  -0.264  -0.256  -0.227

          Ground-State Mulliken Net Atomic Charges

     Atom                 Charge (a.u.)    Spin (a.u.)
  --------------------------------------------------------
      1 N                    -0.609987      -0.439800
      2 C                     0.291033       0.096251
      3 C                     0.300034       0.091443
      4 C                     0.194688      -0.219661
      5 C                    -0.307946       0.144594
      6 H                     0.260163      -0.006825
      7 C                    -0.201311      -0.242601
      8 H                     0.272324       0.012997
      9 C                    -0.243622       0.126900
     10 H                     0.274258      -0.005801
     11 C                    -0.261107      -0.176620
     12 H                     0.310172       0.009391
     13 C                     0.188116      -0.223953
     14 C                    -0.305667       0.147362
     15 H                     0.259551      -0.006961
     16 C                    -0.201175      -0.250320
     17 H                     0.271916       0.013392
     18 C                    -0.240468       0.128983
     19 H                     0.273275      -0.005865
     20 C                    -0.268066      -0.179765
     21 H                     0.321150       0.010026
     22 C                     0.137459       0.034896
     23 C                    -0.278352      -0.029087
     24 H                     0.293760       0.001183
     25 C                    -0.218156      -0.029619
     26 H                     0.261407       0.001584
     27 C                    -0.316311       0.013646
     28 H                     0.251992      -0.001589
     29 C                     0.218455       0.019598
     30 C                     0.070573      -0.020858
     31 C                    -0.512458       0.009602
     32 H                     0.243542      -0.001485
     33 H                     0.268484      -0.001866
     34 C                    -0.240427       0.036982
     35 C                    -0.545489      -0.014266
     36 H                     0.250877       0.000362
     37 H                     0.222905       0.012605
     38 C                     0.097366       0.164657
     39 C                    -0.338438      -0.089785
     40 H                     0.217989       0.003645
     41 C                    -0.012942       0.328565
     42 C                    -0.058233      -0.088667
     43 N                    -0.294722       0.204649
     44 C                    -0.003457       0.249863
     45 C                    -0.296752      -0.145457
     46 H                     0.245497       0.007333
     47 C                     0.103475       0.248040
     48 C                    -0.044889      -0.067315
     49 N                    -0.284447       0.149253
     50 C                    -0.403755      -0.015857
     51 C                     0.027914       0.005984
     52 C                    -0.270487      -0.001320
     53 H                     0.246026       0.000530
     54 C                    -0.257644       0.002250
     55 H                     0.239567      -0.000105
     56 C                    -0.232475      -0.002527
     57 H                     0.239215       0.000169
     58 C                    -0.347954       0.002447
     59 H                     0.229660      -0.000104
     60 C                     0.156110      -0.004134
     61 C                     0.114411       0.014692
     62 C                    -0.338480      -0.011721
     63 H                     0.225281       0.000784
     64 C                    -0.242012       0.022558
     65 H                     0.236630      -0.001389
     66 C                    -0.238850      -0.013672
     67 H                     0.237214       0.000763
     68 C                    -0.301100       0.020995
     69 H                     0.239417      -0.001360
     70 C                     0.167051       0.003174
     71 C                    -0.624219      -0.016856
     72 H                     0.246418       0.000163
     73 H                     0.245636       0.000233
     74 H                     0.254849       0.000481
     75 C                    -0.601864      -0.025519
     76 H                     0.247416      -0.000658
     77 H                     0.243778       0.001223
     78 H                     0.246206      -0.000865
  --------------------------------------------------------
  Sum of atomic charges =     0.000000

                    Cartesian Multipole Moments
 -----------------------------------------------------------------
    Charge (ESU x 10^10)
                 0.0000
    Dipole Moment (Debye)
         X      30.6559      Y     -19.6056      Z      29.1646
       Tot      46.6341
    Quadrupole Moments (Debye-Ang)
        XX    -423.2005     XY     130.8959     YY    -349.7893
        XZ    -188.8890     YZ     128.4262     ZZ    -418.0650

             Standard Nuclear Orientation (Angstroms)
    I     Atom           X                Y                Z
 ----------------------------------------------------------------
    1      N       0.0289043647     0.0869098048     0.0737599283
    2      C       0.0097413109     0.0194777495     1.4516580696
    3      C       1.1989643276     0.0995314645    -0.6552970553
    4      C       1.1961846420    -0.2297482493     2.1638290511
    5      C       1.1020868427    -0.3448783964     3.5432280975
    6      H       1.9869546356    -0.5697533111     4.1224594718
    7      C      -0.1034017406    -0.1849751473     4.2072966291
    8      H      -0.1386399751    -0.2798583375     5.2839413077
    9      C      -1.2629829910     0.1083382452     3.4931160168
   10      H      -2.2012367877     0.2608795287     4.0076847566
   11      C      -1.2136905698     0.2087797104     2.1253360233
   12      H      -2.1106559658     0.4490641533     1.5741022406
   13      C       2.4318145218    -0.0923341265    -0.0016411985
   14      C       3.5812567331    -0.0646759435    -0.7771184956
   15      H       4.5424214645    -0.2303767632    -0.3112168015
   16      C       3.5366389359     0.1532837308    -2.1446725616
   17      H       4.4552132710     0.1745404728    -2.7149552124
   18      C       2.3111108678     0.3289210193    -2.7817803192
   19      H       2.2605791122     0.4930405993    -3.8490022472
   20      C       1.1497959056     0.2897835119    -2.0527874003
   21      H       0.2103967513     0.4187985599    -2.5687172476
   22      C      -1.2276471869     0.0663238953    -0.6204168861
   23      C      -1.6940680093     1.1981083809    -1.2501601847
   24      H      -1.1088143854     2.1072294937    -1.1922478699
   25      C      -1.9378447543    -1.1238539515    -0.6660951572
   26      H      -1.5656559021    -2.0186896419    -0.1845821153
   27      C      -3.1458737816    -1.1200456784    -1.3270292809
   28      H      -3.7362215367    -2.0277956586    -1.3397935287
   29      C      -2.8809042815     1.1819190526    -1.9899935268
   30      C      -3.6445036418     0.0113876732    -1.9825219821
   31      C      -5.0238651238    -0.0830755470    -2.5671306031
   32      H      -5.4977017983    -0.9821841682    -2.1687315905
   33      H      -4.9845615943    -0.2145930005    -3.6519007162
   34      C       2.5170116790    -0.4300699361     1.4660272576
   35      C      -5.8704782189     1.1490364830    -2.2357198113
   36      H      -6.9240464770     0.8674795926    -2.1966094047
   37      H      -5.6135119817     1.4924286390    -1.2260068117
   38      C      -5.6862895055     2.2052095558    -3.2788240869
   39      C      -6.7798917001     2.6617618189    -3.9612238757
   40      H      -7.7638141909     2.3311482355    -3.6460421221
   41      C      -6.6993165660     3.5105474361    -5.0861478613
   42      C      -7.8595525127     3.9482127559    -5.7281993702
   43      N      -8.8341071692     4.3027091207    -6.2571019130
   44      C      -5.3745617766     3.8516787998    -5.5492147513
   45      C      -4.2685038488     3.3948801969    -4.8268106049
   46      H      -3.2967893720     3.7165310949    -5.1783909846
   47      C      -4.3647319963     2.5970152469    -3.7030346018
   48      C      -5.1698465484     4.6312858693    -6.6992919110
   49      N      -4.9957373647     5.2771184680    -7.6482486198
   50      C      -3.1244912144     2.4521077152    -2.8229603423
   51      C      -1.8601165117     2.6250938468    -3.6518613385
   52      C      -1.3800947606     1.7764740046    -4.6309425396
   53      H      -1.9243914071     0.8791717919    -4.9011822200
   54      C      -0.2022168861     2.1154892140    -5.2853379727
   55      H       0.1818069175     1.4745871807    -6.0687720394
   56      C       0.4756207262     3.2867461396    -4.9564750277
   57      H       1.3860559305     3.5427050575    -5.4827985478
   58      C      -0.0110029395     4.1373899502    -3.9731380204
   59      H       0.5160637115     5.0522002929    -3.7321730051
   60      C      -1.1877504148     3.7982938723    -3.3186756188
   61      C      -1.9381565959     4.4725537317    -2.2615471911
   62      C      -1.7082952637     5.6734962279    -1.6091405703
   63      H      -0.8538526795     6.2894033995    -1.8620544351
   64      C      -2.6020996461     6.0817950009    -0.6278386453
   65      H      -2.4427591111     7.0199122347    -0.1125680318
   66      C      -3.7074844180     5.2993948856    -0.3087632903
   67      H      -4.3998824617     5.6363159358     0.4518882783
   68      C      -3.9398716635     4.0966040728    -0.9642961266
   69      H      -4.8137362613     3.5046735795    -0.7223743937
   70      C      -3.0497816250     3.6889643720    -1.9393772721
   71      C       3.5909090245     0.4382071528     2.1410731187
   72      H       4.5650576417     0.2926459075     1.6783080813
   73      H       3.7039900874     0.1776107371     3.1915601643
   74      H       3.3359314209     1.4953113026     2.0763036023
   75      C       2.8924995738    -1.9251607505     1.5752017257
   76      H       3.8515491308    -2.1138381310     1.0929481110
   77      H       2.1429676027    -2.5564588151     1.0970354572
   78      H       2.9722523528    -2.2249128556     2.6201038301
 ----------------------------------------------------------------
