 Q-Chem 5.0, Q-Chem, Inc., Pleasanton, CA (2017)
 Q-Chem 5.0.1 for Intel X86 EM64T Linux

User input:
--------------------------------------------------------------
$rem
threads 8
jobtype	sp
method PBEh-3c
basis def2-mSVP
mem_static	1024
mem_total	8000
sym_ignore	true
unrestricted true
scf_convergence	9
solvent_method	pcm
$end

$molecule
read moms1opt_tol.mol
$end

$solvent
dielectric	2.50
$end

$pcm
theory iefpcm
$end
--------------------------------------------------------------

   17   -1855.5344578688      6.02E-10 Convergence criterion met
 Total energy in the final basis set = -1855.53445787
 Total job time:  1614.44s(wall), 4705.63s(cpu)
        *  Thank you very much for using Q-Chem.  Have a nice day.  *
 Q-Chem 5.0, Q-Chem, Inc., Pleasanton, CA (2017)
 Q-Chem 5.0.1 for Intel X86 EM64T Linux

User input:
--------------------------------------------------------------

$rem
threads 8
jobtype opt
method PBEh-3c
basis def2-mSVP
scf_guess	read
mem_static      1024
mem_total       8000
sym_ignore      true
unrestricted true
mom_start       1
scf_algorithm	diis
scf_max_cycles	250
solvent_method	pcm
geom_opt_tol_energy 25
geom_opt_tol_gradient 75
$end

$solvent
dielectric      2.50
$end

$pcm
theory iefpcm
$end

$occupied
1 2 3 4 5 6 7 8 9 10 11 12 13 14 15 16 17 18 19 20 21 22 23 24 25 26 27 28 29 30 31 32 33 34 35 36 37 38 39 40 41 42 43 44 45 46 47 48 49 50 51 52 53 54 55 56 57 58 59 60 61 62 63 64 65 66 67 68 69 70 71 72 73 74 75 76 77 78 79 80 81 82 83 84 85 86 87 88 89 90 91 92 93 94 95 96 97 98 99 100 101 102 103 104 105 106 107 108 109 110 111 112 113 114 115 116 117 118 119 120 121 122 123 124 125 126 127 128 129 130 131 132 133 134 135 136 137 138 139 140 141 142 143 144 145 146 147 148 149 150 151 152 153 154 155 156 157 159
1 2 3 4 5 6 7 8 9 10 11 12 13 14 15 16 17 18 19 20 21 22 23 24 25 26 27 28 29 30 31 32 33 34 35 36 37 38 39 40 41 42 43 44 45 46 47 48 49 50 51 52 53 54 55 56 57 58 59 60 61 62 63 64 65 66 67 68 69 70 71 72 73 74 75 76 77 78 79 80 81 82 83 84 85 86 87 88 89 90 91 92 93 94 95 96 97 98 99 100 101 102 103 104 105 106 107 108 109 110 111 112 113 114 115 116 117 118 119 120 121 122 123 124 125 126 127 128 129 130 131 132 133 134 135 136 137 138 139 140 141 142 143 144 145 146 147 148 149 150 151 152 153 154 155 156 157 158
$end

$molecule
read
$end

--------------------------------------------------------------

   19   -1855.4323951407      6.57E-09 Convergence criterion met
 Total energy in the final basis set = -1855.43239514
   16   -1855.4324339353      9.66E-09 Convergence criterion met
 Total energy in the final basis set = -1855.43243394
   17   -1855.4323036956      6.39E-09 Convergence criterion met
 Total energy in the final basis set = -1855.43230370
   16   -1855.4326066923      9.02E-09 Convergence criterion met
 Total energy in the final basis set = -1855.43260669
   16   -1855.4326058885      8.68E-09 Convergence criterion met
 Total energy in the final basis set = -1855.43260589
   16   -1855.4326174637      8.76E-09 Convergence criterion met
 Total energy in the final basis set = -1855.43261746
   16   -1855.4326209919      8.68E-09 Convergence criterion met
 Total energy in the final basis set = -1855.43262099
   16   -1855.4326298274      8.89E-09 Convergence criterion met
 Total energy in the final basis set = -1855.43262983
   17   -1855.4326331142      4.87E-09 Convergence criterion met
 Total energy in the final basis set = -1855.43263311

             Standard Nuclear Orientation (Angstroms)
    I     Atom           X                Y                Z
 ----------------------------------------------------------------
    1      N       0.0228758130     0.0886303360     0.0802732185
    2      C       0.0075016039     0.0082454605     1.4578261235
    3      C       1.1917235107     0.1141218026    -0.6507933227
    4      C       1.1959184575    -0.2443730493     2.1650139838
    5      C       1.1048478339    -0.3747463970     3.5432529433
    6      H       1.9920920713    -0.6019384641     4.1180373834
    7      C      -0.0997337761    -0.2259250935     4.2114072053
    8      H      -0.1327438967    -0.3329335507     5.2869716954
    9      C      -1.2610663169     0.0732098459     3.5027079077
   10      H      -2.1985541326     0.2189587400     4.0206100048
   11      C      -1.2145932838     0.1889573275     2.1360141650
   12      H      -2.1125159897     0.4351469392     1.5888770214
   13      C       2.4267528802    -0.0770780282    -0.0011664121
   14      C       3.5744604931    -0.0350582185    -0.7785267236
   15      H       4.5373477535    -0.1996508440    -0.3157954438
   16      C       3.5262599002     0.1964097973    -2.1437727455
   17      H       4.4437080658     0.2291438122    -2.7153088350
   18      C       2.2986856961     0.3706920065    -2.7768541953
   19      H       2.2442580811     0.5456779220    -3.8421269576
   20      C       1.1389099423     0.3168095143    -2.0462721646
   21      H       0.1979610007     0.4442710129    -2.5598521397
   22      C      -1.2348245032     0.0687090575    -0.6107605670
   23      C      -1.6988860302     1.1993860441    -1.2448018160
   24      H      -1.1122148951     2.1078919340    -1.1904488217
   25      C      -1.9487300636    -1.1197223118    -0.6512879389
   26      H      -1.5788424034    -2.0143433170    -0.1675855792
   27      C      -3.1563525976    -1.1152598420    -1.3128352237
   28      H      -3.7486295555    -2.0217972512    -1.3231424368
   29      C      -2.8850888991     1.1834783663    -1.9850099998
   30      C      -3.6516351353     0.0145594187    -1.9735313775
   31      C      -5.0298086329    -0.0780826278    -2.5607361835
   32      H      -5.5060393877    -0.9766282708    -2.1637168464
   33      H      -4.9879998587    -0.2084903613    -3.6454721164
   34      C       2.5171451070    -0.4281037469     1.4634216765
   35      C      -5.8738869722     1.1570070724    -2.2317200082
   36      H      -6.9281602666     0.8782072931    -2.1919848981
   37      H      -5.6160444849     1.5008346145    -1.2221396861
   38      C      -5.6863377558     2.2103768194    -3.2770994839
   39      C      -6.7784461473     2.6694632373    -3.9605601266
   40      H      -7.7637637434     2.3450039769    -3.6432774235
   41      C      -6.6950386021     3.5118912910    -5.0892425595
   42      C      -7.8550433450     3.9523631324    -5.7311921669
   43      N      -8.8292749166     4.3087620950    -6.2585042675
   44      C      -5.3692311958     3.8440506682    -5.5552969002
   45      C      -4.2652389212     3.3859449913    -4.8332519752
   46      H      -3.2926525119     3.7017115292    -5.1877215164
   47      C      -4.3632008108     2.5923151357    -3.7053410190
   48      C      -5.1607612454     4.6170032217    -6.7103485358
   49      N      -4.9815037141     5.2567409485    -7.6619180168
   50      C      -3.1248361063     2.4507444876    -2.8235762764
   51      C      -1.8588145438     2.6156419288    -3.6512325706
   52      C      -1.3825903440     1.7628025805    -4.6283818777
   53      H      -1.9333143143     0.8695234237    -4.8988673185
   54      C      -0.2023751510     2.0941624985    -5.2825859088
   55      H       0.1772999538     1.4508250284    -6.0661635074
   56      C       0.4818105839     3.2619207680    -4.9549041509
   57      H       1.3933965658     3.5128543956    -5.4816804685
   58      C      -0.0011599205     4.1169747579    -3.9735824016
   59      H       0.5302319256     5.0298605689    -3.7348321629
   60      C      -1.1804976880     3.7860118371    -3.3197684709
   61      C      -1.9295356292     4.4672933610    -2.2664049049
   62      C      -1.6960101602     5.6698830041    -1.6184027223
   63      H      -0.8384903619     6.2812905888    -1.8718671765
   64      C      -2.5907870808     6.0866232698    -0.6418235326
   65      H      -2.4289861119     7.0264686760    -0.1305216851
   66      C      -3.7012858850     5.3111282403    -0.3234808231
   67      H      -4.3950966135     5.6555436460     0.4324956570
   68      C      -3.9375269573     4.1068786601    -0.9743794373
   69      H      -4.8162822274     3.5214374418    -0.7349078426
   70      C      -3.0459067863     3.6902381681    -1.9444508316
   71      C       3.5831560314     0.4447680500     2.1455036698
   72      H       4.5586610092     0.3125219515     1.6815630484
   73      H       3.6984748638     0.1767731019     3.1939548868
   74      H       3.3182700628     1.4999054168     2.0895549421
   75      C       2.9066736264    -1.9202486143     1.5588902770
   76      H       3.8678363000    -2.0961812485     1.0760375132
   77      H       2.1636795368    -2.5541226238     1.0740658932
   78      H       2.9887475739    -2.2301377979     2.6006571639
 ----------------------------------------------------------------

   17   -1855.4326364068      5.09E-09 Convergence criterion met
 Total energy in the final basis set = -1855.43263641
 Final energy is   -1855.43263640678
 **  OPTIMIZATION CONVERGED  **

                    Orbital Energies (a.u.)
 --------------------------------------------------------------

 Alpha MOs
 -- Occupied --
-14.789 -14.591 -14.586 -10.559 -10.559 -10.527 -10.520 -10.518
-10.517 -10.501 -10.498 -10.497 -10.496 -10.496 -10.495 -10.494
-10.491 -10.487 -10.482 -10.481 -10.481 -10.481 -10.472 -10.467
-10.464 -10.458 -10.458 -10.454 -10.454 -10.453 -10.453 -10.453
-10.452 -10.448 -10.446 -10.445 -10.444 -10.443 -10.442 -10.437
-10.433 -10.432 -10.428 -10.428 -10.426 -10.423 -10.422  -1.164
 -1.023  -1.016  -1.012  -0.987  -0.968  -0.961  -0.956  -0.952
 -0.940  -0.913  -0.910  -0.909  -0.892  -0.878  -0.871  -0.868
 -0.859  -0.841  -0.838  -0.829  -0.811  -0.809  -0.808  -0.777
 -0.771  -0.767  -0.748  -0.727  -0.722  -0.717  -0.708  -0.688
 -0.678  -0.673  -0.669  -0.667  -0.662  -0.655  -0.649  -0.632
 -0.596  -0.591  -0.589  -0.583  -0.582  -0.578  -0.577  -0.565
 -0.555  -0.550  -0.548  -0.544  -0.541  -0.535  -0.533  -0.526
 -0.525  -0.515  -0.513  -0.506  -0.502  -0.496  -0.492  -0.489
 -0.487  -0.485  -0.483  -0.478  -0.474  -0.472  -0.470  -0.464
 -0.461  -0.457  -0.452  -0.451  -0.441  -0.437  -0.435  -0.429
 -0.426  -0.425  -0.417  -0.416  -0.415  -0.411  -0.405  -0.398
 -0.396  -0.391  -0.390  -0.385  -0.376  -0.376  -0.367  -0.349
 -0.342  -0.339  -0.335  -0.333  -0.332  -0.332  -0.323  -0.312
 -0.293  -0.289  -0.273  -0.262  -0.253  -0.112

 Beta MOs
 -- Occupied --
-14.800 -14.588 -14.581 -10.557 -10.557 -10.527 -10.521 -10.520
-10.520 -10.503 -10.501 -10.500 -10.500 -10.494 -10.493 -10.492
-10.489 -10.487 -10.483 -10.481 -10.481 -10.481 -10.472 -10.468
-10.465 -10.458 -10.458 -10.454 -10.454 -10.453 -10.453 -10.453
-10.452 -10.449 -10.446 -10.444 -10.444 -10.443 -10.442 -10.438
-10.433 -10.429 -10.428 -10.424 -10.424 -10.422 -10.420  -1.183
 -1.027  -1.020  -1.013  -0.988  -0.965  -0.962  -0.951  -0.950
 -0.936  -0.914  -0.910  -0.909  -0.895  -0.878  -0.873  -0.870
 -0.858  -0.843  -0.838  -0.824  -0.811  -0.810  -0.808  -0.777
 -0.775  -0.767  -0.747  -0.728  -0.724  -0.715  -0.709  -0.685
 -0.679  -0.675  -0.670  -0.667  -0.662  -0.654  -0.650  -0.632
 -0.602  -0.594  -0.593  -0.590  -0.581  -0.579  -0.578  -0.565
 -0.557  -0.553  -0.549  -0.544  -0.543  -0.538  -0.534  -0.527
 -0.525  -0.516  -0.513  -0.512  -0.505  -0.498  -0.495  -0.491
 -0.487  -0.485  -0.482  -0.478  -0.475  -0.473  -0.471  -0.469
 -0.461  -0.459  -0.451  -0.450  -0.449  -0.438  -0.434  -0.431
 -0.428  -0.422  -0.421  -0.417  -0.411  -0.409  -0.404  -0.398
 -0.395  -0.389  -0.386  -0.381  -0.372  -0.366  -0.357  -0.356
 -0.346  -0.339  -0.339  -0.335  -0.333  -0.329  -0.322  -0.315
 -0.299  -0.292  -0.287  -0.262  -0.254  -0.223

          Ground-State Mulliken Net Atomic Charges

     Atom                 Charge (a.u.)    Spin (a.u.)
  --------------------------------------------------------
      1 N                    -0.609983      -0.440670
      2 C                     0.288281       0.097409
      3 C                     0.297927       0.092003
      4 C                     0.195618      -0.219002
      5 C                    -0.306610       0.144073
      6 H                     0.257223      -0.006819
      7 C                    -0.199911      -0.241609
      8 H                     0.270225       0.012964
      9 C                    -0.242300       0.127325
     10 H                     0.272553      -0.005838
     11 C                    -0.259909      -0.176880
     12 H                     0.310483       0.009378
     13 C                     0.187900      -0.223322
     14 C                    -0.304021       0.146868
     15 H                     0.256408      -0.006959
     16 C                    -0.199795      -0.249539
     17 H                     0.269762       0.013369
     18 C                    -0.238176       0.129337
     19 H                     0.272312      -0.005889
     20 C                    -0.267560      -0.179971
     21 H                     0.322282       0.010023
     22 C                     0.139927       0.034712
     23 C                    -0.280813      -0.030222
     24 H                     0.293563       0.001223
     25 C                    -0.218966      -0.031256
     26 H                     0.258424       0.001669
     27 C                    -0.314442       0.015070
     28 H                     0.249504      -0.001655
     29 C                     0.219679       0.021046
     30 C                     0.071531      -0.023394
     31 C                    -0.511823       0.010045
     32 H                     0.240891      -0.001551
     33 H                     0.269598      -0.002048
     34 C                    -0.241241       0.036881
     35 C                    -0.544125      -0.014365
     36 H                     0.249672       0.000337
     37 H                     0.219932       0.012973
     38 C                     0.098001       0.167310
     39 C                    -0.335774      -0.093277
     40 H                     0.215090       0.003896
     41 C                    -0.010503       0.332274
     42 C                    -0.057479      -0.091193
     43 N                    -0.288394       0.203965
     44 C                    -0.000630       0.245647
     45 C                    -0.294814      -0.146401
     46 H                     0.243485       0.007441
     47 C                     0.100551       0.252273
     48 C                    -0.043903      -0.067364
     49 N                    -0.278143       0.145422
     50 C                    -0.404414      -0.015428
     51 C                     0.029135       0.006308
     52 C                    -0.269325      -0.001286
     53 H                     0.244504       0.000587
     54 C                    -0.257134       0.002323
     55 H                     0.237307      -0.000108
     56 C                    -0.230832      -0.002569
     57 H                     0.236456       0.000174
     58 C                    -0.346305       0.002517
     59 H                     0.226629      -0.000104
     60 C                     0.156687      -0.004348
     61 C                     0.115408       0.015460
     62 C                    -0.336965      -0.012404
     63 H                     0.221761       0.000834
     64 C                    -0.239688       0.024197
     65 H                     0.233791      -0.001497
     66 C                    -0.236581      -0.014444
     67 H                     0.234564       0.000805
     68 C                    -0.298623       0.022129
     69 H                     0.237733      -0.001462
     70 C                     0.167627       0.004040
     71 C                    -0.621894      -0.016919
     72 H                     0.245055       0.000139
     73 H                     0.244207       0.000223
     74 H                     0.254965       0.000494
     75 C                    -0.600356      -0.025082
     76 H                     0.246348      -0.000634
     77 H                     0.243385       0.001194
     78 H                     0.245046      -0.000845
  --------------------------------------------------------
  Sum of atomic charges =     0.000000

                    Cartesian Multipole Moments
 -----------------------------------------------------------------
    Charge (ESU x 10^10)
                 0.0000
    Dipole Moment (Debye)
         X      30.1146      Y     -19.2398      Z      28.5290
       Tot      45.7271
    Quadrupole Moments (Debye-Ang)
        XX    -420.6313     XY     128.8362     YY    -348.7114
        XZ    -184.7508     YZ     125.2970     ZZ    -413.8648

 Total job time:  16866.41s(wall), 49755.65s(cpu)
        *  Thank you very much for using Q-Chem.  Have a nice day.  *
