 Q-Chem 5.0, Q-Chem, Inc., Pleasanton, CA (2017)
 Q-Chem 5.0.1 for Intel X86 EM64T Linux

User input:
--------------------------------------------------------------
$rem
threads 8
jobtype	sp
method PBEh-3c
basis def2-mSVP
mem_static	1024
mem_total	8000
sym_ignore	true
unrestricted true
scf_convergence	9
solvent_method	pcm
$end

$molecule
read moms1opt_tol.mol
$end

$solvent
dielectric	3.50
$end

$pcm
theory iefpcm
$end
--------------------------------------------------------------

   17   -1855.5389661390      6.20E-10 Convergence criterion met
 Total energy in the final basis set = -1855.53896614
 Total job time:  1836.54s(wall), 4979.25s(cpu)
        *  Thank you very much for using Q-Chem.  Have a nice day.  *
 Q-Chem 5.0, Q-Chem, Inc., Pleasanton, CA (2017)
 Q-Chem 5.0.1 for Intel X86 EM64T Linux

User input:
--------------------------------------------------------------

$rem
threads 8
jobtype opt
method PBEh-3c
basis def2-mSVP
scf_guess	read
mem_static      1024
mem_total       8000
sym_ignore      true
unrestricted true
mom_start       1
scf_algorithm	diis
scf_max_cycles	250
solvent_method	pcm
geom_opt_tol_energy 25
geom_opt_tol_gradient 75
$end

$solvent
dielectric      3.50
$end

$pcm
theory iefpcm
$end

$occupied
1 2 3 4 5 6 7 8 9 10 11 12 13 14 15 16 17 18 19 20 21 22 23 24 25 26 27 28 29 30 31 32 33 34 35 36 37 38 39 40 41 42 43 44 45 46 47 48 49 50 51 52 53 54 55 56 57 58 59 60 61 62 63 64 65 66 67 68 69 70 71 72 73 74 75 76 77 78 79 80 81 82 83 84 85 86 87 88 89 90 91 92 93 94 95 96 97 98 99 100 101 102 103 104 105 106 107 108 109 110 111 112 113 114 115 116 117 118 119 120 121 122 123 124 125 126 127 128 129 130 131 132 133 134 135 136 137 138 139 140 141 142 143 144 145 146 147 148 149 150 151 152 153 154 155 156 157 159
1 2 3 4 5 6 7 8 9 10 11 12 13 14 15 16 17 18 19 20 21 22 23 24 25 26 27 28 29 30 31 32 33 34 35 36 37 38 39 40 41 42 43 44 45 46 47 48 49 50 51 52 53 54 55 56 57 58 59 60 61 62 63 64 65 66 67 68 69 70 71 72 73 74 75 76 77 78 79 80 81 82 83 84 85 86 87 88 89 90 91 92 93 94 95 96 97 98 99 100 101 102 103 104 105 106 107 108 109 110 111 112 113 114 115 116 117 118 119 120 121 122 123 124 125 126 127 128 129 130 131 132 133 134 135 136 137 138 139 140 141 142 143 144 145 146 147 148 149 150 151 152 153 154 155 156 157 158
$end

$molecule
read
$end

--------------------------------------------------------------

   19   -1855.4429941807      6.68E-09 Convergence criterion met
 Total energy in the final basis set = -1855.44299418
   17   -1855.4430710908      5.57E-09 Convergence criterion met
 Total energy in the final basis set = -1855.44307109
   17   -1855.4429929269      8.03E-09 Convergence criterion met
 Total energy in the final basis set = -1855.44299293

                    Orbital Energies (a.u.)
 --------------------------------------------------------------

 Alpha MOs
 -- Occupied --
-14.784 -14.599 -14.595 -10.554 -10.553 -10.524 -10.514 -10.512
-10.511 -10.495 -10.493 -10.492 -10.491 -10.490 -10.489 -10.488
-10.486 -10.486 -10.482 -10.479 -10.479 -10.479 -10.469 -10.460
-10.459 -10.458 -10.457 -10.456 -10.455 -10.454 -10.453 -10.452
-10.452 -10.451 -10.449 -10.447 -10.446 -10.446 -10.446 -10.443
-10.438 -10.435 -10.434 -10.433 -10.432 -10.428 -10.427  -1.159
 -1.020  -1.011  -1.011  -0.985  -0.976  -0.965  -0.956  -0.952
 -0.944  -0.915  -0.909  -0.905  -0.886  -0.877  -0.871  -0.863
 -0.859  -0.840  -0.838  -0.833  -0.812  -0.809  -0.802  -0.776
 -0.768  -0.764  -0.747  -0.726  -0.718  -0.716  -0.707  -0.690
 -0.678  -0.669  -0.668  -0.662  -0.661  -0.655  -0.650  -0.632
 -0.600  -0.586  -0.585  -0.583  -0.580  -0.573  -0.572  -0.565
 -0.554  -0.549  -0.545  -0.544  -0.536  -0.531  -0.528  -0.527
 -0.521  -0.513  -0.513  -0.507  -0.501  -0.497  -0.488  -0.487
 -0.486  -0.483  -0.479  -0.478  -0.473  -0.467  -0.466  -0.462
 -0.460  -0.454  -0.453  -0.447  -0.440  -0.437  -0.432  -0.428
 -0.427  -0.421  -0.419  -0.415  -0.412  -0.410  -0.403  -0.400
 -0.398  -0.397  -0.394  -0.389  -0.385  -0.381  -0.370  -0.354
 -0.347  -0.340  -0.337  -0.335  -0.328  -0.327  -0.322  -0.311
 -0.294  -0.289  -0.279  -0.267  -0.255  -0.119

 Beta MOs
 -- Occupied --
-14.795 -14.596 -14.590 -10.552 -10.552 -10.524 -10.515 -10.515
-10.513 -10.498 -10.495 -10.495 -10.494 -10.488 -10.487 -10.486
-10.486 -10.484 -10.482 -10.479 -10.479 -10.479 -10.469 -10.461
-10.459 -10.458 -10.458 -10.455 -10.454 -10.454 -10.453 -10.452
-10.452 -10.452 -10.449 -10.448 -10.447 -10.446 -10.445 -10.442
-10.435 -10.434 -10.434 -10.430 -10.430 -10.429 -10.425  -1.178
 -1.022  -1.015  -1.013  -0.986  -0.970  -0.959  -0.958  -0.952
 -0.940  -0.913  -0.909  -0.908  -0.889  -0.877  -0.871  -0.866
 -0.858  -0.842  -0.839  -0.828  -0.811  -0.809  -0.804  -0.775
 -0.770  -0.767  -0.745  -0.727  -0.720  -0.715  -0.707  -0.688
 -0.678  -0.670  -0.668  -0.664  -0.662  -0.655  -0.651  -0.633
 -0.600  -0.595  -0.588  -0.587  -0.582  -0.574  -0.573  -0.565
 -0.555  -0.550  -0.546  -0.544  -0.541  -0.533  -0.529  -0.527
 -0.521  -0.513  -0.513  -0.509  -0.506  -0.496  -0.493  -0.492
 -0.487  -0.483  -0.480  -0.479  -0.473  -0.469  -0.467  -0.464
 -0.462  -0.456  -0.452  -0.447  -0.445  -0.437  -0.431  -0.429
 -0.424  -0.423  -0.421  -0.413  -0.412  -0.411  -0.408  -0.399
 -0.396  -0.394  -0.391  -0.386  -0.378  -0.369  -0.366  -0.351
 -0.346  -0.342  -0.340  -0.337  -0.335  -0.332  -0.322  -0.313
 -0.295  -0.292  -0.288  -0.267  -0.256  -0.229

          Ground-State Mulliken Net Atomic Charges

     Atom                 Charge (a.u.)    Spin (a.u.)
  --------------------------------------------------------
      1 N                    -0.609852      -0.439083
      2 C                     0.293574       0.095098
      3 C                     0.301924       0.091137
      4 C                     0.194211      -0.220243
      5 C                    -0.309056       0.144960
      6 H                     0.262466      -0.006828
      7 C                    -0.202631      -0.243742
      8 H                     0.273913       0.013042
      9 C                    -0.244743       0.126627
     10 H                     0.275540      -0.005770
     11 C                    -0.261811      -0.176073
     12 H                     0.310363       0.009385
     13 C                     0.188826      -0.224560
     14 C                    -0.306572       0.148021
     15 H                     0.262044      -0.006973
     16 C                    -0.202385      -0.250984
     17 H                     0.273675       0.013411
     18 C                    -0.241888       0.128871
     19 H                     0.273880      -0.005844
     20 C                    -0.268503      -0.180191
     21 H                     0.318903       0.010048
     22 C                     0.130595       0.034805
     23 C                    -0.271446      -0.027714
     24 H                     0.293275       0.001104
     25 C                    -0.216267      -0.027860
     26 H                     0.263443       0.001506
     27 C                    -0.317171       0.012103
     28 H                     0.253664      -0.001530
     29 C                     0.217531       0.018218
     30 C                     0.069120      -0.018206
     31 C                    -0.511667       0.009322
     32 H                     0.245419      -0.001437
     33 H                     0.267564      -0.001687
     34 C                    -0.240577       0.037038
     35 C                    -0.547327      -0.014256
     36 H                     0.251996       0.000369
     37 H                     0.225072       0.012404
     38 C                     0.096517       0.163125
     39 C                    -0.339899      -0.087545
     40 H                     0.220315       0.003400
     41 C                    -0.014803       0.325922
     42 C                    -0.059099      -0.087009
     43 N                    -0.299445       0.205588
     44 C                    -0.004239       0.252191
     45 C                    -0.300888      -0.144694
     46 H                     0.246154       0.007189
     47 C                     0.107189       0.244960
     48 C                    -0.045299      -0.067289
     49 N                    -0.289213       0.152172
     50 C                    -0.406469      -0.016040
     51 C                     0.029015       0.005498
     52 C                    -0.271397      -0.001290
     53 H                     0.247083       0.000481
     54 C                    -0.258093       0.002124
     55 H                     0.240555      -0.000098
     56 C                    -0.233679      -0.002449
     57 H                     0.241176       0.000162
     58 C                    -0.349776       0.002353
     59 H                     0.232037      -0.000103
     60 C                     0.155521      -0.003876
     61 C                     0.111310       0.013824
     62 C                    -0.339240      -0.010972
     63 H                     0.227845       0.000730
     64 C                    -0.244105       0.021245
     65 H                     0.238693      -0.001302
     66 C                    -0.240128      -0.013024
     67 H                     0.239293       0.000723
     68 C                    -0.303908       0.020302
     69 H                     0.240751      -0.001325
     70 C                     0.171132       0.002687
     71 C                    -0.625295      -0.016872
     72 H                     0.247397       0.000174
     73 H                     0.246546       0.000242
     74 H                     0.254717       0.000474
     75 C                    -0.602975      -0.025805
     76 H                     0.248160      -0.000666
     77 H                     0.244139       0.001237
     78 H                     0.247305      -0.000928
  --------------------------------------------------------
  Sum of atomic charges =     0.000000

                    Cartesian Multipole Moments
 -----------------------------------------------------------------
    Charge (ESU x 10^10)
                 0.0000
    Dipole Moment (Debye)
         X      31.2122      Y     -19.9441      Z      29.5771
       Tot      47.4001
    Quadrupole Moments (Debye-Ang)
        XX    -426.1608     XY     132.3969     YY    -350.8398
        XZ    -192.3215     YZ     131.1261     ZZ    -420.7311

             Standard Nuclear Orientation (Angstroms)
    I     Atom           X                Y                Z
 ----------------------------------------------------------------
    1      N       0.0324379326     0.0836454771     0.0684281465
    2      C       0.0096737037     0.0225240536     1.4458023570
    3      C       1.2029017229     0.0867980433    -0.6587506141
    4      C       1.1944951143    -0.2216283507     2.1624743039
    5      C       1.0963767359    -0.3280470618     3.5422561838
    6      H       1.9793252127    -0.5490627944     4.1258078269
    7      C      -0.1116386284    -0.1649479501     4.2013849304
    8      H      -0.1502225070    -0.2530295075     5.2784860341
    9      C      -1.2698434343     0.1210525303     3.4816179286
   10      H      -2.2104306901     0.2734126860     3.9919844949
   11      C      -1.2164041087     0.2129009335     2.1134316176
   12      H      -2.1124663266     0.4458825637     1.5573128082
   13      C       2.4348671807    -0.1006344243    -0.0020763374
   14      C       3.5851643745    -0.0758434295    -0.7767413512
   15      H       4.5465438057    -0.2374107536    -0.3098776260
   16      C       3.5415401078     0.1347376464    -2.1456152531
   17      H       4.4608342631     0.1549239540    -2.7147909762
   18      C       2.3165390540     0.3053773313    -2.7855829036
   19      H       2.2684220411     0.4630338658    -3.8539248147
   20      C       1.1546456050     0.2696918102    -2.0573747528
   21      H       0.2148165992     0.3953153512    -2.5732551018
   22      C      -1.2231877419     0.0653577701    -0.6276064620
   23      C      -1.6906015666     1.1984311657    -1.2537459211
   24      H      -1.1035250924     2.1066468822    -1.1979753174
   25      C      -1.9300292135    -1.1265531539    -0.6794729924
   26      H      -1.5547503028    -2.0231402736    -0.2035886533
   27      C      -3.1372868718    -1.1236772512    -1.3413470198
   28      H      -3.7236907785    -2.0339303326    -1.3607085682
   29      C      -2.8786155316     1.1822160892    -1.9915113408
   30      C      -3.6398549678     0.0105261152    -1.9891554344
   31      C      -5.0209927612    -0.0864897767    -2.5707459041
   32      H      -5.4916260223    -0.9849051002    -2.1670537472
   33      H      -4.9851799966    -0.2225785466    -3.6550392737
   34      C       2.5164158131    -0.4285361999     1.4685282020
   35      C      -5.8691707162     1.1436562635    -2.2377566228
   36      H      -6.9224517634     0.8610307669    -2.2003805219
   37      H      -5.6140012378     1.4831131671    -1.2265881406
   38      C      -5.6863709280     2.2035704962    -3.2775005118
   39      C      -6.7816464855     2.6553774236    -3.9603554233
   40      H      -7.7640524167     2.3192420621    -3.6463956158
   41      C      -6.7039225838     3.5060152830    -5.0845185597
   42      C      -7.8646431308     3.9378515139    -5.7284718565
   43      N      -8.8404320369     4.2871575192    -6.2593719754
   44      C      -5.3804327855     3.8563663680    -5.5444322088
   45      C      -4.2721308367     3.4037442305    -4.8202913559
   46      H      -3.3022196032     3.7324114309    -5.1701292065
   47      C      -4.3656426543     2.6037018852    -3.6990037426
   48      C      -5.1791228367     4.6391145019    -6.6917713986
   49      N      -5.0082259428     5.2880003879    -7.6397648737
   50      C      -3.1249108033     2.4553905851    -2.8191223920
   51      C      -1.8622270511     2.6304831571    -3.6492080315
   52      C      -1.3832760884     1.7831265037    -4.6300593158
   53      H      -1.9260921799     0.8843694396    -4.8982981424
   54      C      -0.2074485594     2.1245072403    -5.2865248425
   55      H       0.1771031597     1.4835900190    -6.0696482815
   56      C       0.4700705297     3.2964572151    -4.9585849376
   57      H       1.3799105370     3.5527151541    -5.4857036502
   58      C      -0.0153358840     4.1458839669    -3.9736923193
   59      H       0.5113252153     5.0608366845    -3.7324912350
   60      C      -1.1902705987     3.8038192082    -3.3168307721
   61      C      -1.9378887974     4.4749512908    -2.2562220236
   62      C      -1.7046239620     5.6750681576    -1.6032770315
   63      H      -0.8503682329     6.2904307081    -1.8582545871
   64      C      -2.5945664243     6.0828454249    -0.6183658051
   65      H      -2.4320747234     7.0195880915    -0.1014931994
   66      C      -3.6991910382     5.3006394797    -0.2967660927
   67      H      -4.3884248361     5.6361670285     0.4673408929
   68      C      -3.9346869487     4.0986459139    -0.9533146172
   69      H      -4.8077543115     3.5077213402    -0.7069730606
   70      C      -3.0490069447     3.6907329644    -1.9323428027
   71      C       3.5913582506     0.4399356859     2.1418541673
   72      H       4.5654298538     0.2898512014     1.6807051247
   73      H       3.7028539568     0.1830622352     3.1933855266
   74      H       3.3388259117     1.4973024448     2.0722784398
   75      C       2.8861723483    -1.9247190442     1.5878273885
   76      H       3.8456483214    -2.1185603174     1.1087738872
   77      H       2.1355510968    -2.5558962559     1.1112179132
   78      H       2.9620578079    -2.2181286286     2.6348732244
 ----------------------------------------------------------------
