 Q-Chem 5.0, Q-Chem, Inc., Pleasanton, CA (2017)
 Q-Chem 5.0.1 for Intel X86 EM64T Linux

User input:
--------------------------------------------------------------
$rem
threads 8
jobtype	sp
method PBEh-3c
basis def2-mSVP
mem_static	1024
mem_total	8000
sym_ignore	true
unrestricted true
scf_convergence	9
solvent_method	pcm
$end

$molecule
read moms1opt_tol.mol
$end

$solvent
dielectric	2.57
$end

$pcm
theory iefpcm
$end
--------------------------------------------------------------

   17   -1855.5348581511      6.03E-10 Convergence criterion met
 Total energy in the final basis set = -1855.53485815
 Total job time:  1930.53s(wall), 5190.66s(cpu)
        *  Thank you very much for using Q-Chem.  Have a nice day.  *
 Q-Chem 5.0, Q-Chem, Inc., Pleasanton, CA (2017)
 Q-Chem 5.0.1 for Intel X86 EM64T Linux

User input:
--------------------------------------------------------------

$rem
threads 8
jobtype opt
method PBEh-3c
basis def2-mSVP
scf_guess	read
mem_static      1024
mem_total       8000
sym_ignore      true
unrestricted true
mom_start       1
scf_algorithm	diis
scf_max_cycles	250
solvent_method	pcm
geom_opt_tol_energy 25
geom_opt_tol_gradient 75
$end

$solvent
dielectric      2.57
$end

$pcm
theory iefpcm
$end

$occupied
1 2 3 4 5 6 7 8 9 10 11 12 13 14 15 16 17 18 19 20 21 22 23 24 25 26 27 28 29 30 31 32 33 34 35 36 37 38 39 40 41 42 43 44 45 46 47 48 49 50 51 52 53 54 55 56 57 58 59 60 61 62 63 64 65 66 67 68 69 70 71 72 73 74 75 76 77 78 79 80 81 82 83 84 85 86 87 88 89 90 91 92 93 94 95 96 97 98 99 100 101 102 103 104 105 106 107 108 109 110 111 112 113 114 115 116 117 118 119 120 121 122 123 124 125 126 127 128 129 130 131 132 133 134 135 136 137 138 139 140 141 142 143 144 145 146 147 148 149 150 151 152 153 154 155 156 157 159
1 2 3 4 5 6 7 8 9 10 11 12 13 14 15 16 17 18 19 20 21 22 23 24 25 26 27 28 29 30 31 32 33 34 35 36 37 38 39 40 41 42 43 44 45 46 47 48 49 50 51 52 53 54 55 56 57 58 59 60 61 62 63 64 65 66 67 68 69 70 71 72 73 74 75 76 77 78 79 80 81 82 83 84 85 86 87 88 89 90 91 92 93 94 95 96 97 98 99 100 101 102 103 104 105 106 107 108 109 110 111 112 113 114 115 116 117 118 119 120 121 122 123 124 125 126 127 128 129 130 131 132 133 134 135 136 137 138 139 140 141 142 143 144 145 146 147 148 149 150 151 152 153 154 155 156 157 158
$end

$molecule
read
$end

--------------------------------------------------------------

   19   -1855.4333543865      6.58E-09 Convergence criterion met
 Total energy in the final basis set = -1855.43335439
   16   -1855.4333931455      9.63E-09 Convergence criterion met
 Total energy in the final basis set = -1855.43339315
   17   -1855.4332695992      6.37E-09 Convergence criterion met
 Total energy in the final basis set = -1855.43326960
   16   -1855.4335690772      9.22E-09 Convergence criterion met
 Total energy in the final basis set = -1855.43356908
   16   -1855.4335673753      8.84E-09 Convergence criterion met
 Total energy in the final basis set = -1855.43356738
   16   -1855.4335787473      9.24E-09 Convergence criterion met
 Total energy in the final basis set = -1855.43357875
   16   -1855.4335812991      9.21E-09 Convergence criterion met
 Total energy in the final basis set = -1855.43358130
   16   -1855.4335907493      9.54E-09 Convergence criterion met
 Total energy in the final basis set = -1855.43359075
   17   -1855.4335939897      4.98E-09 Convergence criterion met
 Total energy in the final basis set = -1855.43359399

             Standard Nuclear Orientation (Angstroms)
    I     Atom           X                Y                Z
 ----------------------------------------------------------------
    1      N       0.0234303480     0.0885061250     0.0796975867
    2      C       0.0077905084     0.0095973905     1.4572756681
    3      C       1.1923057707     0.1121164966    -0.6513392126
    4      C       1.1960450423    -0.2427705541     2.1648825743
    5      C       1.1047921809    -0.3714294349     3.5432738559
    6      H       1.9918443645    -0.5984053399     4.1184396177
    7      C      -0.0998067755    -0.2212513415     4.2111082466
    8      H      -0.1329702659    -0.3269198195     5.2868015810
    9      C      -1.2610081468     0.0773611259     3.5019123445
   10      H      -2.1985133850     0.2239523163     4.0195487577
   11      C      -1.2143661554     0.1913987172     2.1350923860
   12      H      -2.1122294534     0.4370182310     1.5876031114
   13      C       2.4271437063    -0.0793186998    -0.0014489851
   14      C       3.5749218775    -0.0393920320    -0.7788511310
   15      H       4.5376600137    -0.2042462906    -0.3159027733
   16      C       3.5269162690     0.1902491825    -2.1444040570
   17      H       4.4443814545     0.2212949493    -2.7160092896
   18      C       2.2994836992     0.3649179450    -2.7777276417
   19      H       2.2453637336     0.5384456809    -3.8432610517
   20      C       1.1396653673     0.3132035252    -2.0470592624
   21      H       0.1988057382     0.4410495718    -2.5606958781
   22      C      -1.2341876811     0.0685936686    -0.6115887032
   23      C      -1.6983693970     1.1993275215    -1.2453981963
   24      H      -1.1116500695     2.1077871945    -1.1908749085
   25      C      -1.9477686495    -1.1199720173    -0.6525245640
   26      H      -1.5777283391    -2.0145787458    -0.1689160798
   27      C      -3.1553200450    -1.1156662425    -1.3142147928
   28      H      -3.7473591437    -2.0223554984    -1.3248219051
   29      C      -2.8846271667     1.1833620977    -1.9855830222
   30      C      -3.6507975046     0.0142295042    -1.9746049532
   31      C      -5.0288245830    -0.0788077099    -2.5621290333
   32      H      -5.5047418409    -0.9776646026    -2.1654869597
   33      H      -4.9867575322    -0.2089807909    -3.6468911328
   34      C       2.5171954507    -0.4282478572     1.4636270437
   35      C      -5.8736272546     1.1556516727    -2.2328085181
   36      H      -6.9277657226     0.8763014525    -2.1934681633
   37      H      -5.6162368009     1.4993299634    -1.2231097942
   38      C      -5.6864220925     2.2096063083    -3.2776823793
   39      C      -6.7786731103     2.6682900845    -3.9611160496
   40      H      -7.7638021079     2.3427703123    -3.6443433344
   41      C      -6.6955778842     3.5117845296    -5.0891689221
   42      C      -7.8554994662     3.9519129259    -5.7312525837
   43      N      -8.8295588921     4.3083010704    -6.2590459087
   44      C      -5.3698516528     3.8454114768    -5.5545114257
   45      C      -4.2656442852     3.3875223695    -4.8322684404
   46      H      -3.2931606760     3.7042881994    -5.1861261413
   47      C      -4.3634436598     2.5931206902    -3.7050670987
   48      C      -5.1618234951     4.6193952297    -6.7087748613
   49      N      -4.9833847948     5.2601299277    -7.6599125078
   50      C      -3.1248645568     2.4509815868    -2.8234719400
   51      C      -1.8590195758     2.6168228854    -3.6512286425
   52      C      -1.3822482034     1.7644444570    -4.6285147964
   53      H      -1.9321234007     0.8706229250    -4.8989436620
   54      C      -0.2022082591     2.0966675879    -5.2825970906
   55      H       0.1781111677     1.4535104917    -6.0660051169
   56      C       0.4812096586     3.2648475072    -4.9547714076
   57      H       1.3927742227     3.5162900607    -5.4813351820
   58      C      -0.0023002246     4.1194441062    -3.9733095477
   59      H       0.5285900978     5.0325354720    -3.7342278456
   60      C      -1.1814030984     3.7875237359    -3.3195389995
   61      C      -1.9305843754     4.4679307167    -2.2656990520
   62      C      -1.6974114977     5.6702797066    -1.6170875061
   63      H      -0.8402331599     6.2822054196    -1.8704584743
   64      C      -2.5920136172     6.0859805239    -0.6398851785
   65      H      -2.4304156561     7.0255628314    -0.1280262745
   66      C      -3.7019379091     5.3096985659    -0.3214586404
   67      H      -4.3955100657     5.6531980570     0.4351545757
   68      C      -3.9378029522     4.1056823647    -0.9730064764
   69      H      -4.8159712168     3.5194755902    -0.7332125759
   70      C      -3.0464166094     3.6901386732    -1.9437410630
   71      C       3.5837444412     0.4449280257     2.1444986259
   72      H       4.5591108085     0.3114555404     1.6806235567
   73      H       3.6989520219     0.1782068271     3.1932849920
   74      H       3.3194356984     1.5001392063     2.0871541577
   75      C       2.9057840784    -1.9205103043     1.5612824715
   76      H       3.8668369503    -2.0976373981     1.0786551965
   77      H       2.1623573965    -2.5545914739     1.0773893691
   78      H       2.9876567124    -2.2288246109     2.6035292948
 ----------------------------------------------------------------

   17   -1855.4335973960      5.18E-09 Convergence criterion met
 Total energy in the final basis set = -1855.43359740
 Final energy is   -1855.43359739596
 **  OPTIMIZATION CONVERGED  **

                    Orbital Energies (a.u.)
 --------------------------------------------------------------

 Alpha MOs
 -- Occupied --
-14.788 -14.591 -14.587 -10.558 -10.558 -10.527 -10.520 -10.517
-10.516 -10.500 -10.497 -10.497 -10.496 -10.496 -10.494 -10.493
-10.490 -10.487 -10.482 -10.481 -10.481 -10.480 -10.471 -10.466
-10.464 -10.459 -10.458 -10.454 -10.454 -10.454 -10.453 -10.453
-10.452 -10.448 -10.446 -10.445 -10.444 -10.443 -10.443 -10.438
-10.433 -10.432 -10.428 -10.428 -10.427 -10.423 -10.422  -1.164
 -1.022  -1.016  -1.012  -0.987  -0.969  -0.961  -0.957  -0.952
 -0.940  -0.913  -0.910  -0.909  -0.891  -0.878  -0.871  -0.868
 -0.859  -0.841  -0.838  -0.829  -0.811  -0.808  -0.808  -0.776
 -0.770  -0.767  -0.748  -0.727  -0.722  -0.717  -0.708  -0.689
 -0.678  -0.673  -0.669  -0.667  -0.662  -0.655  -0.649  -0.632
 -0.597  -0.591  -0.589  -0.583  -0.582  -0.577  -0.577  -0.565
 -0.555  -0.550  -0.548  -0.544  -0.540  -0.535  -0.533  -0.526
 -0.525  -0.515  -0.513  -0.506  -0.502  -0.496  -0.492  -0.489
 -0.487  -0.484  -0.483  -0.478  -0.473  -0.472  -0.470  -0.464
 -0.461  -0.456  -0.452  -0.450  -0.441  -0.437  -0.435  -0.429
 -0.426  -0.425  -0.417  -0.415  -0.414  -0.411  -0.405  -0.398
 -0.396  -0.391  -0.391  -0.386  -0.377  -0.376  -0.367  -0.349
 -0.341  -0.340  -0.335  -0.333  -0.332  -0.332  -0.323  -0.312
 -0.293  -0.289  -0.274  -0.263  -0.254  -0.112

 Beta MOs
 -- Occupied --
-14.800 -14.588 -14.582 -10.557 -10.557 -10.527 -10.520 -10.520
-10.519 -10.503 -10.501 -10.499 -10.499 -10.494 -10.492 -10.491
-10.488 -10.487 -10.483 -10.482 -10.481 -10.481 -10.471 -10.467
-10.464 -10.459 -10.458 -10.454 -10.454 -10.453 -10.453 -10.453
-10.452 -10.449 -10.446 -10.444 -10.444 -10.444 -10.442 -10.439
-10.433 -10.429 -10.428 -10.424 -10.424 -10.423 -10.420  -1.183
 -1.026  -1.020  -1.013  -0.988  -0.964  -0.963  -0.951  -0.950
 -0.937  -0.914  -0.910  -0.909  -0.894  -0.878  -0.872  -0.870
 -0.858  -0.843  -0.838  -0.824  -0.811  -0.810  -0.808  -0.777
 -0.774  -0.767  -0.747  -0.728  -0.724  -0.715  -0.709  -0.685
 -0.679  -0.675  -0.670  -0.667  -0.662  -0.655  -0.650  -0.633
 -0.602  -0.594  -0.593  -0.590  -0.582  -0.578  -0.578  -0.565
 -0.557  -0.552  -0.549  -0.544  -0.543  -0.537  -0.534  -0.526
 -0.525  -0.515  -0.513  -0.512  -0.506  -0.497  -0.495  -0.491
 -0.487  -0.485  -0.482  -0.478  -0.475  -0.473  -0.471  -0.468
 -0.461  -0.458  -0.451  -0.450  -0.449  -0.438  -0.434  -0.431
 -0.428  -0.422  -0.421  -0.417  -0.412  -0.409  -0.405  -0.398
 -0.395  -0.389  -0.387  -0.381  -0.373  -0.366  -0.358  -0.356
 -0.346  -0.339  -0.338  -0.336  -0.334  -0.330  -0.322  -0.315
 -0.298  -0.292  -0.287  -0.262  -0.254  -0.223

          Ground-State Mulliken Net Atomic Charges

     Atom                 Charge (a.u.)    Spin (a.u.)
  --------------------------------------------------------
      1 N                    -0.610004      -0.440565
      2 C                     0.288614       0.097189
      3 C                     0.298147       0.091937
      4 C                     0.195540      -0.219136
      5 C                    -0.306803       0.144167
      6 H                     0.257698      -0.006820
      7 C                    -0.200136      -0.241802
      8 H                     0.270562       0.012971
      9 C                    -0.242537       0.127272
     10 H                     0.272824      -0.005833
     11 C                    -0.260079      -0.176828
     12 H                     0.310484       0.009378
     13 C                     0.187891      -0.223372
     14 C                    -0.304228       0.146901
     15 H                     0.256904      -0.006958
     16 C                    -0.200037      -0.249518
     17 H                     0.270101       0.013364
     18 C                    -0.238510       0.129218
     19 H                     0.272469      -0.005883
     20 C                    -0.267635      -0.179853
     21 H                     0.322041       0.010019
     22 C                     0.139594       0.034750
     23 C                    -0.280458      -0.030093
     24 H                     0.293586       0.001220
     25 C                    -0.218862      -0.031061
     26 H                     0.258939       0.001659
     27 C                    -0.314733       0.014883
     28 H                     0.249880      -0.001646
     29 C                     0.219529       0.020830
     30 C                     0.071414      -0.023061
     31 C                    -0.512019       0.009979
     32 H                     0.241329      -0.001541
     33 H                     0.269425      -0.002023
     34 C                    -0.241087       0.036893
     35 C                    -0.544257      -0.014343
     36 H                     0.249858       0.000341
     37 H                     0.220402       0.012908
     38 C                     0.097885       0.166718
     39 C                    -0.336198      -0.092587
     40 H                     0.215527       0.003849
     41 C                    -0.010906       0.331757
     42 C                    -0.057621      -0.090815
     43 N                    -0.289427       0.204144
     44 C                    -0.001047       0.246244
     45 C                    -0.295172      -0.146372
     46 H                     0.243775       0.007431
     47 C                     0.101018       0.251869
     48 C                    -0.044016      -0.067343
     49 N                    -0.279132       0.145970
     50 C                    -0.404387      -0.015541
     51 C                     0.029271       0.006255
     52 C                    -0.269527      -0.001299
     53 H                     0.244697       0.000579
     54 C                    -0.257204       0.002314
     55 H                     0.237655      -0.000108
     56 C                    -0.231107      -0.002568
     57 H                     0.236885       0.000174
     58 C                    -0.346560       0.002509
     59 H                     0.227099      -0.000104
     60 C                     0.156533      -0.004315
     61 C                     0.115311       0.015350
     62 C                    -0.337233      -0.012300
     63 H                     0.222315       0.000826
     64 C                    -0.240025       0.023930
     65 H                     0.234240      -0.001480
     66 C                    -0.236974      -0.014319
     67 H                     0.234987       0.000798
     68 C                    -0.298955       0.021935
     69 H                     0.237996      -0.001444
     70 C                     0.167426       0.003891
     71 C                    -0.622143      -0.016945
     72 H                     0.245257       0.000139
     73 H                     0.244419       0.000223
     74 H                     0.254933       0.000495
     75 C                    -0.600626      -0.025116
     76 H                     0.246500      -0.000635
     77 H                     0.243464       0.001195
     78 H                     0.245224      -0.000844
  --------------------------------------------------------
  Sum of atomic charges =     0.000000

                    Cartesian Multipole Moments
 -----------------------------------------------------------------
    Charge (ESU x 10^10)
                 0.0000
    Dipole Moment (Debye)
         X      30.2136      Y     -19.3093      Z      28.6195
       Tot      45.8780
    Quadrupole Moments (Debye-Ang)
        XX    -421.2053     XY     129.3067     YY    -348.9973
        XZ    -185.4013     YZ     125.8055     ZZ    -414.3483

 Total job time:  19464.66s(wall), 53117.50s(cpu)
        *  Thank you very much for using Q-Chem.  Have a nice day.  *
