 Q-Chem 5.0, Q-Chem, Inc., Pleasanton, CA (2017)
 Q-Chem 5.0.1 for Intel X86 EM64T Linux

User input:
--------------------------------------------------------------
$rem
threads 8
jobtype	sp
method PBEh-3c
basis def2-mSVP
mem_static	1024
mem_total	8000
sym_ignore	true
unrestricted true
scf_convergence	9
solvent_method	pcm
$end

$molecule
read moms1opt_tol.mol
$end

$solvent
dielectric	2.50
$end

$pcm
theory iefpcm
$end
--------------------------------------------------------------

   17   -1855.5344578688      6.02E-10 Convergence criterion met
 Total energy in the final basis set = -1855.53445787
 Total job time:  1926.92s(wall), 5173.11s(cpu)
        *  Thank you very much for using Q-Chem.  Have a nice day.  *
 Q-Chem 5.0, Q-Chem, Inc., Pleasanton, CA (2017)
 Q-Chem 5.0.1 for Intel X86 EM64T Linux

User input:
--------------------------------------------------------------

$rem
threads 8
jobtype opt
method PBEh-3c
basis def2-mSVP
scf_guess	read
mem_static      1024
mem_total       8000
sym_ignore      true
unrestricted true
mom_start       1
scf_algorithm	diis
scf_max_cycles	250
solvent_method	pcm
geom_opt_tol_energy 25
geom_opt_tol_gradient 75
$end

$solvent
dielectric      2.50
$end

$pcm
theory iefpcm
$end

$occupied
1 2 3 4 5 6 7 8 9 10 11 12 13 14 15 16 17 18 19 20 21 22 23 24 25 26 27 28 29 30 31 32 33 34 35 36 37 38 39 40 41 42 43 44 45 46 47 48 49 50 51 52 53 54 55 56 57 58 59 60 61 62 63 64 65 66 67 68 69 70 71 72 73 74 75 76 77 78 79 80 81 82 83 84 85 86 87 88 89 90 91 92 93 94 95 96 97 98 99 100 101 102 103 104 105 106 107 108 109 110 111 112 113 114 115 116 117 118 119 120 121 122 123 124 125 126 127 128 129 130 131 132 133 134 135 136 137 138 139 140 141 142 143 144 145 146 147 148 149 150 151 152 153 154 155 156 157 159
1 2 3 4 5 6 7 8 9 10 11 12 13 14 15 16 17 18 19 20 21 22 23 24 25 26 27 28 29 30 31 32 33 34 35 36 37 38 39 40 41 42 43 44 45 46 47 48 49 50 51 52 53 54 55 56 57 58 59 60 61 62 63 64 65 66 67 68 69 70 71 72 73 74 75 76 77 78 79 80 81 82 83 84 85 86 87 88 89 90 91 92 93 94 95 96 97 98 99 100 101 102 103 104 105 106 107 108 109 110 111 112 113 114 115 116 117 118 119 120 121 122 123 124 125 126 127 128 129 130 131 132 133 134 135 136 137 138 139 140 141 142 143 144 145 146 147 148 149 150 151 152 153 154 155 156 157 158
$end

$molecule
read
$end

--------------------------------------------------------------

   19   -1855.4323951407      6.57E-09 Convergence criterion met
 Total energy in the final basis set = -1855.43239514
   16   -1855.4324339354      9.66E-09 Convergence criterion met
 Total energy in the final basis set = -1855.43243394
   17   -1855.4323036955      6.39E-09 Convergence criterion met
 Total energy in the final basis set = -1855.43230370
   16   -1855.4326066923      9.02E-09 Convergence criterion met
 Total energy in the final basis set = -1855.43260669
   16   -1855.4326058885      8.68E-09 Convergence criterion met
 Total energy in the final basis set = -1855.43260589
   16   -1855.4326174637      8.76E-09 Convergence criterion met
 Total energy in the final basis set = -1855.43261746

                    Orbital Energies (a.u.)
 --------------------------------------------------------------

 Alpha MOs
 -- Occupied --
-14.789 -14.591 -14.586 -10.559 -10.559 -10.527 -10.520 -10.518
-10.517 -10.501 -10.498 -10.497 -10.496 -10.496 -10.495 -10.494
-10.491 -10.487 -10.482 -10.481 -10.481 -10.481 -10.472 -10.467
-10.464 -10.458 -10.458 -10.454 -10.454 -10.453 -10.453 -10.453
-10.452 -10.448 -10.446 -10.445 -10.444 -10.443 -10.442 -10.437
-10.433 -10.432 -10.428 -10.428 -10.426 -10.423 -10.422  -1.164
 -1.023  -1.016  -1.012  -0.987  -0.968  -0.961  -0.956  -0.951
 -0.940  -0.913  -0.910  -0.909  -0.892  -0.878  -0.871  -0.869
 -0.859  -0.841  -0.838  -0.829  -0.811  -0.809  -0.808  -0.777
 -0.771  -0.768  -0.748  -0.727  -0.722  -0.717  -0.708  -0.688
 -0.678  -0.673  -0.669  -0.667  -0.662  -0.655  -0.649  -0.632
 -0.596  -0.591  -0.589  -0.583  -0.582  -0.578  -0.577  -0.565
 -0.555  -0.550  -0.548  -0.544  -0.541  -0.535  -0.533  -0.526
 -0.525  -0.515  -0.513  -0.506  -0.502  -0.496  -0.492  -0.489
 -0.487  -0.485  -0.483  -0.478  -0.474  -0.472  -0.470  -0.464
 -0.461  -0.457  -0.452  -0.451  -0.441  -0.437  -0.435  -0.429
 -0.426  -0.425  -0.417  -0.416  -0.415  -0.411  -0.405  -0.398
 -0.396  -0.391  -0.390  -0.385  -0.376  -0.376  -0.367  -0.349
 -0.342  -0.339  -0.335  -0.333  -0.332  -0.332  -0.323  -0.312
 -0.293  -0.289  -0.273  -0.262  -0.253  -0.112

 Beta MOs
 -- Occupied --
-14.800 -14.587 -14.581 -10.557 -10.557 -10.527 -10.521 -10.520
-10.520 -10.503 -10.501 -10.500 -10.500 -10.494 -10.493 -10.492
-10.489 -10.487 -10.483 -10.481 -10.481 -10.481 -10.472 -10.468
-10.465 -10.458 -10.458 -10.454 -10.454 -10.453 -10.453 -10.453
-10.452 -10.448 -10.446 -10.444 -10.444 -10.443 -10.442 -10.438
-10.433 -10.429 -10.428 -10.424 -10.424 -10.422 -10.419  -1.183
 -1.027  -1.020  -1.013  -0.988  -0.965  -0.962  -0.951  -0.950
 -0.936  -0.914  -0.910  -0.909  -0.895  -0.878  -0.873  -0.870
 -0.858  -0.843  -0.838  -0.824  -0.811  -0.810  -0.808  -0.777
 -0.775  -0.767  -0.747  -0.728  -0.724  -0.715  -0.709  -0.685
 -0.679  -0.675  -0.670  -0.667  -0.662  -0.654  -0.650  -0.632
 -0.602  -0.594  -0.593  -0.590  -0.581  -0.579  -0.578  -0.565
 -0.557  -0.553  -0.549  -0.544  -0.543  -0.538  -0.534  -0.527
 -0.525  -0.516  -0.513  -0.512  -0.505  -0.498  -0.495  -0.491
 -0.487  -0.485  -0.482  -0.478  -0.475  -0.473  -0.471  -0.469
 -0.461  -0.459  -0.451  -0.450  -0.449  -0.438  -0.434  -0.431
 -0.428  -0.422  -0.421  -0.418  -0.411  -0.409  -0.404  -0.398
 -0.395  -0.389  -0.386  -0.381  -0.372  -0.366  -0.357  -0.356
 -0.346  -0.339  -0.339  -0.335  -0.333  -0.329  -0.322  -0.315
 -0.299  -0.292  -0.287  -0.262  -0.254  -0.223

          Ground-State Mulliken Net Atomic Charges

     Atom                 Charge (a.u.)    Spin (a.u.)
  --------------------------------------------------------
      1 N                    -0.609836      -0.440745
      2 C                     0.288774       0.097376
      3 C                     0.298108       0.091952
      4 C                     0.195618      -0.219046
      5 C                    -0.306766       0.144138
      6 H                     0.257181      -0.006822
      7 C                    -0.199825      -0.241762
      8 H                     0.270256       0.012972
      9 C                    -0.242249       0.127338
     10 H                     0.272591      -0.005837
     11 C                    -0.259722      -0.176999
     12 H                     0.310374       0.009391
     13 C                     0.188079      -0.223630
     14 C                    -0.304030       0.147101
     15 H                     0.256450      -0.006970
     16 C                    -0.199805      -0.250048
     17 H                     0.269835       0.013396
     18 C                    -0.238175       0.129489
     19 H                     0.272337      -0.005894
     20 C                    -0.267117      -0.180193
     21 H                     0.321934       0.010032
     22 C                     0.138660       0.034707
     23 C                    -0.279320      -0.029733
     24 H                     0.293085       0.001199
     25 C                    -0.218746      -0.030685
     26 H                     0.258121       0.001642
     27 C                    -0.314441       0.014624
     28 H                     0.249528      -0.001637
     29 C                     0.219181       0.020680
     30 C                     0.071435      -0.022543
     31 C                    -0.511390       0.009980
     32 H                     0.240764      -0.001547
     33 H                     0.269588      -0.002000
     34 C                    -0.241554       0.036918
     35 C                    -0.544462      -0.014366
     36 H                     0.249656       0.000343
     37 H                     0.219840       0.012997
     38 C                     0.098156       0.167865
     39 C                    -0.335844      -0.093712
     40 H                     0.215099       0.003912
     41 C                    -0.010437       0.332012
     42 C                    -0.057434      -0.091111
     43 N                    -0.288370       0.203753
     44 C                    -0.000744       0.246169
     45 C                    -0.294771      -0.146159
     46 H                     0.243545       0.007418
     47 C                     0.100844       0.251397
     48 C                    -0.044043      -0.067478
     49 N                    -0.278256       0.145767
     50 C                    -0.404478      -0.015284
     51 C                     0.028813       0.006284
     52 C                    -0.269200      -0.001276
     53 H                     0.244505       0.000583
     54 C                    -0.256994       0.002322
     55 H                     0.237172      -0.000109
     56 C                    -0.230756      -0.002569
     57 H                     0.236436       0.000174
     58 C                    -0.346339       0.002521
     59 H                     0.226595      -0.000105
     60 C                     0.156703      -0.004351
     61 C                     0.115408       0.015418
     62 C                    -0.336946      -0.012391
     63 H                     0.221750       0.000832
     64 C                    -0.239779       0.024215
     65 H                     0.233766      -0.001498
     66 C                    -0.236507      -0.014474
     67 H                     0.234520       0.000807
     68 C                    -0.298788       0.022219
     69 H                     0.237686      -0.001470
     70 C                     0.167920       0.003979
     71 C                    -0.622299      -0.016795
     72 H                     0.245096       0.000154
     73 H                     0.244275       0.000230
     74 H                     0.255062       0.000484
     75 C                    -0.600137      -0.025253
     76 H                     0.246429      -0.000645
     77 H                     0.243297       0.001209
     78 H                     0.245093      -0.000862
  --------------------------------------------------------
  Sum of atomic charges =     0.000000

                    Cartesian Multipole Moments
 -----------------------------------------------------------------
    Charge (ESU x 10^10)
                 0.0000
    Dipole Moment (Debye)
         X      30.1331      Y     -19.2306      Z      28.5369
       Tot      45.7403
    Quadrupole Moments (Debye-Ang)
        XX    -420.6143     XY     128.6108     YY    -348.5543
        XZ    -184.8437     YZ     125.3343     ZZ    -413.9800

             Standard Nuclear Orientation (Angstroms)
    I     Atom           X                Y                Z
 ----------------------------------------------------------------
    1      N       0.0235674058     0.0901951432     0.0807371253
    2      C       0.0065574548     0.0063017122     1.4578919952
    3      C       1.1929906325     0.1197158905    -0.6488611833
    4      C       1.1945744847    -0.2454473720     2.1660891920
    5      C       1.1017845810    -0.3788108234     3.5438875018
    6      H       1.9884063590    -0.6059632315     4.1195779191
    7      C      -0.1041715042    -0.2337964415     4.2105025165
    8      H      -0.1384876556    -0.3429274648     5.2858111041
    9      C      -1.2652959138     0.0634672072     3.5006622430
   10      H      -2.2040114924     0.2054356801     4.0173810051
   11      C      -1.2171313538     0.1818241450     2.1342536145
   12      H      -2.1149524997     0.4258721987     1.5859201741
   13      C       2.4276980790    -0.0714438958     0.0015466866
   14      C       3.5760472406    -0.0249183062    -0.7746386607
   15      H       4.5388608219    -0.1894923701    -0.3118333865
   16      C       3.5286978635     0.2112529161    -2.1391530374
   17      H       4.4466292617     0.2475022102    -2.7097034021
   18      C       2.3015158506     0.3861993046    -2.7728308889
   19      H       2.2480982682     0.5653079159    -3.8374735396
   20      C       1.1411403447     0.3279208911    -2.0436028502
   21      H       0.2004353583     0.4568075297    -2.5572794411
   22      C      -1.2336067699     0.0698149139    -0.6116013894
   23      C      -1.6989657975     1.2008349296    -1.2439821007
   24      H      -1.1132415585     2.1099841135    -1.1891753882
   25      C      -1.9456751741    -1.1196340990    -0.6542747502
   26      H      -1.5743378283    -2.0144458318    -0.1720544485
   27      C      -3.1536307359    -1.1156591031    -1.3152066990
   28      H      -3.7448051221    -2.0229065395    -1.3267314695
   29      C      -2.8854933947     1.1843007542    -1.9838522044
   30      C      -3.6508974395     0.0147605579    -1.9734082858
   31      C      -5.0299071349    -0.0783911894    -2.5587821132
   32      H      -5.5054697562    -0.9763346498    -2.1595318463
   33      H      -4.9900492558    -0.2105201444    -3.6433957615
   34      C       2.5164605485    -0.4274388833     1.4651746187
   35      C      -5.8735074952     1.1567729631    -2.2296620338
   36      H      -6.9277923351     0.8780366310    -2.1893878264
   37      H      -5.6151542728     1.5001570941    -1.2200916124
   38      C      -5.6867416461     2.2103222826    -3.2749149601
   39      C      -6.7795395722     2.6692340162    -3.9574273272
   40      H      -7.7645239720     2.3446679054    -3.6392057771
   41      C      -6.6973491446     3.5116817588    -5.0860786868
   42      C      -7.8582111219     3.9514331126    -5.7270721827
   43      N      -8.8335962431     4.3064274260    -6.2531761521
   44      C      -5.3721655302     3.8446135899    -5.5532035235
   45      C      -4.2673263966     3.3865377124    -4.8321684505
   46      H      -3.2953611890     3.7030889773    -5.1874256241
   47      C      -4.3640352835     2.5926490993    -3.7043342309
   48      C      -5.1649644235     4.6184944768    -6.7077899335
   49      N      -4.9865073117     5.2587829735    -7.6591747060
   50      C      -3.1250988824     2.4508436865    -2.8230327911
   51      C      -1.8595019434     2.6119872005    -3.6517220872
   52      C      -1.3852703881     1.7560423649    -4.6271188113
   53      H      -1.9375041095     0.8628461280    -4.8947536017
   54      C      -0.2054830465     2.0844809333    -5.2834898910
   55      H       0.1726317362     1.4388633451    -6.0659390583
   56      C       0.4802380672     3.2524636290    -4.9596461173
   57      H       1.3914547038     3.5010891175    -5.4881488388
   58      C      -0.0006657084     4.1104577785    -3.9799201197
   59      H       0.5319926979     5.0233280980    -3.7439632654
   60      C      -1.1794953260     3.7822289920    -3.3237365323
   61      C      -1.9264629032     4.4667196997    -2.2710346644
   62      C      -1.6903923997     5.6703425754    -1.6259871151
   63      H      -0.8322214212     6.2798884258    -1.8817616290
   64      C      -2.5833336645     6.0905825231    -0.6492266467
   65      H      -2.4195079140     7.0313081823    -0.1401944572
   66      C      -3.6945513866     5.3174422340    -0.3279608375
   67      H      -4.3870258901     5.6645128265     0.4280313051
   68      C      -3.9333752729     4.1120922857    -0.9760023515
   69      H      -4.8127759423     3.5287226393    -0.7341088781
   70      C      -3.0435797777     3.6918422233    -1.9462148392
   71      C       3.5831345128     0.4409860465     2.1516416293
   72      H       4.5590180560     0.3084949101     1.6886852447
   73      H       3.6970315151     0.1693021665     3.1992631117
   74      H       3.3204296248     1.4968494463     2.0990384519
   75      C       2.9034738513    -1.9206832096     1.5555109962
   76      H       3.8643468814    -2.0963244843     1.0720171330
   77      H       2.1595509757    -2.5517483334     1.0684091338
   78      H       2.9847314957    -2.2339995608     2.5963415841
 ----------------------------------------------------------------
