 Q-Chem 5.0, Q-Chem, Inc., Pleasanton, CA (2017)
 Q-Chem 5.0.1 for Intel X86 EM64T Linux

User input:
--------------------------------------------------------------
$rem
threads 8
jobtype opt
method PBEh-3c
basis def2-mSVP
mem_static      1024
mem_total       8000
sym_ignore      true
unrestricted true
scf_algorithm	diis
scf_max_cycles	250
solvent_method  pcm
geom_opt_tol_energy 25
geom_opt_tol_gradient 75
$end

$pcm
theory  iefpcm
$end

$solvent
dielectric      2.50
$end

$molecule
read ut1opt_tol.mol
$end
--------------------------------------------------------------

   22   -1855.4395382309      8.28E-09 Convergence criterion met
 Total energy in the final basis set = -1855.43953823
   16   -1855.4394114282      8.62E-09 Convergence criterion met
 Total energy in the final basis set = -1855.43941143
   17   -1855.4393223973      5.39E-09 Convergence criterion met
 Total energy in the final basis set = -1855.43932240
   17   -1855.4387607756      5.21E-09 Convergence criterion met
 Total energy in the final basis set = -1855.43876078
   16   -1855.4389309324      8.89E-09 Convergence criterion met
 Total energy in the final basis set = -1855.43893093
   16   -1855.4388975309      9.60E-09 Convergence criterion met
 Total energy in the final basis set = -1855.43889753
   17   -1855.4388232561      5.12E-09 Convergence criterion met
 Total energy in the final basis set = -1855.43882326
   17   -1855.4387130369      5.39E-09 Convergence criterion met
 Total energy in the final basis set = -1855.43871304
   17   -1855.4387287025      5.04E-09 Convergence criterion met
 Total energy in the final basis set = -1855.43872870
   16   -1855.4387457088      6.76E-09 Convergence criterion met
 Total energy in the final basis set = -1855.43874571
   16   -1855.4387452959      6.91E-09 Convergence criterion met
 Total energy in the final basis set = -1855.43874530
   16   -1855.4387467249      6.15E-09 Convergence criterion met
 Total energy in the final basis set = -1855.43874672

             Standard Nuclear Orientation (Angstroms)
    I     Atom           X                Y                Z
 ----------------------------------------------------------------
    1      N       0.0608502396     0.1438887785     0.0181101342
    2      C       0.1151887229     0.2575503625     1.4123092446
    3      C       1.3221816753     0.5081392115     2.0652538257
    4      H       2.2342158429     0.6349183897     1.4988974671
    5      C       1.3643849783     0.5836622155     3.4466963603
    6      H       2.3087481393     0.7789849110     3.9379506807
    7      C       0.2125795051     0.3932792848     4.1910532605
    8      H       0.2397355767     0.4407621228     5.2714272618
    9      C      -0.9853112026     0.1494089385     3.5360319395
   10      H      -1.8798793936     0.0152545401     4.1283046252
   11      C      -1.0635393764     0.0956420757     2.1508190268
   12      C      -0.9330966117    -0.6529392000    -0.5629632170
   13      C      -0.7813786480    -1.2233722933    -1.8287663152
   14      H       0.0927660269    -1.0264062605    -2.4323529773
   15      C      -1.7500870979    -2.0710057858    -2.3386200876
   16      H      -1.5986372875    -2.5090698204    -3.3167094000
   17      C      -2.8822598408    -2.3651855647    -1.5998139080
   18      H      -3.6335556280    -3.0434707630    -1.9818715919
   19      C      -3.0563264902    -1.7541134746    -0.3675938775
   20      H      -3.9631557051    -1.9592467985     0.1840751687
   21      C      -2.1171810517    -0.8750666426     0.1555465774
   22      C       1.2142354872     0.4850442099    -0.7320275062
   23      C       2.1002526249    -0.4939413858    -1.1407081137
   24      H       1.8907490411    -1.5220872680    -0.8701838100
   25      C       1.4573258882     1.8080600488    -1.0681104100
   26      H       0.7647247459     2.5813652931    -0.7620485587
   27      C       2.6075137189     2.1207740739    -1.7683971511
   28      H       2.8283776219     3.1584387007    -1.9872096510
   29      C       3.2053932292    -0.1980478389    -1.9328685327
   30      C       3.4931940513     1.1381844888    -2.2093430205
   31      C       4.7846346533     1.5494827676    -2.8517813436
   32      H       4.8776230480     2.6346954779    -2.8013886006
   33      H       4.8132725318     1.2970999542    -3.9167419230
   34      C      -2.3726296869    -0.0392185269     1.3941817244
   35      C      -3.4886030766    -0.6165949652     2.2607307983
   36      H      -4.4252670858    -0.6665693246     1.7061114722
   37      H      -3.6863780425     0.0206517885     3.1220704494
   38      H      -3.2516375773    -1.6181580413     2.6220170190
   39      C       3.8868759552    -1.4096602849    -2.5687510677
   40      C       5.2286940376    -1.2808151221    -3.2611269274
   41      C       5.5623965182    -2.2102758060    -4.2487923551
   42      H       4.7848374767    -2.7821914651    -4.7376692634
   43      C       6.8680908652    -2.4780415590    -4.5860804944
   44      C       7.1759657757    -3.3985613389    -5.5996377219
   45      N       7.4387182576    -4.1612625058    -6.4299637042
   46      C       7.9709824771    -1.8066874299    -3.8269268389
   47      C       7.6249705038    -0.7260436947    -2.9937258090
   48      H       8.4181624420    -0.1048116366    -2.5958627085
   49      C       6.3271765371    -0.3991899882    -2.7449617176
   50      C       9.2937339108    -2.1963299541    -4.0036074523
   51      N      10.4000400463    -2.5187782234    -4.1541462188
   52      C       5.9704634291     0.9028674603    -2.1191479643
   53      H       6.8431772710     1.5565162688    -2.1358735202
   54      H       5.7036182268     0.7698663622    -1.0640669282
   55      C       2.8564468044    -2.0285887371    -3.5032826198
   56      C       2.2358787660    -1.4418561970    -4.5891013304
   57      H       2.4606918862    -0.4219878541    -4.8765633526
   58      C       1.3044368795    -2.1855555172    -5.3045192768
   59      H       0.8062810291    -1.7441436053    -6.1575998748
   60      C       1.0040541484    -3.4925733305    -4.9321565112
   61      H       0.2771169440    -4.0569489994    -5.5015639580
   62      C       1.6237325699    -4.0778482621    -3.8377705069
   63      H       1.3811765005    -5.0929044174    -3.5493618572
   64      C       2.5545428760    -3.3359074759    -3.1246968306
   65      C       3.3397597528    -3.6696387150    -1.9432872767
   66      C       3.4049021495    -4.8351990958    -1.1967750810
   67      H       2.8205430307    -5.7049249716    -1.4699520684
   68      C       4.2316663594    -4.8655203661    -0.0819422257
   69      H       4.2957917920    -5.7671166083     0.5126867489
   70      C       4.9723864620    -3.7468434776     0.2857140995
   71      H       5.6016414876    -3.7868539645     1.1647733338
   72      C       4.9075053630    -2.5769339885    -0.4618278990
   73      H       5.4761006206    -1.7042164695    -0.1653874064
   74      C       4.0931600766    -2.5523284296    -1.5766397754
   75      C      -2.8109307986     1.3629010617     0.9222975636
   76      H      -2.0589882822     1.8302417897     0.2864890736
   77      H      -3.7367606528     1.2941986606     0.3478004065
   78      H      -2.9843509863     2.0182041081     1.7777778200
 ----------------------------------------------------------------

   16   -1855.4387454282      5.91E-09 Convergence criterion met
 Total energy in the final basis set = -1855.43874543
 Final energy is   -1855.43874542822
 **  OPTIMIZATION CONVERGED  **

                    Orbital Energies (a.u.)
 --------------------------------------------------------------

 Alpha MOs
 -- Occupied --
-14.681 -14.662 -14.658 -10.524 -10.520 -10.514 -10.507 -10.504
-10.500 -10.499 -10.495 -10.492 -10.492 -10.487 -10.482 -10.480
-10.475 -10.474 -10.473 -10.469 -10.469 -10.468 -10.466 -10.463
-10.463 -10.463 -10.462 -10.461 -10.460 -10.460 -10.460 -10.459
-10.459 -10.459 -10.458 -10.453 -10.452 -10.445 -10.445 -10.443
-10.443 -10.442 -10.440 -10.438 -10.436 -10.427 -10.425  -1.092
 -1.041  -1.030  -1.024  -0.999  -0.985  -0.964  -0.960  -0.959
 -0.936  -0.931  -0.911  -0.898  -0.887  -0.881  -0.855  -0.852
 -0.849  -0.843  -0.835  -0.821  -0.819  -0.811  -0.791  -0.776
 -0.770  -0.741  -0.728  -0.721  -0.713  -0.708  -0.701  -0.687
 -0.677  -0.673  -0.671  -0.667  -0.661  -0.640  -0.618  -0.613
 -0.612  -0.607  -0.591  -0.582  -0.579  -0.564  -0.563  -0.557
 -0.540  -0.539  -0.534  -0.532  -0.529  -0.525  -0.521  -0.519
 -0.513  -0.508  -0.505  -0.502  -0.499  -0.497  -0.496  -0.491
 -0.491  -0.489  -0.484  -0.481  -0.472  -0.469  -0.459  -0.450
 -0.448  -0.446  -0.445  -0.442  -0.441  -0.437  -0.436  -0.432
 -0.427  -0.426  -0.424  -0.420  -0.418  -0.416  -0.413  -0.410
 -0.408  -0.402  -0.399  -0.397  -0.396  -0.395  -0.392  -0.378
 -0.373  -0.365  -0.350  -0.345  -0.337  -0.317  -0.306  -0.300
 -0.299  -0.290  -0.288  -0.283  -0.268  -0.231  -0.203

 Beta MOs
 -- Occupied --
-14.681 -14.654 -14.653 -10.514 -10.512 -10.507 -10.503 -10.503
-10.501 -10.497 -10.495 -10.492 -10.492 -10.491 -10.485 -10.480
-10.474 -10.474 -10.472 -10.469 -10.469 -10.468 -10.467 -10.463
-10.462 -10.462 -10.462 -10.461 -10.461 -10.460 -10.460 -10.459
-10.459 -10.459 -10.458 -10.453 -10.452 -10.445 -10.445 -10.443
-10.443 -10.442 -10.440 -10.438 -10.436 -10.427 -10.425  -1.092
 -1.031  -1.023  -1.013  -0.988  -0.982  -0.964  -0.959  -0.958
 -0.929  -0.923  -0.911  -0.892  -0.884  -0.871  -0.854  -0.851
 -0.849  -0.838  -0.835  -0.820  -0.819  -0.806  -0.789  -0.771
 -0.768  -0.738  -0.726  -0.719  -0.712  -0.707  -0.700  -0.686
 -0.675  -0.672  -0.671  -0.666  -0.659  -0.635  -0.618  -0.612
 -0.611  -0.605  -0.587  -0.578  -0.576  -0.562  -0.560  -0.556
 -0.539  -0.536  -0.532  -0.530  -0.526  -0.522  -0.521  -0.518
 -0.511  -0.505  -0.504  -0.502  -0.497  -0.496  -0.491  -0.491
 -0.489  -0.483  -0.478  -0.472  -0.469  -0.456  -0.453  -0.447
 -0.443  -0.441  -0.438  -0.437  -0.436  -0.435  -0.430  -0.425
 -0.425  -0.422  -0.419  -0.418  -0.414  -0.414  -0.410  -0.408
 -0.403  -0.401  -0.396  -0.395  -0.392  -0.389  -0.378  -0.373
 -0.370  -0.364  -0.345  -0.327  -0.317  -0.305  -0.300  -0.299
 -0.290  -0.288  -0.283  -0.267  -0.231

          Ground-State Mulliken Net Atomic Charges

     Atom                 Charge (a.u.)    Spin (a.u.)
  --------------------------------------------------------
      1 N                    -0.702650       0.000011
      2 C                     0.310363       0.000011
      3 C                    -0.296236       0.000018
      4 H                     0.250609       0.000007
      5 C                    -0.251581      -0.000012
      6 H                     0.230937       0.000001
      7 C                    -0.236113       0.000014
      8 H                     0.227800      -0.000001
      9 C                    -0.336430      -0.000012
     10 H                     0.227926       0.000001
     11 C                     0.161546       0.000021
     12 C                     0.313823       0.000005
     13 C                    -0.313713       0.000013
     14 H                     0.274276      -0.000003
     15 C                    -0.247407      -0.000018
     16 H                     0.231857       0.000003
     17 C                    -0.238984       0.000024
     18 H                     0.225555      -0.000002
     19 C                    -0.332298      -0.000004
     20 H                     0.227993       0.000000
     21 C                     0.141663       0.000014
     22 C                     0.218347       0.001371
     23 C                    -0.305459      -0.002082
     24 H                     0.286244       0.000119
     25 C                    -0.245094      -0.001561
     26 H                     0.249747       0.000103
     27 C                    -0.315490       0.001447
     28 H                     0.236963      -0.000002
     29 C                     0.202048       0.013267
     30 C                     0.082071      -0.002518
     31 C                    -0.548620       0.016666
     32 H                     0.268684       0.003202
     33 H                     0.260275      -0.001983
     34 C                    -0.224284      -0.000003
     35 C                    -0.672574       0.000000
     36 H                     0.234539      -0.000000
     37 H                     0.234536      -0.000000
     38 H                     0.241491       0.000000
     39 C                    -0.404109      -0.063722
     40 C                     0.126613       0.691896
     41 C                    -0.254255      -0.308051
     42 H                     0.287925       0.016071
     43 C                     0.056660       0.480351
     44 C                     0.007504      -0.163652
     45 N                    -0.200004       0.249864
     46 C                     0.051108       0.646250
     47 C                    -0.305988      -0.270980
     48 H                     0.262755       0.013803
     49 C                     0.148692       0.465987
     50 C                     0.006902      -0.220433
     51 N                    -0.199099       0.356273
     52 C                    -0.526264      -0.039607
     53 H                     0.267967       0.003640
     54 H                     0.266577       0.029599
     55 C                     0.068284       0.019658
     56 C                    -0.269243      -0.004487
     57 H                     0.240588       0.000273
     58 C                    -0.247310       0.004797
     59 H                     0.245810      -0.000162
     60 C                    -0.229481      -0.002891
     61 H                     0.245885       0.000141
     62 C                    -0.333869       0.003728
     63 H                     0.233715      -0.000154
     64 C                     0.151185      -0.007147
     65 C                     0.143390       0.030162
     66 C                    -0.331425      -0.021610
     67 H                     0.233006       0.001594
     68 C                    -0.227519       0.037215
     69 H                     0.245623      -0.002113
     70 C                    -0.237455      -0.023460
     71 H                     0.244100       0.001270
     72 C                    -0.284634       0.029145
     73 H                     0.235629      -0.001723
     74 C                     0.128401       0.020355
     75 C                    -0.604393       0.000003
     76 H                     0.234741      -0.000000
     77 H                     0.225662      -0.000000
     78 H                     0.223965      -0.000000
  --------------------------------------------------------
  Sum of atomic charges =    -0.000000

                    Cartesian Multipole Moments
 -----------------------------------------------------------------
    Charge (ESU x 10^10)
                -0.0000
    Dipole Moment (Debye)
         X      -6.7649      Y       5.1283      Z       4.4582
       Tot       9.5885
    Quadrupole Moments (Debye-Ang)
        XX    -359.3531     XY      62.5413     YY    -271.3803
        XZ      66.8402     YZ     -34.3610     ZZ    -298.0316

 Total job time:  20884.59s(wall), 60491.11s(cpu)
        *  Thank you very much for using Q-Chem.  Have a nice day.  *
