 Q-Chem 5.0, Q-Chem, Inc., Pleasanton, CA (2017)
 Q-Chem 5.0.1 for Intel X86 EM64T Linux

User input:
--------------------------------------------------------------
$rem
threads 8
jobtype opt
method PBEh-3c
basis def2-mSVP
mem_static      1024
mem_total       8000
sym_ignore      true
unrestricted true
scf_algorithm	diis
scf_max_cycles	250
solvent_method  pcm
geom_opt_tol_energy 25
geom_opt_tol_gradient 75
$end

$pcm
theory  iefpcm
$end

$solvent
dielectric      2.75
$end

$molecule
read ut1opt_tol.mol
$end
--------------------------------------------------------------

   22   -1855.4409467628      7.93E-09 Convergence criterion met
 Total energy in the final basis set = -1855.44094676
   16   -1855.4408192099      8.71E-09 Convergence criterion met
 Total energy in the final basis set = -1855.44081921
   17   -1855.4407319696      5.61E-09 Convergence criterion met
 Total energy in the final basis set = -1855.44073197
   17   -1855.4401791165      5.53E-09 Convergence criterion met
 Total energy in the final basis set = -1855.44017912
   16   -1855.4403398734      9.48E-09 Convergence criterion met
 Total energy in the final basis set = -1855.44033987
   17   -1855.4402993927      5.22E-09 Convergence criterion met
 Total energy in the final basis set = -1855.44029939
   17   -1855.4402286639      5.41E-09 Convergence criterion met
 Total energy in the final basis set = -1855.44022866
   17   -1855.4401250909      5.65E-09 Convergence criterion met
 Total energy in the final basis set = -1855.44012509
   17   -1855.4401402271      5.35E-09 Convergence criterion met
 Total energy in the final basis set = -1855.44014023
   16   -1855.4401555156      7.24E-09 Convergence criterion met
 Total energy in the final basis set = -1855.44015552

             Standard Nuclear Orientation (Angstroms)
    I     Atom           X                Y                Z
 ----------------------------------------------------------------
    1      N       0.0606821491     0.1435301586     0.0180878758
    2      C       0.1152928608     0.2561079123     1.4122201092
    3      C       1.3225231604     0.5058123893     2.0652458798
    4      H       2.2345022656     0.6331884404     1.4989090384
    5      C       1.3650320546     0.5798526357     3.4468228778
    6      H       2.3095725309     0.7745322013     3.9380314777
    7      C       0.2133028618     0.3890426594     4.1912907915
    8      H       0.2407635707     0.4352145025     5.2717288916
    9      C      -0.9849348493     0.1465099596     3.5362244719
   10      H      -1.8794818869     0.0124655758     4.1285489019
   11      C      -1.0634562862     0.0942393954     2.1509330919
   12      C      -0.9340635395    -0.6517330335    -0.5634910699
   13      C      -0.7827800092    -1.2214581257    -1.8297238449
   14      H       0.0918722971    -1.0253153093    -2.4328893885
   15      C      -1.7525241549    -2.0674571869    -2.3404473957
   16      H      -1.6014892151    -2.5050621487    -3.3188240610
   17      C      -2.8853012271    -2.3607978326    -1.6020281400
   18      H      -3.6375092277    -3.0376429638    -1.9848767961
   19      C      -3.0586881930    -1.7506659023    -0.3691776899
   20      H      -3.9658273118    -1.9551128406     0.1822647629
   21      C      -2.1183770667    -0.8732802543     0.1548372655
   22      C       1.2140100810     0.4847422351    -0.7323582344
   23      C       2.1000578283    -0.4943500052    -1.1408371418
   24      H       1.8904742717    -1.5224201170    -0.8700766421
   25      C       1.4566289872     1.8076658874    -1.0690168199
   26      H       0.7640024835     2.5811409016    -0.7633674772
   27      C       2.6067609210     2.1203073379    -1.7695520291
   28      H       2.8274401228     3.1579112849    -1.9888560398
   29      C       3.2051475307    -0.1985161322    -1.9330991379
   30      C       3.4926922358     1.1377205776    -2.2099857883
   31      C       4.7840406059     1.5489432951    -2.8525116529
   32      H       4.8770065179     2.6341347343    -2.8023888356
   33      H       4.8125367466     1.2961506387    -3.9173768427
   34      C      -2.3729033103    -0.0385483723     1.3944061677
   35      C      -3.4894065523    -0.6157538042     2.2604285253
   36      H      -4.4260887275    -0.6644129721     1.7057088344
   37      H      -3.6864720741     0.0208501481     3.1223810540
   38      H      -3.2534359130    -1.6179253280     2.6207000819
   39      C       3.8870607629    -1.4102031502    -2.5685218813
   40      C       5.2291050228    -1.2817118813    -3.2605443112
   41      C       5.5631721434    -2.2117395214    -4.2472353642
   42      H       4.7861145402    -2.7855005113    -4.7347243757
   43      C       6.8692164984    -2.4783081731    -4.5850231378
   44      C       7.1773557035    -3.4007330883    -5.5966247000
   45      N       7.4405882765    -4.1649118507    -6.4255154304
   46      C       7.9719282568    -1.8040315933    -3.8282725387
   47      C       7.6255522640    -0.7248656611    -2.9943028127
   48      H       8.4180918740    -0.1029004928    -2.5963161275
   49      C       6.3271286096    -0.3990158085    -2.7449255461
   50      C       9.2953620160    -2.1899325504    -4.0096048359
   51      N      10.4014796905    -2.5103807832    -4.1652865715
   52      C       5.9699363772     0.9028600973    -2.1194686294
   53      H       6.8424102634     1.5567932307    -2.1361893700
   54      H       5.7031771686     0.7696152883    -1.0643693613
   55      C       2.8569508070    -2.0297898584    -3.5028756331
   56      C       2.2368890968    -1.4439765096    -4.5895156548
   57      H       2.4619758863    -0.4244646119    -4.8781227218
   58      C       1.3056641899    -2.1882844074    -5.3046050252
   59      H       0.8078958045    -1.7475298640    -6.1582680973
   60      C       1.0050086381    -3.4950388249    -4.9312590449
   61      H       0.2781372964    -4.0597626051    -5.5004187217
   62      C       1.6243281102    -4.0794897919    -3.8361833715
   63      H       1.3818302917    -5.0943669957    -3.5470547876
   64      C       2.5549366548    -3.3368794951    -3.1234376653
   65      C       3.3401611374    -3.6699069100    -1.9417884695
   66      C       3.4051295100    -4.8350479871    -1.1945213286
   67      H       2.8206125239    -5.7048290605    -1.4671923952
   68      C       4.2319421989    -4.8646149554    -0.0796077217
   69      H       4.2959626399    -5.7657376221     0.5157830019
   70      C       4.9727557499    -3.7456806477     0.2873120435
   71      H       5.6020065249    -3.7851393310     1.1664204715
   72      C       4.9079583215    -2.5761565592    -0.4609151274
   73      H       5.4767958590    -1.7033739227    -0.1650163836
   74      C       4.0935887093    -2.5522956406    -1.5758112764
   75      C      -2.8098739859     1.3645335700     0.9241113661
   76      H      -2.0574881632     1.8321456888     0.2889750230
   77      H      -3.7357496065     1.2972352703     0.3494924113
   78      H      -2.9829881471     2.0188568783     1.7803965740
 ----------------------------------------------------------------

   16   -1855.4401556754      6.70E-09 Convergence criterion met
 Total energy in the final basis set = -1855.44015568
 Final energy is   -1855.44015567542
 **  OPTIMIZATION CONVERGED  **

                    Orbital Energies (a.u.)
 --------------------------------------------------------------

 Alpha MOs
 -- Occupied --
-14.681 -14.662 -14.658 -10.524 -10.520 -10.514 -10.506 -10.504
-10.500 -10.500 -10.495 -10.493 -10.492 -10.487 -10.481 -10.480
-10.475 -10.474 -10.473 -10.469 -10.469 -10.468 -10.466 -10.462
-10.462 -10.462 -10.462 -10.460 -10.460 -10.460 -10.460 -10.459
-10.459 -10.459 -10.458 -10.453 -10.452 -10.445 -10.445 -10.443
-10.443 -10.442 -10.440 -10.438 -10.436 -10.427 -10.425  -1.092
 -1.041  -1.030  -1.025  -0.999  -0.985  -0.964  -0.960  -0.959
 -0.936  -0.931  -0.911  -0.897  -0.887  -0.881  -0.855  -0.852
 -0.849  -0.842  -0.835  -0.820  -0.819  -0.811  -0.791  -0.776
 -0.770  -0.740  -0.728  -0.721  -0.713  -0.708  -0.701  -0.687
 -0.676  -0.673  -0.671  -0.667  -0.661  -0.640  -0.618  -0.613
 -0.612  -0.607  -0.591  -0.582  -0.578  -0.564  -0.563  -0.556
 -0.540  -0.539  -0.533  -0.532  -0.529  -0.524  -0.521  -0.519
 -0.513  -0.508  -0.505  -0.502  -0.499  -0.497  -0.496  -0.491
 -0.490  -0.489  -0.483  -0.480  -0.472  -0.468  -0.459  -0.451
 -0.448  -0.446  -0.446  -0.442  -0.441  -0.437  -0.435  -0.432
 -0.427  -0.426  -0.424  -0.420  -0.418  -0.415  -0.413  -0.410
 -0.408  -0.402  -0.399  -0.397  -0.396  -0.395  -0.392  -0.378
 -0.373  -0.365  -0.350  -0.344  -0.337  -0.317  -0.306  -0.300
 -0.299  -0.290  -0.289  -0.283  -0.268  -0.231  -0.203

 Beta MOs
 -- Occupied --
-14.681 -14.655 -14.653 -10.514 -10.512 -10.507 -10.504 -10.503
-10.502 -10.497 -10.495 -10.493 -10.492 -10.491 -10.485 -10.480
-10.474 -10.474 -10.472 -10.469 -10.468 -10.468 -10.466 -10.462
-10.462 -10.461 -10.461 -10.460 -10.460 -10.460 -10.460 -10.459
-10.459 -10.459 -10.458 -10.453 -10.452 -10.445 -10.445 -10.443
-10.443 -10.442 -10.440 -10.438 -10.436 -10.427 -10.425  -1.092
 -1.031  -1.023  -1.014  -0.988  -0.982  -0.963  -0.959  -0.959
 -0.929  -0.922  -0.911  -0.892  -0.884  -0.871  -0.854  -0.851
 -0.849  -0.838  -0.835  -0.820  -0.819  -0.806  -0.789  -0.771
 -0.767  -0.737  -0.726  -0.718  -0.712  -0.707  -0.700  -0.686
 -0.675  -0.672  -0.670  -0.666  -0.659  -0.635  -0.618  -0.612
 -0.611  -0.605  -0.587  -0.578  -0.576  -0.562  -0.560  -0.556
 -0.539  -0.536  -0.531  -0.530  -0.525  -0.522  -0.521  -0.517
 -0.511  -0.505  -0.504  -0.502  -0.497  -0.496  -0.491  -0.490
 -0.489  -0.483  -0.477  -0.471  -0.469  -0.456  -0.453  -0.447
 -0.443  -0.441  -0.438  -0.437  -0.436  -0.435  -0.430  -0.425
 -0.425  -0.422  -0.419  -0.418  -0.415  -0.414  -0.409  -0.408
 -0.403  -0.401  -0.396  -0.395  -0.392  -0.389  -0.378  -0.373
 -0.370  -0.364  -0.345  -0.327  -0.317  -0.304  -0.300  -0.299
 -0.289  -0.288  -0.283  -0.267  -0.231

          Ground-State Mulliken Net Atomic Charges

     Atom                 Charge (a.u.)    Spin (a.u.)
  --------------------------------------------------------
      1 N                    -0.702293       0.000010
      2 C                     0.310274       0.000012
      3 C                    -0.297435       0.000017
      4 H                     0.251606       0.000007
      5 C                    -0.252874      -0.000011
      6 H                     0.232353       0.000001
      7 C                    -0.237680       0.000014
      8 H                     0.229099      -0.000001
      9 C                    -0.337385      -0.000012
     10 H                     0.229312       0.000001
     11 C                     0.160390       0.000021
     12 C                     0.313561       0.000006
     13 C                    -0.314428       0.000013
     14 H                     0.274736      -0.000004
     15 C                    -0.248715      -0.000018
     16 H                     0.233070       0.000003
     17 C                    -0.240540       0.000024
     18 H                     0.226913      -0.000002
     19 C                    -0.333244      -0.000004
     20 H                     0.229371       0.000000
     21 C                     0.140751       0.000013
     22 C                     0.217887       0.001376
     23 C                    -0.305633      -0.002077
     24 H                     0.286409       0.000119
     25 C                    -0.246132      -0.001554
     26 H                     0.250793       0.000103
     27 C                    -0.316499       0.001449
     28 H                     0.238471      -0.000003
     29 C                     0.202091       0.013242
     30 C                     0.082089      -0.002497
     31 C                    -0.549274       0.016748
     32 H                     0.269796       0.003216
     33 H                     0.260869      -0.001991
     34 C                    -0.223732      -0.000003
     35 C                    -0.673234       0.000000
     36 H                     0.235165      -0.000000
     37 H                     0.235203      -0.000000
     38 H                     0.241509       0.000000
     39 C                    -0.403887      -0.063667
     40 C                     0.127521       0.690450
     41 C                    -0.254589      -0.307372
     42 H                     0.288720       0.015969
     43 C                     0.056210       0.480703
     44 C                     0.008213      -0.163209
     45 N                    -0.202973       0.249763
     46 C                     0.050987       0.643552
     47 C                    -0.306102      -0.271492
     48 H                     0.264444       0.013759
     49 C                     0.148573       0.469557
     50 C                     0.007414      -0.218756
     51 N                    -0.202148       0.353888
     52 C                    -0.526893      -0.039857
     53 H                     0.269138       0.003673
     54 H                     0.267453       0.029856
     55 C                     0.068323       0.019740
     56 C                    -0.270071      -0.004509
     57 H                     0.241801       0.000273
     58 C                    -0.248321       0.004819
     59 H                     0.246954      -0.000163
     60 C                    -0.230416      -0.002866
     61 H                     0.247028       0.000139
     62 C                    -0.334921       0.003713
     63 H                     0.235212      -0.000153
     64 C                     0.150637      -0.007127
     65 C                     0.142860       0.030220
     66 C                    -0.332424      -0.021658
     67 H                     0.234587       0.001593
     68 C                    -0.228755       0.037347
     69 H                     0.246833      -0.002118
     70 C                    -0.238702      -0.023502
     71 H                     0.245328       0.001270
     72 C                    -0.285721       0.029181
     73 H                     0.237292      -0.001730
     74 C                     0.127768       0.020495
     75 C                    -0.605358       0.000003
     76 H                     0.234966      -0.000000
     77 H                     0.226007      -0.000000
     78 H                     0.224393      -0.000000
  --------------------------------------------------------
  Sum of atomic charges =    -0.000000

                    Cartesian Multipole Moments
 -----------------------------------------------------------------
    Charge (ESU x 10^10)
                -0.0000
    Dipole Moment (Debye)
         X      -6.8450      Y       5.2210      Z       4.5245
       Tot       9.7255
    Quadrupole Moments (Debye-Ang)
        XX    -360.4361     XY      63.3533     YY    -271.4915
        XZ      67.7496     YZ     -34.8514     ZZ    -298.4265

 Total job time:  21151.79s(wall), 57500.96s(cpu)
        *  Thank you very much for using Q-Chem.  Have a nice day.  *
