 Q-Chem 5.0, Q-Chem, Inc., Pleasanton, CA (2017)
 Q-Chem 5.0.1 for Intel X86 EM64T Linux

User input:
--------------------------------------------------------------
$rem
threads 8
jobtype opt
method PBEh-3c
basis def2-mSVP
mem_static      1024
mem_total       8000
sym_ignore      true
unrestricted true
scf_algorithm	diis
scf_max_cycles	250
solvent_method  pcm
geom_opt_tol_energy 25
geom_opt_tol_gradient 75
$end

$pcm
theory  iefpcm
$end

$solvent
dielectric      3.00
$end

$molecule
read ut1opt_tol.mol
$end
--------------------------------------------------------------

   22   -1855.4421738775      7.45E-09 Convergence criterion met
 Total energy in the final basis set = -1855.44217388
   16   -1855.4420459810      8.81E-09 Convergence criterion met
 Total energy in the final basis set = -1855.44204598
   17   -1855.4419605441      5.83E-09 Convergence criterion met
 Total energy in the final basis set = -1855.44196054
   17   -1855.4414147919      5.82E-09 Convergence criterion met
 Total energy in the final basis set = -1855.44141479
   17   -1855.4415664600      5.23E-09 Convergence criterion met
 Total energy in the final basis set = -1855.44156646
   17   -1855.4415212754      5.49E-09 Convergence criterion met
 Total energy in the final basis set = -1855.44152128
   17   -1855.4414546340      5.67E-09 Convergence criterion met
 Total energy in the final basis set = -1855.44145463
   17   -1855.4413569406      5.89E-09 Convergence criterion met
 Total energy in the final basis set = -1855.44135694
   17   -1855.4413725985      5.62E-09 Convergence criterion met
 Total energy in the final basis set = -1855.44137260
   16   -1855.4413842515      8.33E-09 Convergence criterion met
 Total energy in the final basis set = -1855.44138425
   16   -1855.4413837144      6.37E-09 Convergence criterion met
 Total energy in the final basis set = -1855.44138371

             Standard Nuclear Orientation (Angstroms)
    I     Atom           X                Y                Z
 ----------------------------------------------------------------
    1      N       0.0607493196     0.1422681179     0.0183768551
    2      C       0.1149737515     0.2546228239     1.4125046977
    3      C       1.3224104086     0.5025357525     2.0659150108
    4      H       2.2347838742     0.6286255987     1.4998869732
    5      C       1.3646018080     0.5764529601     3.4475579988
    6      H       2.3092957864     0.7696768779     3.9390637094
    7      C       0.2122624686     0.3872595513     4.1916578226
    8      H       0.2393713854     0.4335034807     5.2721161439
    9      C      -0.9861341466     0.1463036176     3.5361876779
   10      H      -1.8810857395     0.0135362572     4.1282295310
   11      C      -1.0642354875     0.0941211973     2.1508120997
   12      C      -0.9346671897    -0.6517124794    -0.5635903789
   13      C      -0.7835732947    -1.2215831232    -1.8298588851
   14      H       0.0916289921    -1.0264642920    -2.4325716133
   15      C      -1.7541287818    -2.0664602287    -2.3410671429
   16      H      -1.6033574864    -2.5041059581    -3.3194884386
   17      C      -2.8875307779    -2.3586318401    -1.6030467550
   18      H      -3.6403272372    -3.0346611812    -1.9862129881
   19      C      -3.0606698861    -1.7484239610    -0.3701295839
   20      H      -3.9682933812    -1.9518675152     0.1809023746
   21      C      -2.1195743593    -0.8720505440     0.1542994009
   22      C       1.2141621691     0.4838197892    -0.7319147193
   23      C       2.1001648761    -0.4950834919    -1.1408209804
   24      H       1.8907692076    -1.5232969455    -0.8704213650
   25      C       1.4567064421     1.8069743741    -1.0679423363
   26      H       0.7640983395     2.5803496646    -0.7619195009
   27      C       2.6066786383     2.1199672504    -1.7686257639
   28      H       2.8272376099     3.1576433431    -1.9876679895
   29      C       3.2052141447    -0.1987892808    -1.9329917487
   30      C       3.4925939493     1.1375185211    -2.2096026738
   31      C       4.7835081185     1.5488803387    -2.8528222626
   32      H       4.8763991836     2.6340776581    -2.8029863360
   33      H       4.8112431591     1.2959062983    -3.9176651070
   34      C      -2.3736304650    -0.0372307211     1.3939489976
   35      C      -3.4908410788    -0.6135153116     2.2596512125
   36      H      -4.4274566602    -0.6610784570     1.7047362446
   37      H      -3.6872841464     0.0230520702     3.1217770106
   38      H      -3.2559721702    -1.6160250059     2.6197376409
   39      C       3.8873354135    -1.4102743188    -2.5684413558
   40      C       5.2291623883    -1.2816835857    -3.2607625143
   41      C       5.5630017823    -2.2116628915    -4.2476026959
   42      H       4.7859769074    -2.7856352803    -4.7348948627
   43      C       6.8690474858    -2.4776992051    -4.5857560886
   44      C       7.1773529278    -3.3999420104    -5.5974646584
   45      N       7.4417018652    -4.1639664309    -6.4261715941
   46      C       7.9718125289    -1.8032640068    -3.8293554700
   47      C       7.6257990048    -0.7242439087    -2.9953703790
   48      H       8.4182510584    -0.1021209884    -2.5974797635
   49      C       6.3272218743    -0.3985370975    -2.7457229420
   50      C       9.2951902460    -2.1893992687    -4.0112577157
   51      N      10.4009962066    -2.5105083558    -4.1676780218
   52      C       5.9699446512     0.9031834800    -2.1202859095
   53      H       6.8421925212     1.5573548539    -2.1372704451
   54      H       5.7038460767     0.7694824044    -1.0650700551
   55      C       2.8572956829    -2.0306215879    -3.5023657258
   56      C       2.2364992393    -1.4451402188    -4.5887909572
   57      H       2.4610485680    -0.4255713558    -4.8776220625
   58      C       1.3052064006    -2.1900117975    -5.3033112846
   59      H       0.8066887731    -1.7495810522    -6.1567184430
   60      C       1.0053105271    -3.4968829919    -4.9295967840
   61      H       0.2782662944    -4.0619563186    -5.4982005009
   62      C       1.6255987395    -4.0810483625    -3.8348507738
   63      H       1.3837682647    -5.0960257809    -3.5454447369
   64      C       2.5562481424    -3.3378717776    -3.1226975888
   65      C       3.3421891774    -3.6703325570    -1.9413563520
   66      C       3.4081954995    -4.8354084596    -1.1940153716
   67      H       2.8242508630    -5.7056405340    -1.4665430985
   68      C       4.2352546968    -4.8642350545    -0.0791928947
   69      H       4.3000776219    -5.7653201072     0.5161911707
   70      C       4.9751727751    -3.7446126925     0.2876722697
   71      H       5.6044156487    -3.7834566379     1.1668292200
   72      C       4.9094217793    -2.5751541607    -0.4606996749
   73      H       5.4772021866    -1.7017447537    -0.1646236764
   74      C       4.0949538290    -2.5521633450    -1.5756002750
   75      C      -2.8091367335     1.3663906338     0.9238431240
   76      H      -2.0562443897     1.8335292227     0.2889277106
   77      H      -3.7351116937     1.3001220653     0.3492594429
   78      H      -2.9817841204     2.0205889279     1.7803344449
 ----------------------------------------------------------------

   16   -1855.4413864473      6.50E-09 Convergence criterion met
 Total energy in the final basis set = -1855.44138645
 Final energy is   -1855.44138644728
 **  OPTIMIZATION CONVERGED  **

                    Orbital Energies (a.u.)
 --------------------------------------------------------------

 Alpha MOs
 -- Occupied --
-14.681 -14.663 -14.659 -10.524 -10.520 -10.514 -10.506 -10.504
-10.501 -10.500 -10.495 -10.493 -10.493 -10.487 -10.481 -10.480
-10.475 -10.473 -10.472 -10.469 -10.469 -10.468 -10.465 -10.462
-10.462 -10.461 -10.461 -10.460 -10.460 -10.459 -10.459 -10.459
-10.459 -10.458 -10.458 -10.453 -10.452 -10.445 -10.445 -10.443
-10.443 -10.443 -10.441 -10.438 -10.436 -10.427 -10.425  -1.092
 -1.041  -1.030  -1.025  -0.999  -0.984  -0.964  -0.960  -0.959
 -0.936  -0.930  -0.911  -0.897  -0.887  -0.881  -0.855  -0.851
 -0.849  -0.842  -0.835  -0.820  -0.819  -0.811  -0.791  -0.776
 -0.770  -0.740  -0.728  -0.721  -0.713  -0.708  -0.701  -0.687
 -0.676  -0.672  -0.671  -0.666  -0.661  -0.639  -0.618  -0.613
 -0.612  -0.606  -0.590  -0.581  -0.578  -0.564  -0.563  -0.556
 -0.539  -0.539  -0.533  -0.532  -0.529  -0.524  -0.521  -0.519
 -0.513  -0.508  -0.505  -0.502  -0.499  -0.497  -0.495  -0.491
 -0.490  -0.489  -0.483  -0.480  -0.472  -0.468  -0.459  -0.451
 -0.448  -0.446  -0.446  -0.442  -0.441  -0.437  -0.435  -0.432
 -0.427  -0.426  -0.423  -0.420  -0.418  -0.415  -0.413  -0.409
 -0.407  -0.402  -0.400  -0.397  -0.396  -0.395  -0.392  -0.378
 -0.373  -0.365  -0.350  -0.344  -0.337  -0.317  -0.305  -0.300
 -0.299  -0.290  -0.289  -0.283  -0.267  -0.231  -0.203

 Beta MOs
 -- Occupied --
-14.681 -14.655 -14.653 -10.514 -10.512 -10.507 -10.504 -10.503
-10.503 -10.497 -10.495 -10.493 -10.493 -10.491 -10.485 -10.480
-10.474 -10.473 -10.472 -10.469 -10.468 -10.468 -10.465 -10.462
-10.462 -10.461 -10.461 -10.460 -10.460 -10.459 -10.459 -10.459
-10.459 -10.458 -10.458 -10.453 -10.452 -10.445 -10.445 -10.443
-10.443 -10.443 -10.441 -10.438 -10.436 -10.427 -10.425  -1.092
 -1.031  -1.023  -1.014  -0.988  -0.982  -0.963  -0.959  -0.959
 -0.928  -0.922  -0.911  -0.892  -0.883  -0.871  -0.854  -0.851
 -0.849  -0.837  -0.835  -0.819  -0.819  -0.806  -0.789  -0.771
 -0.767  -0.737  -0.726  -0.718  -0.711  -0.707  -0.700  -0.686
 -0.675  -0.672  -0.670  -0.666  -0.659  -0.635  -0.618  -0.612
 -0.611  -0.605  -0.587  -0.578  -0.575  -0.562  -0.560  -0.556
 -0.539  -0.536  -0.531  -0.530  -0.525  -0.522  -0.521  -0.517
 -0.510  -0.504  -0.504  -0.502  -0.497  -0.495  -0.491  -0.490
 -0.489  -0.483  -0.477  -0.471  -0.468  -0.456  -0.452  -0.447
 -0.443  -0.441  -0.439  -0.437  -0.437  -0.435  -0.429  -0.425
 -0.424  -0.421  -0.419  -0.418  -0.415  -0.413  -0.409  -0.407
 -0.403  -0.401  -0.396  -0.395  -0.392  -0.389  -0.378  -0.373
 -0.370  -0.364  -0.345  -0.327  -0.316  -0.304  -0.300  -0.299
 -0.289  -0.289  -0.283  -0.267  -0.231

          Ground-State Mulliken Net Atomic Charges

     Atom                 Charge (a.u.)    Spin (a.u.)
  --------------------------------------------------------
      1 N                    -0.702100       0.000009
      2 C                     0.310065       0.000012
      3 C                    -0.298395       0.000017
      4 H                     0.252506       0.000007
      5 C                    -0.254049      -0.000011
      6 H                     0.233607       0.000001
      7 C                    -0.239023       0.000013
      8 H                     0.230239      -0.000001
      9 C                    -0.338205      -0.000011
     10 H                     0.230521       0.000001
     11 C                     0.159456       0.000021
     12 C                     0.313319       0.000006
     13 C                    -0.315107       0.000012
     14 H                     0.275176      -0.000004
     15 C                    -0.249859      -0.000018
     16 H                     0.234134       0.000003
     17 C                    -0.241862       0.000023
     18 H                     0.228106      -0.000002
     19 C                    -0.334075      -0.000003
     20 H                     0.230580       0.000000
     21 C                     0.139834       0.000013
     22 C                     0.217698       0.001381
     23 C                    -0.305980      -0.002075
     24 H                     0.286557       0.000119
     25 C                    -0.247009      -0.001552
     26 H                     0.251708       0.000103
     27 C                    -0.317359       0.001452
     28 H                     0.239779      -0.000003
     29 C                     0.202196       0.013250
     30 C                     0.082020      -0.002487
     31 C                    -0.549871       0.016772
     32 H                     0.270751       0.003227
     33 H                     0.261379      -0.001996
     34 C                    -0.223158      -0.000003
     35 C                    -0.673799       0.000000
     36 H                     0.235720      -0.000000
     37 H                     0.235788      -0.000000
     38 H                     0.241514       0.000000
     39 C                    -0.403570      -0.063690
     40 C                     0.128021       0.690126
     41 C                    -0.254622      -0.306441
     42 H                     0.289418       0.015913
     43 C                     0.055781       0.479926
     44 C                     0.008874      -0.162450
     45 N                    -0.205546       0.249049
     46 C                     0.050598       0.642117
     47 C                    -0.306241      -0.271227
     48 H                     0.265895       0.013733
     49 C                     0.148695       0.470774
     50 C                     0.007981      -0.217616
     51 N                    -0.204779       0.352430
     52 C                    -0.527389      -0.039906
     53 H                     0.270159       0.003688
     54 H                     0.268203       0.029967
     55 C                     0.068036       0.019822
     56 C                    -0.270679      -0.004537
     57 H                     0.242900       0.000273
     58 C                    -0.249258       0.004845
     59 H                     0.247955      -0.000164
     60 C                    -0.231187      -0.002860
     61 H                     0.248028       0.000138
     62 C                    -0.335919       0.003714
     63 H                     0.236526      -0.000154
     64 C                     0.150265      -0.007134
     65 C                     0.142460       0.030325
     66 C                    -0.333349      -0.021739
     67 H                     0.235966       0.001595
     68 C                    -0.229803       0.037510
     69 H                     0.247889      -0.002125
     70 C                    -0.239837      -0.023575
     71 H                     0.246407       0.001272
     72 C                    -0.286678       0.029259
     73 H                     0.238792      -0.001735
     74 C                     0.127162       0.020596
     75 C                    -0.606198       0.000003
     76 H                     0.235160      -0.000000
     77 H                     0.226320      -0.000000
     78 H                     0.224761      -0.000000
  --------------------------------------------------------
  Sum of atomic charges =    -0.000000

                    Cartesian Multipole Moments
 -----------------------------------------------------------------
    Charge (ESU x 10^10)
                -0.0000
    Dipole Moment (Debye)
         X      -6.9129      Y       5.3067      Z       4.5787
       Tot       9.8444
    Quadrupole Moments (Debye-Ang)
        XX    -361.3146     XY      64.0866     YY    -271.5872
        XZ      68.4653     YZ     -35.2588     ZZ    -298.7594

 Total job time:  23181.17s(wall), 62963.41s(cpu)
        *  Thank you very much for using Q-Chem.  Have a nice day.  *
