 Q-Chem 5.0, Q-Chem, Inc., Pleasanton, CA (2017)
 Q-Chem 5.0.1 for Intel X86 EM64T Linux

User input:
--------------------------------------------------------------
$rem
threads 8
jobtype opt
method PBEh-3c
basis def2-mSVP
mem_static      1024
mem_total       8000
sym_ignore      true
unrestricted true
scf_algorithm	diis
scf_max_cycles	250
solvent_method  pcm
geom_opt_tol_energy 25
geom_opt_tol_gradient 75
$end

$pcm
theory  iefpcm
$end

$solvent
dielectric      2.57
$end

$molecule
read ut1opt_tol.mol
$end
--------------------------------------------------------------

   22   -1855.4399532228      8.20E-09 Convergence criterion met
 Total energy in the final basis set = -1855.43995322
   16   -1855.4398261609      8.65E-09 Convergence criterion met
 Total energy in the final basis set = -1855.43982616
   17   -1855.4397376220      5.45E-09 Convergence criterion met
 Total energy in the final basis set = -1855.43973762
   17   -1855.4391785692      5.30E-09 Convergence criterion met
 Total energy in the final basis set = -1855.43917857
   16   -1855.4393459396      9.06E-09 Convergence criterion met
 Total energy in the final basis set = -1855.43934594
   16   -1855.4393105064      9.79E-09 Convergence criterion met
 Total energy in the final basis set = -1855.43931051
   17   -1855.4392373415      5.20E-09 Convergence criterion met
 Total energy in the final basis set = -1855.43923734
   17   -1855.4391288829      5.47E-09 Convergence criterion met
 Total energy in the final basis set = -1855.43912888
   17   -1855.4391445718      5.13E-09 Convergence criterion met
 Total energy in the final basis set = -1855.43914457
   16   -1855.4391612898      6.85E-09 Convergence criterion met
 Total energy in the final basis set = -1855.43916129
   16   -1855.4391603814      6.89E-09 Convergence criterion met
 Total energy in the final basis set = -1855.43916038
   16   -1855.4391623593      6.24E-09 Convergence criterion met
 Total energy in the final basis set = -1855.43916236

             Standard Nuclear Orientation (Angstroms)
    I     Atom           X                Y                Z
 ----------------------------------------------------------------
    1      N       0.0608313904     0.1436663443     0.0181260262
    2      C       0.1151782427     0.2571188622     1.4123171184
    3      C       1.3222512449     0.5073031850     2.0653105520
    4      H       2.2343280553     0.6339688926     1.4989881062
    5      C       1.3644782064     0.5825869686     3.4467828269
    6      H       2.3089004480     0.7775890946     3.9380595747
    7      C       0.2126025771     0.3923871964     4.1911209445
    8      H       0.2397676276     0.4396982125     5.2715070516
    9      C      -0.9853739534     0.1489449702     3.5360531938
   10      H      -1.8799885165     0.0149896880     4.1283065964
   11      C      -1.0636060872     0.0954063310     2.1508150159
   12      C      -0.9333309420    -0.6527521160    -0.5630661758
   13      C      -0.7817189653    -1.2230887941    -1.8289474413
   14      H       0.0925694538    -1.0263700548    -2.4324155738
   15      C      -1.7506916660    -2.0703342474    -2.3389905948
   16      H      -1.5993562536    -2.5083248664    -3.3171366744
   17      C      -2.8830238504    -2.3642472935    -1.6002798714
   18      H      -3.6345317107    -3.0422192581    -1.9824873281
   19      C      -3.0569446704    -1.7533123249    -0.3679483937
   20      H      -3.9638794708    -1.9582220964     0.1836350326
   21      C      -2.1175230732    -0.8746416275     0.1553744654
   22      C       1.2142127742     0.4848853649    -0.7320499660
   23      C       2.1002222484    -0.4940893572    -1.1407700637
   24      H       1.8907408100    -1.5222472675    -0.8702642306
   25      C       1.4572173203     1.8079227402    -1.0681272284
   26      H       0.7646152514     2.5812364558    -0.7620649112
   27      C       2.6073733570     2.1206796325    -1.7684746872
   28      H       2.8281932152     3.1583466157    -1.9873157779
   29      C       3.2053420821    -0.1981320736    -1.9329388927
   30      C       3.4930877450     1.1381092715    -2.2094271347
   31      C       4.7844546986     1.5494107192    -2.8519755001
   32      H       4.8774296890     2.6346216725    -2.8016794375
   33      H       4.8129583805     1.2969314259    -3.9169171340
   34      C      -2.3727563465    -0.0389564137     1.3941728526
   35      C      -3.4888823631    -0.6161912592     2.2606260436
   36      H      -4.4255535682    -0.6658221908     1.7059892518
   37      H      -3.6864501444     0.0209509075     3.1220884411
   38      H      -3.2521979173    -1.6178896838     2.6217296722
   39      C       3.8869249154    -1.4097239011    -2.5687426673
   40      C       5.2287535075    -1.2809286108    -3.2610799190
   41      C       5.5624897195    -2.2104795365    -4.2486183217
   42      H       4.7850118189    -2.7826667419    -4.7373055429
   43      C       6.8682361718    -2.4780146337    -4.5859820260
   44      C       7.1762068844    -3.3987561086    -5.5992913827
   45      N       7.4392557498    -4.1616243843    -6.4293841381
   46      C       7.9710924024    -1.8062547868    -3.8271713488
   47      C       7.6250804741    -0.7257942245    -2.9939166392
   48      H       8.4181635719    -0.1044321328    -2.5960468948
   49      C       6.3271731391    -0.3990787872    -2.7450761850
   50      C       9.2939260241    -2.1954890388    -4.0044715023
   51      N      10.4001604279    -2.5178114911    -4.1557252865
   52      C       5.9703689689     0.9029377124    -2.1193432882
   53      H       6.8430152842     1.5566610845    -2.1361022241
   54      H       5.7036312274     0.7698330974    -1.0642425126
   55      C       2.8565688498    -2.0288748459    -3.5032007607
   56      C       2.2359787311    -1.4423306734    -4.5891182671
   57      H       2.4607682069    -0.4225117545    -4.8767884301
   58      C       1.3045497106    -2.1862035839    -5.3043945204
   59      H       0.8063430853    -1.7449454191    -6.1575298596
   60      C       1.0042230594    -3.4931907435    -4.9318115431
   61      H       0.2772580226    -4.0576680666    -5.5010873450
   62      C       1.6239828030    -4.0782974133    -3.8373635981
   63      H       1.3815207100    -5.0933357726    -3.5487955071
   64      C       2.5547823468    -3.3361767372    -3.1244388669
   65      C       3.3400908841    -3.6697066027    -1.9430274670
   66      C       3.4053539031    -4.8351862734    -1.1963763593
   67      H       2.8210592571    -5.7049922976    -1.4694502432
   68      C       4.2321523957    -4.8652711669    -0.0815362197
   69      H       4.2963783902    -5.7667902608     0.5132077119
   70      C       4.9727479661    -3.7464479340     0.2860038768
   71      H       5.6019860169    -3.7862746687     1.1650890364
   72      C       4.9077459063    -2.5766147039    -0.4616781928
   73      H       5.4761940280    -1.7037762525    -0.1652919425
   74      C       4.0933962109    -2.5522688266    -1.5765131827
   75      C      -2.8106760790     1.3633808046     0.9225688645
   76      H      -2.0586081311     1.8307099617     0.2868872561
   77      H      -3.7365333608     1.2950234900     0.3480697987
   78      H      -2.9839864648     2.0185084979     1.7782074351
 ----------------------------------------------------------------

   16   -1855.4391610815      6.02E-09 Convergence criterion met
 Total energy in the final basis set = -1855.43916108
 Final energy is   -1855.43916108153
 **  OPTIMIZATION CONVERGED  **

                    Orbital Energies (a.u.)
 --------------------------------------------------------------

 Alpha MOs
 -- Occupied --
-14.681 -14.662 -14.658 -10.524 -10.520 -10.514 -10.507 -10.504
-10.500 -10.499 -10.495 -10.492 -10.492 -10.487 -10.482 -10.480
-10.475 -10.474 -10.473 -10.469 -10.469 -10.468 -10.466 -10.463
-10.463 -10.462 -10.462 -10.461 -10.460 -10.460 -10.460 -10.459
-10.459 -10.459 -10.458 -10.453 -10.452 -10.445 -10.445 -10.443
-10.443 -10.442 -10.440 -10.438 -10.436 -10.427 -10.425  -1.092
 -1.041  -1.030  -1.024  -0.999  -0.985  -0.964  -0.960  -0.959
 -0.936  -0.931  -0.911  -0.898  -0.887  -0.881  -0.855  -0.852
 -0.849  -0.842  -0.835  -0.821  -0.819  -0.811  -0.791  -0.776
 -0.770  -0.741  -0.728  -0.721  -0.713  -0.708  -0.701  -0.687
 -0.677  -0.673  -0.671  -0.667  -0.661  -0.640  -0.618  -0.613
 -0.612  -0.607  -0.591  -0.582  -0.579  -0.564  -0.563  -0.557
 -0.540  -0.539  -0.533  -0.532  -0.529  -0.525  -0.521  -0.519
 -0.513  -0.508  -0.505  -0.502  -0.499  -0.497  -0.496  -0.491
 -0.491  -0.489  -0.483  -0.481  -0.472  -0.468  -0.459  -0.450
 -0.448  -0.446  -0.445  -0.442  -0.441  -0.437  -0.436  -0.432
 -0.427  -0.426  -0.424  -0.420  -0.418  -0.415  -0.413  -0.410
 -0.408  -0.402  -0.399  -0.397  -0.396  -0.395  -0.392  -0.378
 -0.373  -0.365  -0.350  -0.345  -0.337  -0.317  -0.306  -0.300
 -0.299  -0.290  -0.288  -0.283  -0.268  -0.231  -0.203

 Beta MOs
 -- Occupied --
-14.681 -14.655 -14.653 -10.514 -10.512 -10.507 -10.503 -10.503
-10.502 -10.497 -10.495 -10.492 -10.492 -10.491 -10.485 -10.480
-10.474 -10.474 -10.472 -10.469 -10.469 -10.468 -10.467 -10.463
-10.462 -10.462 -10.462 -10.461 -10.461 -10.460 -10.460 -10.459
-10.459 -10.459 -10.458 -10.453 -10.452 -10.445 -10.445 -10.443
-10.443 -10.442 -10.440 -10.438 -10.436 -10.427 -10.425  -1.092
 -1.031  -1.023  -1.013  -0.988  -0.982  -0.964  -0.959  -0.958
 -0.929  -0.922  -0.911  -0.892  -0.884  -0.871  -0.854  -0.851
 -0.849  -0.838  -0.835  -0.820  -0.819  -0.806  -0.789  -0.771
 -0.767  -0.738  -0.726  -0.718  -0.712  -0.707  -0.700  -0.686
 -0.675  -0.672  -0.670  -0.666  -0.659  -0.635  -0.618  -0.612
 -0.611  -0.605  -0.587  -0.578  -0.576  -0.562  -0.560  -0.556
 -0.539  -0.536  -0.531  -0.530  -0.525  -0.522  -0.521  -0.518
 -0.511  -0.505  -0.504  -0.502  -0.497  -0.496  -0.491  -0.491
 -0.489  -0.483  -0.478  -0.472  -0.469  -0.456  -0.453  -0.447
 -0.443  -0.441  -0.438  -0.437  -0.436  -0.435  -0.430  -0.425
 -0.425  -0.422  -0.419  -0.418  -0.415  -0.414  -0.410  -0.408
 -0.403  -0.401  -0.396  -0.395  -0.392  -0.389  -0.378  -0.373
 -0.370  -0.364  -0.345  -0.327  -0.317  -0.305  -0.300  -0.299
 -0.290  -0.288  -0.283  -0.267  -0.231

          Ground-State Mulliken Net Atomic Charges

     Atom                 Charge (a.u.)    Spin (a.u.)
  --------------------------------------------------------
      1 N                    -0.702563       0.000011
      2 C                     0.310316       0.000011
      3 C                    -0.296571       0.000018
      4 H                     0.250905       0.000007
      5 C                    -0.251972      -0.000012
      6 H                     0.231355       0.000001
      7 C                    -0.236572       0.000014
      8 H                     0.228183      -0.000001
      9 C                    -0.336710      -0.000012
     10 H                     0.228332       0.000001
     11 C                     0.161226       0.000021
     12 C                     0.313746       0.000005
     13 C                    -0.313930       0.000013
     14 H                     0.274419      -0.000003
     15 C                    -0.247791      -0.000018
     16 H                     0.232214       0.000003
     17 C                    -0.239436       0.000024
     18 H                     0.225955      -0.000002
     19 C                    -0.332581      -0.000004
     20 H                     0.228396       0.000000
     21 C                     0.141381       0.000013
     22 C                     0.218239       0.001373
     23 C                    -0.305539      -0.002081
     24 H                     0.286305       0.000119
     25 C                    -0.245395      -0.001559
     26 H                     0.250057       0.000103
     27 C                    -0.315789       0.001448
     28 H                     0.237406      -0.000002
     29 C                     0.202072       0.013265
     30 C                     0.082059      -0.002513
     31 C                    -0.548817       0.016681
     32 H                     0.269010       0.003206
     33 H                     0.260446      -0.001985
     34 C                    -0.224110      -0.000003
     35 C                    -0.672768       0.000000
     36 H                     0.234723      -0.000000
     37 H                     0.234729      -0.000000
     38 H                     0.241500       0.000000
     39 C                    -0.404023      -0.063721
     40 C                     0.126819       0.691667
     41 C                    -0.254301      -0.307779
     42 H                     0.288166       0.016047
     43 C                     0.056518       0.480227
     44 C                     0.007725      -0.163443
     45 N                    -0.200883       0.249699
     46 C                     0.051021       0.645655
     47 C                    -0.306038      -0.270997
     48 H                     0.263249       0.013792
     49 C                     0.148701       0.466656
     50 C                     0.007077      -0.220006
     51 N                    -0.199998       0.355693
     52 C                    -0.526439      -0.039647
     53 H                     0.268311       0.003647
     54 H                     0.266830       0.029652
     55 C                     0.068243       0.019686
     56 C                    -0.269469      -0.004495
     57 H                     0.240949       0.000273
     58 C                    -0.247619       0.004806
     59 H                     0.246149      -0.000162
     60 C                    -0.229750      -0.002887
     61 H                     0.246223       0.000140
     62 C                    -0.334188       0.003727
     63 H                     0.234157      -0.000154
     64 C                     0.151046      -0.007146
     65 C                     0.143253       0.030191
     66 C                    -0.331728      -0.021632
     67 H                     0.233471       0.001594
     68 C                    -0.227875       0.037265
     69 H                     0.245981      -0.002115
     70 C                    -0.237832      -0.023480
     71 H                     0.244464       0.001270
     72 C                    -0.284947       0.029165
     73 H                     0.236119      -0.001725
     74 C                     0.128203       0.020395
     75 C                    -0.604676       0.000003
     76 H                     0.234808      -0.000000
     77 H                     0.225765      -0.000000
     78 H                     0.224088      -0.000000
  --------------------------------------------------------
  Sum of atomic charges =    -0.000000

                    Cartesian Multipole Moments
 -----------------------------------------------------------------
    Charge (ESU x 10^10)
                -0.0000
    Dipole Moment (Debye)
         X      -6.7887      Y       5.1562      Z       4.4767
       Tot       9.6288
    Quadrupole Moments (Debye-Ang)
        XX    -359.6693     XY      62.7881     YY    -271.4129
        XZ      67.0916     YZ     -34.5020     ZZ    -298.1426

 Total job time:  21255.33s(wall), 60395.28s(cpu)
        *  Thank you very much for using Q-Chem.  Have a nice day.  *
