 Q-Chem 5.0, Q-Chem, Inc., Pleasanton, CA (2017)
 Q-Chem 5.0.1 for Intel X86 EM64T Linux

User input:
--------------------------------------------------------------
$rem
threads 8
jobtype opt
method PBEh-3c
basis def2-mSVP
mem_static      1024
mem_total       8000
sym_ignore      true
unrestricted true
scf_algorithm	diis
scf_max_cycles	250
solvent_method  pcm
geom_opt_tol_energy 25
geom_opt_tol_gradient 75
$end

$pcm
theory  iefpcm
$end

$solvent
dielectric      3.50
$end

$molecule
read ut1opt_tol.mol
$end
--------------------------------------------------------------

   22   -1855.4442094104      7.78E-09 Convergence criterion met
 Total energy in the final basis set = -1855.44420941
   16   -1855.4440815949      8.90E-09 Convergence criterion met
 Total energy in the final basis set = -1855.44408159
   17   -1855.4440026222      6.21E-09 Convergence criterion met
 Total energy in the final basis set = -1855.44400262
   17   -1855.4434660455      6.29E-09 Convergence criterion met
 Total energy in the final basis set = -1855.44346605
   17   -1855.4436017837      5.68E-09 Convergence criterion met
 Total energy in the final basis set = -1855.44360178
   17   -1855.4435502087      5.96E-09 Convergence criterion met
 Total energy in the final basis set = -1855.44355021
   17   -1855.4434903129      6.12E-09 Convergence criterion met
 Total energy in the final basis set = -1855.44349031
   17   -1855.4433993769      6.33E-09 Convergence criterion met
 Total energy in the final basis set = -1855.44339938
   17   -1855.4434199091      6.01E-09 Convergence criterion met
 Total energy in the final basis set = -1855.44341991
   17   -1855.4434210959      5.48E-09 Convergence criterion met
 Total energy in the final basis set = -1855.44342110
   16   -1855.4434229468      6.25E-09 Convergence criterion met
 Total energy in the final basis set = -1855.44342295

             Standard Nuclear Orientation (Angstroms)
    I     Atom           X                Y                Z
 ----------------------------------------------------------------
    1      N       0.0606708640     0.1411397229     0.0184756291
    2      C       0.1150869670     0.2522392543     1.4125815750
    3      C       1.3229791662     0.4980025445     2.0661707900
    4      H       2.2355307164     0.6236149428     1.5002762811
    5      C       1.3653851356     0.5705026900     3.4479737727
    6      H       2.3104061736     0.7620431724     3.9395468460
    7      C       0.2127496034     0.3821266373     4.1920411770
    8      H       0.2399819368     0.4273686342     5.2725603499
    9      C      -0.9861288197     0.1434477305     3.5364024044
   10      H      -1.8812877614     0.0116101728     4.1283720988
   11      C      -1.0643397389     0.0926328082     2.1508996618
   12      C      -0.9359119341    -0.6506532429    -0.5641131422
   13      C      -0.7854791442    -1.2198422321    -1.8308818882
   14      H       0.0903934531    -1.0258386726    -2.4330295578
   15      C      -1.7574555954    -2.0626160335    -2.3431055139
   16      H      -1.6074381046    -2.4996962647    -3.3219271638
   17      C      -2.8915862118    -2.3535188113    -1.6054984930
   18      H      -3.6455131355    -3.0278563309    -1.9894697725
   19      C      -3.0638644534    -1.7442077779    -0.3719002599
   20      H      -3.9719855425    -1.9465860846     0.1787257961
   21      C      -2.1213137418    -0.8698437782     0.1535051171
   22      C       1.2139892782     0.4830415587    -0.7321144524
   23      C       2.0999819017    -0.4957999279    -1.1411933813
   24      H       1.8907371283    -1.5240529964    -0.8707901100
   25      C       1.4559740722     1.8062714738    -1.0682855175
   26      H       0.7633433353     2.5796727949    -0.7622646071
   27      C       2.6056644117     2.1194593214    -1.7694893445
   28      H       2.8258862866     3.1571296461    -1.9888617369
   29      C       3.2048477473    -0.1992279004    -1.9335207782
   30      C       3.4917666475     1.1371158694    -2.2104766498
   31      C       4.7821092682     1.5485329622    -2.8546115751
   32      H       4.8746723943     2.6337643971    -2.8057297186
   33      H       4.8090571371     1.2946144200    -3.9192507905
   34      C      -2.3741015065    -0.0360092380     1.3941317814
   35      C      -3.4919928771    -0.6115882753     2.2594491474
   36      H      -4.4287549057    -0.6571627736     1.7046293670
   37      H      -3.6871050165     0.0243068397     3.1223651617
   38      H      -3.2586309289    -1.6148785672     2.6183859930
   39      C       3.8875932858    -1.4106060628    -2.5684877919
   40      C       5.2295014302    -1.2821348268    -3.2605220169
   41      C       5.5636991818    -2.2126931104    -4.2465177938
   42      H       4.7871915254    -2.7881199020    -4.7329162335
   43      C       6.8700883877    -2.4776478494    -4.5847147143
   44      C       7.1791818252    -3.4011582385    -5.5949224933
   45      N       7.4453611996    -4.1661862530    -6.4221950083
   46      C       7.9724989502    -1.8010917454    -3.8298510542
   47      C       7.6263129127    -0.7227552172    -2.9959940708
   48      H       8.4181269791    -0.0998505896    -2.5980908502
   49      C       6.3270956142    -0.3976410087    -2.7463742603
   50      C       9.2962569180    -2.1854150613    -4.0143709505
   51      N      10.4016371445    -2.5062230748    -4.1740398982
   52      C       5.9692066104     0.9041470390    -2.1219810410
   53      H       6.8409952383     1.5588412224    -2.1396149825
   54      H       5.7038628905     0.7704441564    -1.0665469512
   55      C       2.8579912226    -2.0320745921    -3.5021400748
   56      C       2.2372005412    -1.4475290123    -4.5891219441
   57      H       2.4618404512    -0.4282712201    -4.8790411228
   58      C       1.3058989537    -2.1931967750    -5.3029142920
   59      H       0.8072125016    -1.7535435756    -6.1566468685
   60      C       1.0061093058    -3.4998477806    -4.9280224071
   61      H       0.2788432197    -4.0653623739    -5.4959252294
   62      C       1.6267433419    -4.0832022978    -3.8329472027
   63      H       1.3852680065    -5.0980557203    -3.5427229569
   64      C       2.5574113817    -3.3391979644    -3.1215556013
   65      C       3.3437013902    -3.6706543507    -1.9401328344
   66      C       3.4102620137    -4.8353355731    -1.1920937865
   67      H       2.8266748899    -5.7059806753    -1.4641458485
   68      C       4.2374310483    -4.8630013189    -0.0771932874
   69      H       4.3027209919    -5.7637221272     0.5187354624
   70      C       4.9767421493    -3.7426679226     0.2891188021
   71      H       5.6058805932    -3.7806108432     1.1684152661
   72      C       4.9104554308    -2.5735920643    -0.4599710541
   73      H       5.4775161692    -1.6995930922    -0.1641759512
   74      C       4.0960043029    -2.5518742182    -1.5750119727
   75      C      -2.8076221079     1.3688131843     0.9257142754
   76      H      -2.0541507598     1.8359087927     0.2913874182
   77      H      -3.7338398634     1.3044660121     0.3512807522
   78      H      -2.9795174198     2.0220072447     1.7831296157
 ----------------------------------------------------------------

   16   -1855.4434285908      6.38E-09 Convergence criterion met
 Total energy in the final basis set = -1855.44342859
 Final energy is   -1855.44342859083
 **  OPTIMIZATION CONVERGED  **

                    Orbital Energies (a.u.)
 --------------------------------------------------------------

 Alpha MOs
 -- Occupied --
-14.681 -14.663 -14.660 -10.524 -10.520 -10.514 -10.506 -10.504
-10.502 -10.501 -10.495 -10.493 -10.493 -10.487 -10.481 -10.479
-10.475 -10.473 -10.472 -10.469 -10.468 -10.468 -10.464 -10.462
-10.461 -10.461 -10.460 -10.459 -10.459 -10.459 -10.459 -10.458
-10.458 -10.458 -10.457 -10.453 -10.452 -10.445 -10.445 -10.443
-10.443 -10.443 -10.441 -10.439 -10.437 -10.426 -10.425  -1.092
 -1.041  -1.030  -1.026  -0.999  -0.984  -0.963  -0.960  -0.959
 -0.935  -0.930  -0.911  -0.897  -0.886  -0.881  -0.854  -0.851
 -0.849  -0.842  -0.835  -0.820  -0.819  -0.811  -0.791  -0.776
 -0.770  -0.740  -0.727  -0.720  -0.712  -0.708  -0.701  -0.686
 -0.676  -0.672  -0.671  -0.666  -0.661  -0.639  -0.619  -0.613
 -0.612  -0.606  -0.590  -0.581  -0.578  -0.563  -0.563  -0.556
 -0.539  -0.539  -0.533  -0.532  -0.528  -0.524  -0.521  -0.519
 -0.512  -0.507  -0.504  -0.502  -0.498  -0.497  -0.495  -0.491
 -0.490  -0.489  -0.483  -0.480  -0.472  -0.467  -0.459  -0.451
 -0.449  -0.447  -0.446  -0.442  -0.441  -0.437  -0.435  -0.432
 -0.426  -0.426  -0.423  -0.419  -0.418  -0.415  -0.412  -0.409
 -0.407  -0.402  -0.400  -0.397  -0.397  -0.395  -0.392  -0.378
 -0.373  -0.365  -0.350  -0.344  -0.337  -0.316  -0.305  -0.299
 -0.299  -0.290  -0.289  -0.283  -0.267  -0.231  -0.203

 Beta MOs
 -- Occupied --
-14.681 -14.656 -14.654 -10.514 -10.512 -10.506 -10.505 -10.504
-10.503 -10.496 -10.495 -10.493 -10.493 -10.491 -10.484 -10.479
-10.474 -10.473 -10.471 -10.468 -10.468 -10.468 -10.464 -10.462
-10.461 -10.461 -10.460 -10.460 -10.459 -10.459 -10.459 -10.458
-10.458 -10.458 -10.457 -10.453 -10.452 -10.445 -10.445 -10.443
-10.443 -10.443 -10.441 -10.439 -10.437 -10.426 -10.425  -1.092
 -1.031  -1.024  -1.015  -0.988  -0.981  -0.963  -0.959  -0.959
 -0.928  -0.922  -0.911  -0.891  -0.883  -0.871  -0.854  -0.850
 -0.849  -0.837  -0.835  -0.819  -0.819  -0.806  -0.788  -0.771
 -0.767  -0.737  -0.726  -0.718  -0.711  -0.707  -0.700  -0.685
 -0.674  -0.672  -0.670  -0.665  -0.659  -0.635  -0.618  -0.612
 -0.610  -0.604  -0.586  -0.578  -0.575  -0.561  -0.559  -0.555
 -0.539  -0.535  -0.531  -0.529  -0.524  -0.521  -0.521  -0.517
 -0.510  -0.504  -0.503  -0.502  -0.497  -0.495  -0.491  -0.490
 -0.489  -0.483  -0.477  -0.471  -0.468  -0.455  -0.452  -0.447
 -0.442  -0.441  -0.440  -0.438  -0.437  -0.435  -0.429  -0.425
 -0.424  -0.421  -0.419  -0.418  -0.416  -0.413  -0.409  -0.407
 -0.403  -0.401  -0.397  -0.395  -0.392  -0.389  -0.378  -0.373
 -0.370  -0.364  -0.344  -0.326  -0.316  -0.304  -0.300  -0.299
 -0.289  -0.289  -0.283  -0.267  -0.231

          Ground-State Mulliken Net Atomic Charges

     Atom                 Charge (a.u.)    Spin (a.u.)
  --------------------------------------------------------
      1 N                    -0.701638       0.000007
      2 C                     0.309789       0.000013
      3 C                    -0.300091       0.000016
      4 H                     0.254000       0.000007
      5 C                    -0.255942      -0.000011
      6 H                     0.235690       0.000000
      7 C                    -0.241261       0.000013
      8 H                     0.232135      -0.000001
      9 C                    -0.339545      -0.000011
     10 H                     0.232555       0.000001
     11 C                     0.157771       0.000020
     12 C                     0.312879       0.000006
     13 C                    -0.316211       0.000012
     14 H                     0.275824      -0.000004
     15 C                    -0.251769      -0.000017
     16 H                     0.235916       0.000003
     17 C                    -0.244052       0.000023
     18 H                     0.230104      -0.000002
     19 C                    -0.335455      -0.000003
     20 H                     0.232619       0.000000
     21 C                     0.138354       0.000013
     22 C                     0.217175       0.001390
     23 C                    -0.306315      -0.002072
     24 H                     0.286679       0.000119
     25 C                    -0.248500      -0.001547
     26 H                     0.253197       0.000103
     27 C                    -0.318779       0.001457
     28 H                     0.241953      -0.000003
     29 C                     0.202333       0.013238
     30 C                     0.082004      -0.002463
     31 C                    -0.550870       0.016833
     32 H                     0.272342       0.003244
     33 H                     0.262249      -0.002007
     34 C                    -0.222265      -0.000003
     35 C                    -0.674725       0.000000
     36 H                     0.236662      -0.000000
     37 H                     0.236785      -0.000000
     38 H                     0.241473       0.000000
     39 C                    -0.403074      -0.063682
     40 C                     0.129042       0.688956
     41 C                    -0.254846      -0.305163
     42 H                     0.290516       0.015805
     43 C                     0.055100       0.479398
     44 C                     0.009922      -0.161452
     45 N                    -0.209760       0.248331
     46 C                     0.050101       0.638966
     47 C                    -0.306361      -0.271213
     48 H                     0.268314       0.013684
     49 C                     0.148725       0.474156
     50 C                     0.008845      -0.215470
     51 N                    -0.209116       0.349577
     52 C                    -0.528209      -0.040099
     53 H                     0.271855       0.003732
     54 H                     0.269482       0.030238
     55 C                     0.067860       0.019952
     56 C                    -0.271776      -0.004573
     57 H                     0.244721       0.000274
     58 C                    -0.250755       0.004877
     59 H                     0.249597      -0.000166
     60 C                    -0.232483      -0.002835
     61 H                     0.249671       0.000137
     62 C                    -0.337534       0.003702
     63 H                     0.238700      -0.000153
     64 C                     0.149494      -0.007121
     65 C                     0.141691       0.030435
     66 C                    -0.334868      -0.021826
     67 H                     0.238258       0.001595
     68 C                    -0.231571       0.037705
     69 H                     0.249625      -0.002133
     70 C                    -0.241718      -0.023648
     71 H                     0.248192       0.001273
     72 C                    -0.288249       0.029326
     73 H                     0.241329      -0.001741
     74 C                     0.126102       0.020777
     75 C                    -0.607599       0.000003
     76 H                     0.235480      -0.000000
     77 H                     0.226832      -0.000000
     78 H                     0.225396      -0.000000
  --------------------------------------------------------
  Sum of atomic charges =    -0.000000

                    Cartesian Multipole Moments
 -----------------------------------------------------------------
    Charge (ESU x 10^10)
                -0.0000
    Dipole Moment (Debye)
         X      -7.0258      Y       5.4519      Z       4.6649
       Tot      10.0422
    Quadrupole Moments (Debye-Ang)
        XX    -362.8022     XY      65.3274     YY    -271.7753
        XZ      69.6479     YZ     -35.9499     ZZ    -299.2365

 Total job time:  23209.40s(wall), 62612.56s(cpu)
        *  Thank you very much for using Q-Chem.  Have a nice day.  *
