 Q-Chem 5.0, Q-Chem, Inc., Pleasanton, CA (2017)
 Q-Chem 5.0.1 for Intel X86 EM64T Linux

User input:
--------------------------------------------------------------
$rem
threads 8
jobtype opt
method PBEh-3c
basis def2-mSVP
mem_static      1024
mem_total       8000
sym_ignore      true
unrestricted true
scf_algorithm   diis
scf_max_cycles  250
solvent_method  pcm
geom_opt_tol_energy 25
geom_opt_tol_gradient 75
mom_start	1
$end

$pcm
theory  iefpcm
$end

$solvent
dielectric      2.75
$end

$molecule
read utctopt_tol.mol
$end

--------------------------------------------------------------

   20   -1855.4356507726      7.26E-09 Convergence criterion met
 Total energy in the final basis set = -1855.43565077
   43   -1855.3998465409      7.66E-09 Convergence criterion met
 Total energy in the final basis set = -1855.39984654
   34   -1855.3999014627      6.44E-09 Convergence criterion met
 Total energy in the final basis set = -1855.39990146
   26   -1855.4022175395      9.46E-09 Convergence criterion met
 Total energy in the final basis set = -1855.40221754
   28   -1855.4172485667      8.55E-09 Convergence criterion met
 Total energy in the final basis set = -1855.41724857
   20   -1855.4259075278      6.47E-09 Convergence criterion met
 Total energy in the final basis set = -1855.42590753
   19   -1855.4306436975      9.65E-09 Convergence criterion met
 Total energy in the final basis set = -1855.43064370
   19   -1855.4336053573      8.78E-09 Convergence criterion met
   15   -1855.4369846061      8.16E-09 Convergence criterion met
 Total energy in the final basis set = -1855.43698461
   15   -1855.4370789407      8.06E-09 Convergence criterion met
 Total energy in the final basis set = -1855.43707894
   16   -1855.4371415404      6.72E-09 Convergence criterion met
 Total energy in the final basis set = -1855.43714154
   14   -1855.4371896625      8.08E-09 Convergence criterion met
 Total energy in the final basis set = -1855.43718966
   14   -1855.4372254022      7.00E-09 Convergence criterion met
 Total energy in the final basis set = -1855.43722540
   14   -1855.4372417441      9.06E-09 Convergence criterion met
 Total energy in the final basis set = -1855.43724174

             Standard Nuclear Orientation (Angstroms)
    I     Atom           X                Y                Z
 ----------------------------------------------------------------
    1      N       0.1276005005     0.2280191448     0.1110075789
    2      C       0.1246858163     0.3066599000     1.5055354325
    3      C       1.3422930724     0.3144555490    -0.5761192482
    4      C       1.2636805621    -0.1006338535     2.2086015665
    5      C       1.2775423536     0.0571970089     3.5878153827
    6      H       2.1510881427    -0.2379765994     4.1529483435
    7      C       0.1798004315     0.5605150235     4.2715715843
    8      H       0.2121272413     0.6605340316     5.3482452007
    9      C      -0.9576066873     0.9185890670     3.5654847602
   10      H      -1.8251252959     1.3060868822     4.0838721854
   11      C      -0.9857195677     0.8029246540     2.1865774324
   12      H      -1.8657637212     1.1133790861     1.6386563579
   13      C       2.5106787331    -0.0746840335     0.0937510498
   14      C       3.7297944836     0.0975586878    -0.5478360075
   15      H       4.6446210237    -0.1779490272    -0.0415994328
   16      C       3.8082478410     0.5865988601    -1.8436865104
   17      H       4.7712172931     0.7018631179    -2.3230386156
   18      C       2.6409071471     0.9009647064    -2.5192459197
   19      H       2.6746031359     1.2643990489    -3.5384034030
   20      C       1.4136929934     0.7726405155    -1.8921403980
   21      H       0.5205071936     1.0405880203    -2.4390458638
   22      C      -1.1058542649     0.1435894030    -0.5811829622
   23      C      -1.6481839605     1.2288741630    -1.2417015312
   24      H      -1.1122792883     2.1689958549    -1.1999036682
   25      C      -1.7881585777    -1.0663418528    -0.5962307735
   26      H      -1.3825969622    -1.9260984340    -0.0790826723
   27      C      -2.9916465546    -1.1509473681    -1.2610291590
   28      H      -3.5375973983    -2.0866652783    -1.2471249070
   29      C      -2.8352156487     1.1348636217    -1.9798348610
   30      C      -3.5320474446    -0.0719040090    -1.9645090282
   31      C      -4.8768643276    -0.2673408221    -2.6014759709
   32      H      -5.3102443812    -1.1889140792    -2.2107481892
   33      H      -4.7911700859    -0.4136602900    -3.6823247740
   34      C       2.3591461983    -0.7941531319     1.4214340439
   35      C      -5.8263847716     0.8949180571    -2.3141486070
   36      H      -6.8584736480     0.5439482937    -2.3368457661
   37      H      -5.6544347523     1.2702477885    -1.3020541811
   38      C      -5.6611955183     1.9736698900    -3.3382098387
   39      C      -6.7819863045     2.3396019697    -4.0757504342
   40      H      -7.7385817237     1.8934046610    -3.8366890462
   41      C      -6.7094926403     3.2449665135    -5.1211031459
   42      C      -7.8842693347     3.5882774564    -5.8513677719
   43      N      -8.8408509622     3.8560841753    -6.4332348004
   44      C      -5.4661276774     3.7899391237    -5.4497738711
   45      C      -4.3482043689     3.4340729572    -4.7132449131
   46      H      -3.4059004572     3.8831020475    -4.9911964516
   47      C      -4.4176822070     2.5387164498    -3.6439544906
   48      C      -5.3355371774     4.7058976586    -6.5350078745
   49      N      -5.2243649224     5.4438210182    -7.4113827783
   50      C      -3.1400387944     2.3842260480    -2.8122786997
   51      C      -1.9156623263     2.6122042134    -3.6923047316
   52      C      -1.3957492122     1.7875871735    -4.6386988558
   53      H      -1.8460088537     0.8244402892    -4.8481837047
   54      C      -0.2540279139     2.2044000901    -5.3576898406
   55      H       0.1657834400     1.5648662489    -6.1211141874
   56      C      -1.3163241457     3.9028244097    -3.3916887748
   57      C      -0.1544554255     4.3105390377    -4.1447292259
   58      H       0.3126467338     5.2663139537    -3.9495904722
   59      C       0.3398538875     3.4673710620    -5.0929367038
   60      H       1.2115193737     3.7599356384    -5.6640288576
   61      C      -2.0166931276     4.5100936703    -2.3899121396
   62      C      -1.8398633666     5.7810215911    -1.7247691191
   63      H      -1.0567716050     6.4563860982    -2.0422102130
   64      C      -2.6706264110     6.1009678683    -0.6982768814
   65      H      -2.5491398251     7.0470928590    -0.1869647185
   66      C      -3.7065464416     5.2238456691    -0.2684880228
   67      H      -4.3445998201     5.5142777676     0.5539042147
   68      C      -3.9096795567     3.9837047843    -0.9141471370
   69      H      -4.7060026844     3.3288713833    -0.5812517709
   70      C      -3.0996509523     3.6370179536    -1.9458443641
   71      C       3.6691701749    -0.8705864341     2.1959807384
   72      H       4.4259073198    -1.4108445952     1.6274270167
   73      H       3.5367632148    -1.4237947832     3.1255708627
   74      H       4.0613884358     0.1181719298     2.4367930960
   75      C       1.8945885058    -2.2360993261     1.1219487389
   76      H       2.6499201694    -2.7629635731     0.5361577233
   77      H       0.9646433176    -2.2537214307     0.5540218498
   78      H       1.7322004766    -2.7854049663     2.0509888268
 ----------------------------------------------------------------

   14   -1855.4372465231      8.15E-09 Convergence criterion met
 Total energy in the final basis set = -1855.43724652
 Final energy is   -1855.43724652311
 **  OPTIMIZATION CONVERGED  **

                    Orbital Energies (a.u.)
 --------------------------------------------------------------

 Alpha MOs
 -- Occupied --
-14.677 -14.662 -14.660 -10.520 -10.519 -10.508 -10.506 -10.505
-10.502 -10.495 -10.494 -10.491 -10.490 -10.488 -10.488 -10.480
-10.479 -10.478 -10.474 -10.472 -10.472 -10.468 -10.465 -10.465
-10.463 -10.463 -10.462 -10.459 -10.459 -10.459 -10.458 -10.458
-10.458 -10.458 -10.457 -10.452 -10.451 -10.445 -10.445 -10.443
-10.443 -10.442 -10.440 -10.438 -10.437 -10.427 -10.425  -1.090
 -1.043  -1.030  -1.026  -1.002  -0.983  -0.960  -0.959  -0.958
 -0.935  -0.927  -0.911  -0.896  -0.886  -0.883  -0.857  -0.854
 -0.848  -0.842  -0.834  -0.819  -0.816  -0.806  -0.792  -0.771
 -0.768  -0.741  -0.736  -0.723  -0.711  -0.709  -0.701  -0.687
 -0.674  -0.673  -0.671  -0.664  -0.663  -0.642  -0.619  -0.611
 -0.611  -0.603  -0.595  -0.581  -0.576  -0.568  -0.562  -0.559
 -0.539  -0.538  -0.535  -0.531  -0.528  -0.522  -0.520  -0.516
 -0.511  -0.504  -0.502  -0.500  -0.498  -0.495  -0.495  -0.492
 -0.489  -0.488  -0.481  -0.479  -0.470  -0.464  -0.461  -0.452
 -0.447  -0.445  -0.442  -0.442  -0.440  -0.436  -0.434  -0.431
 -0.427  -0.426  -0.424  -0.422  -0.418  -0.417  -0.413  -0.409
 -0.407  -0.403  -0.402  -0.401  -0.395  -0.391  -0.389  -0.379
 -0.373  -0.367  -0.360  -0.343  -0.325  -0.321  -0.308  -0.303
 -0.301  -0.290  -0.289  -0.282  -0.278  -0.230  -0.156

 Beta MOs
 -- Occupied --
-14.677 -14.662 -14.660 -10.520 -10.519 -10.508 -10.506 -10.506
-10.501 -10.495 -10.494 -10.491 -10.490 -10.488 -10.488 -10.480
-10.473 -10.472 -10.472 -10.471 -10.470 -10.468 -10.463 -10.462
-10.462 -10.461 -10.461 -10.459 -10.458 -10.458 -10.458 -10.458
-10.457 -10.456 -10.456 -10.452 -10.451 -10.445 -10.445 -10.443
-10.443 -10.442 -10.440 -10.438 -10.437 -10.427 -10.425  -1.090
 -1.042  -1.026  -1.023  -0.999  -0.981  -0.958  -0.958  -0.949
 -0.934  -0.923  -0.911  -0.890  -0.885  -0.878  -0.852  -0.851
 -0.848  -0.841  -0.834  -0.819  -0.806  -0.795  -0.791  -0.771
 -0.768  -0.740  -0.723  -0.722  -0.711  -0.707  -0.700  -0.686
 -0.671  -0.669  -0.667  -0.663  -0.657  -0.640  -0.619  -0.611
 -0.610  -0.601  -0.594  -0.579  -0.572  -0.565  -0.561  -0.555
 -0.539  -0.535  -0.534  -0.529  -0.526  -0.521  -0.520  -0.513
 -0.508  -0.504  -0.501  -0.498  -0.496  -0.494  -0.493  -0.492
 -0.488  -0.485  -0.479  -0.476  -0.468  -0.463  -0.454  -0.447
 -0.445  -0.442  -0.441  -0.437  -0.433  -0.431  -0.430  -0.427
 -0.425  -0.424  -0.420  -0.418  -0.416  -0.415  -0.409  -0.406
 -0.403  -0.401  -0.401  -0.397  -0.395  -0.388  -0.387  -0.379
 -0.373  -0.359  -0.333  -0.321  -0.314  -0.309  -0.303  -0.301
 -0.293  -0.289  -0.286  -0.282  -0.230

          Ground-State Mulliken Net Atomic Charges

     Atom                 Charge (a.u.)    Spin (a.u.)
  --------------------------------------------------------
      1 N                    -0.717060      -0.000044
      2 C                     0.306601       0.000027
      3 C                     0.308724       0.000115
      4 C                     0.159491      -0.000054
      5 C                    -0.341394       0.000031
      6 H                     0.229740      -0.000002
      7 C                    -0.236779      -0.000049
      8 H                     0.229007       0.000004
      9 C                    -0.254359       0.000028
     10 H                     0.232467      -0.000001
     11 C                    -0.292654      -0.000013
     12 H                     0.251628       0.000054
     13 C                     0.148099      -0.000054
     14 C                    -0.338316       0.000114
     15 H                     0.229575       0.000000
     16 C                    -0.238581      -0.000088
     17 H                     0.227482       0.000001
     18 C                    -0.251770       0.000457
     19 H                     0.230953      -0.000012
     20 C                    -0.305383      -0.000233
     21 H                     0.272750      -0.000541
     22 C                     0.246880      -0.000511
     23 C                    -0.319837      -0.002165
     24 H                     0.285514      -0.000715
     25 C                    -0.242722       0.004768
     26 H                     0.251061      -0.000282
     27 C                    -0.309275       0.002320
     28 H                     0.238164      -0.000033
     29 C                     0.220419       0.023211
     30 C                     0.059479       0.001953
     31 C                    -0.527980       0.000281
     32 H                     0.260402      -0.000050
     33 H                     0.259111       0.000036
     34 C                    -0.221732       0.000005
     35 C                    -0.547422      -0.000183
     36 H                     0.265908       0.000010
     37 H                     0.266517       0.000279
     38 C                     0.108409       0.007524
     39 C                    -0.325275      -0.002110
     40 H                     0.267807       0.000211
     41 C                     0.071420       0.011110
     42 C                     0.007889      -0.003299
     43 N                    -0.190950       0.004630
     44 C                     0.086717      -0.007130
     45 C                    -0.299361       0.013277
     46 H                     0.291482      -0.002357
     47 C                     0.215867       0.018730
     48 C                     0.005813       0.001700
     49 N                    -0.191385      -0.001980
     50 C                    -0.407519      -0.076475
     51 C                     0.046561       0.375342
     52 C                    -0.273906      -0.240553
     53 H                     0.241254       0.010370
     54 C                    -0.264145       0.602425
     55 H                     0.248986      -0.035537
     56 C                     0.131708       0.143951
     57 C                    -0.321775       0.329698
     58 H                     0.234888      -0.021208
     59 C                    -0.215931      -0.206436
     60 H                     0.246500       0.008199
     61 C                     0.102795       0.200860
     62 C                    -0.316682       0.315802
     63 H                     0.234092      -0.020648
     64 C                    -0.218205      -0.193836
     65 H                     0.246552       0.007311
     66 C                    -0.251356       0.628472
     67 H                     0.247367      -0.037109
     68 C                    -0.294067      -0.243777
     69 H                     0.236050       0.010656
     70 C                     0.146992       0.373529
     71 C                    -0.672801      -0.000000
     72 H                     0.235050       0.000000
     73 H                     0.234789      -0.000000
     74 H                     0.241170      -0.000000
     75 C                    -0.611771      -0.000002
     76 H                     0.227189      -0.000000
     77 H                     0.238345       0.000000
     78 H                     0.224730      -0.000001
  --------------------------------------------------------
  Sum of atomic charges =    -0.000000

                    Cartesian Multipole Moments
 -----------------------------------------------------------------
    Charge (ESU x 10^10)
                -0.0000
    Dipole Moment (Debye)
         X       3.4388      Y      -5.0248      Z       6.4698
       Tot       8.8844
    Quadrupole Moments (Debye-Ang)
        XX    -300.7982     XY      45.4535     YY    -288.4204
        XZ     -67.9755     YZ      50.6118     ZZ    -329.3708

 Total job time:  56246.55s(wall), 151045.85s(cpu)
        *  Thank you very much for using Q-Chem.  Have a nice day.  *
