 Q-Chem 5.0, Q-Chem, Inc., Pleasanton, CA (2017)
 Q-Chem 5.0.1 for Intel X86 EM64T Linux

User input:
--------------------------------------------------------------
$rem
threads 8
jobtype opt
method PBEh-3c
basis def2-mSVP
mem_static      1024
mem_total       8000
sym_ignore      true
unrestricted true
scf_algorithm   diis
scf_max_cycles  250
solvent_method  pcm
geom_opt_tol_energy 25
geom_opt_tol_gradient 75
mom_start	1
$end

$pcm
theory  iefpcm
$end

$solvent
dielectric      2.50
$end

$molecule
read utctopt_tol.mol
$end

--------------------------------------------------------------

   20   -1855.4324113719      6.88E-09 Convergence criterion met
 Total energy in the final basis set = -1855.43241137
   47   -1855.3776484355      9.99E-09 Convergence criterion met
 Total energy in the final basis set = -1855.37764844
   31   -1855.3774694011      9.42E-09 Convergence criterion met
 Total energy in the final basis set = -1855.37746940
   30   -1855.3799714663      7.01E-09 Convergence criterion met
 Total energy in the final basis set = -1855.37997147
   27   -1855.3963522327      7.02E-09 Convergence criterion met
 Total energy in the final basis set = -1855.39635223
   19   -1855.4060534857      8.85E-09 Convergence criterion met
 Total energy in the final basis set = -1855.40605349
   19   -1855.4129116636      7.67E-09 Convergence criterion met
 Total energy in the final basis set = -1855.41291166
   18   -1855.4166355471      8.97E-09 Convergence criterion met
   16   -1855.4311662242      6.94E-09 Convergence criterion met
 Total energy in the final basis set = -1855.43116622
   16   -1855.4312263204      8.07E-09 Convergence criterion met
 Total energy in the final basis set = -1855.43122632
   16   -1855.4311376625      8.87E-09 Convergence criterion met
 Total energy in the final basis set = -1855.43113766
   14   -1855.4311837193      9.27E-09 Convergence criterion met
 Total energy in the final basis set = -1855.43118372
   15   -1855.4311894599      9.20E-09 Convergence criterion met
 Total energy in the final basis set = -1855.43118946
   14   -1855.4311862872      9.36E-09 Convergence criterion met
 Total energy in the final basis set = -1855.43118629

             Standard Nuclear Orientation (Angstroms)
    I     Atom           X                Y                Z
 ----------------------------------------------------------------
    1      N       0.1502075105     0.5731353412     0.1067192551
    2      C       0.1097007255     0.4962040212     1.5079420538
    3      C       1.3960419838     0.5451049590    -0.5288906616
    4      C       1.1645183093    -0.1662539065     2.1551755496
    5      C       1.1790756400    -0.1867311472     3.5428859291
    6      H       1.9901043517    -0.6774299585     4.0627456207
    7      C       0.1561019912     0.3781943486     4.2899840994
    8      H       0.1881597153     0.3384729156     5.3705234407
    9      C      -0.9097484996     0.9725501091     3.6375443024
   10      H      -1.7274693723     1.4029696643     4.2007561067
   11      C      -0.9298059195     1.0435566361     2.2547462070
   12      H      -1.7600993435     1.5289235812     1.7660405636
   13      C       2.4583796137    -0.1362637058     0.0674086095
   14      C       3.6913912705    -0.1109824006    -0.5694886277
   15      H       4.5371818789    -0.6208064376    -0.1288828810
   16      C       3.8623226241     0.5337456502    -1.7876939859
   17      H       4.8308369648     0.5248433422    -2.2699117708
   18      C       2.7890873951     1.1777939223    -2.3819872160
   19      H       2.9064563213     1.6835431352    -3.3316022660
   20      C       1.5588986516     1.1986532611    -1.7490794797
   21      H       0.7298533396     1.7357833256    -2.1921653332
   22      C      -0.9819602387     0.6257478305    -0.7245785579
   23      C      -1.9187756964     1.5964649870    -0.6976549714
   24      H      -1.7881274657     2.4906488025    -0.1007296295
   25      C      -1.1296449119    -0.5153742276    -1.6426967052
   26      H      -0.3102884369    -1.2127032695    -1.7476400572
   27      C      -2.3715684993    -0.7942188586    -2.1907180412
   28      H      -2.5548121416    -1.7688110480    -2.6331528880
   29      C      -3.0299195634     1.4857421439    -1.6245558639
   30      C      -3.4054387880     0.1085539136    -2.0312986173
   31      C      -4.8507622623    -0.2710481454    -2.0848308452
   32      H      -5.0895787973    -0.9295123288    -1.2415298265
   33      H      -5.0629102876    -0.8531656732    -2.9876936503
   34      C       2.1534282090    -0.9499207865     1.3077735850
   35      C      -5.7581535416     0.9515937487    -2.0140516286
   36      H      -6.7973833283     0.6290581654    -1.9377961629
   37      H      -5.5445238918     1.5063903930    -1.0969755595
   38      C      -5.6073475050     1.8392844068    -3.2176351322
   39      C      -6.6900308450     1.9192797365    -4.0917330676
   40      H      -7.5893502869     1.3598141147    -3.8686790112
   41      C      -6.6547554276     2.6929270755    -5.2383484749
   42      C      -7.7891688457     2.7402201961    -6.1003929791
   43      N      -8.7121787853     2.7687215879    -6.7877688004
   44      C      -5.4940814427     3.4178960358    -5.5288301273
   45      C      -4.4112056306     3.3346494080    -4.6716859549
   46      H      -3.5224594788     3.9012217904    -4.9146892810
   47      C      -4.4388540103     2.5502892272    -3.5189346746
   48      C      -5.4158566395     4.2315351849    -6.6974580863
   49      N      -5.3463376213     4.8882628724    -7.6402116038
   50      C      -3.1969438966     2.6082829844    -2.6376292425
   51      C      -1.9285897307     2.6789419553    -3.4763065085
   52      C      -1.4652614826     1.7568409878    -4.3955360177
   53      H      -2.0218003332     0.8535254827    -4.6094092640
   54      C      -0.2707822932     2.0191474381    -5.0540226046
   55      H       0.1073232502     1.3121415559    -5.7806867305
   56      C      -1.2268834500     3.8568433005    -3.2185224500
   57      C      -0.0322117063     4.1156131002    -3.8746065346
   58      H       0.5202864529     5.0278156346    -3.6875400912
   59      C       0.4396264085     3.1868599074    -4.7926146992
   60      H       1.3655813922     3.3779737766    -5.3192042566
   61      C      -1.9941223866     4.6519043908    -2.2632420085
   62      C      -1.7525031595     5.9001065947    -1.7099637373
   63      H      -0.8566581614     6.4552541557    -1.9580098892
   64      C      -2.6856001774     6.4303435451    -0.8292395091
   65      H      -2.5130917337     7.4039013043    -0.3897067640
   66      C      -3.8420823684     5.7272880294    -0.5063656498
   67      H      -4.5587988771     6.1601164511     0.1790129359
   68      C      -4.0839958412     4.4757458786    -1.0593116559
   69      H      -4.9866305892     3.9305283301    -0.8106139139
   70      C      -3.1546428165     3.9515206473    -1.9342493896
   71      C       3.4172249530    -1.3242692803     2.0744610975
   72      H       4.0872902442    -1.9132653009     1.4484552299
   73      H       3.1801384684    -1.9493383389     2.9348294567
   74      H       3.9598601127    -0.4457032356     2.4248502259
   75      C       1.4605740878    -2.2574314890     0.8652323447
   76      H       2.1140103188    -2.8281861600     0.2029745908
   77      H       0.5258847435    -2.0710942853     0.3366661825
   78      H       1.2288676980    -2.8745210425     1.7349836487
 ----------------------------------------------------------------

   15   -1855.4311923823      5.56E-09 Convergence criterion met
 Total energy in the final basis set = -1855.43119238
 Final energy is   -1855.43119238229
 **  OPTIMIZATION CONVERGED  **

                    Orbital Energies (a.u.)
 --------------------------------------------------------------

 Alpha MOs
 -- Occupied --
-14.687 -14.661 -14.659 -10.519 -10.518 -10.507 -10.505 -10.502
-10.498 -10.496 -10.495 -10.494 -10.491 -10.488 -10.487 -10.478
-10.472 -10.472 -10.467 -10.467 -10.465 -10.465 -10.462 -10.461
-10.459 -10.458 -10.458 -10.457 -10.457 -10.457 -10.457 -10.457
-10.456 -10.456 -10.455 -10.452 -10.452 -10.448 -10.447 -10.447
-10.447 -10.446 -10.445 -10.444 -10.442 -10.430 -10.429  -1.097
 -1.041  -1.026  -1.024  -1.001  -0.981  -0.963  -0.962  -0.960
 -0.932  -0.924  -0.915  -0.892  -0.884  -0.875  -0.856  -0.851
 -0.847  -0.840  -0.839  -0.823  -0.817  -0.806  -0.787  -0.774
 -0.770  -0.741  -0.726  -0.723  -0.712  -0.711  -0.695  -0.687
 -0.675  -0.673  -0.670  -0.663  -0.659  -0.640  -0.623  -0.616
 -0.610  -0.604  -0.592  -0.581  -0.573  -0.567  -0.557  -0.553
 -0.543  -0.538  -0.535  -0.527  -0.526  -0.523  -0.522  -0.515
 -0.511  -0.510  -0.505  -0.501  -0.498  -0.496  -0.495  -0.493
 -0.492  -0.488  -0.483  -0.481  -0.473  -0.462  -0.450  -0.450
 -0.445  -0.445  -0.443  -0.442  -0.440  -0.436  -0.431  -0.430
 -0.428  -0.424  -0.422  -0.420  -0.419  -0.415  -0.410  -0.409
 -0.406  -0.405  -0.402  -0.400  -0.398  -0.395  -0.383  -0.381
 -0.377  -0.366  -0.343  -0.332  -0.319  -0.311  -0.303  -0.302
 -0.298  -0.294  -0.290  -0.287  -0.265  -0.235  -0.186

 Beta MOs
 -- Occupied --
-14.686 -14.661 -14.659 -10.519 -10.518 -10.507 -10.505 -10.500
-10.498 -10.496 -10.495 -10.494 -10.492 -10.488 -10.487 -10.472
-10.467 -10.466 -10.465 -10.465 -10.464 -10.462 -10.461 -10.459
-10.458 -10.458 -10.457 -10.457 -10.457 -10.457 -10.456 -10.456
-10.456 -10.456 -10.455 -10.453 -10.452 -10.449 -10.447 -10.447
-10.447 -10.445 -10.445 -10.444 -10.441 -10.430 -10.429  -1.093
 -1.041  -1.025  -1.022  -1.000  -0.972  -0.963  -0.960  -0.954
 -0.927  -0.922  -0.914  -0.892  -0.879  -0.869  -0.854  -0.848
 -0.845  -0.839  -0.830  -0.823  -0.816  -0.804  -0.777  -0.774
 -0.766  -0.740  -0.724  -0.722  -0.711  -0.707  -0.688  -0.681
 -0.675  -0.672  -0.668  -0.663  -0.656  -0.634  -0.622  -0.614
 -0.607  -0.602  -0.590  -0.575  -0.571  -0.560  -0.554  -0.550
 -0.542  -0.537  -0.532  -0.525  -0.525  -0.520  -0.519  -0.512
 -0.509  -0.506  -0.504  -0.499  -0.497  -0.495  -0.492  -0.491
 -0.490  -0.486  -0.480  -0.478  -0.471  -0.458  -0.449  -0.446
 -0.444  -0.444  -0.442  -0.440  -0.438  -0.432  -0.430  -0.428
 -0.427  -0.423  -0.420  -0.418  -0.417  -0.411  -0.408  -0.406
 -0.405  -0.403  -0.399  -0.399  -0.394  -0.390  -0.378  -0.376
 -0.368  -0.358  -0.342  -0.329  -0.315  -0.301  -0.300  -0.297
 -0.293  -0.291  -0.286  -0.266  -0.235

          Ground-State Mulliken Net Atomic Charges

     Atom                 Charge (a.u.)    Spin (a.u.)
  --------------------------------------------------------
      1 N                    -0.685646       0.053259
      2 C                     0.306680      -0.009631
      3 C                     0.270913      -0.019669
      4 C                     0.149714       0.012329
      5 C                    -0.337036      -0.006645
      6 H                     0.230572       0.000561
      7 C                    -0.232352       0.010694
      8 H                     0.230448      -0.000584
      9 C                    -0.248658      -0.007355
     10 H                     0.233949       0.000403
     11 C                    -0.289514       0.013473
     12 H                     0.251793      -0.000155
     13 C                     0.173835       0.023918
     14 C                    -0.344974      -0.013390
     15 H                     0.230544       0.000601
     16 C                    -0.227212       0.027079
     17 H                     0.231144      -0.001523
     18 C                    -0.259844      -0.016760
     19 H                     0.231648       0.000889
     20 C                    -0.272680       0.026180
     21 H                     0.280874      -0.001213
     22 C                     0.275119       0.109139
     23 C                    -0.338712      -0.077632
     24 H                     0.261224       0.015334
     25 C                    -0.233970       0.647203
     26 H                     0.257358      -0.038621
     27 C                    -0.254787      -0.334833
     28 H                     0.233641       0.028610
     29 C                     0.017032       0.900611
     30 C                     0.039650       0.611887
     31 C                    -0.464729      -0.046821
     32 H                     0.260268       0.036963
     33 H                     0.247643       0.018135
     34 C                    -0.225805      -0.003159
     35 C                    -0.561074       0.008791
     36 H                     0.260857       0.000978
     37 H                     0.263322      -0.001939
     38 C                     0.107784      -0.000904
     39 C                    -0.319160       0.001056
     40 H                     0.264977      -0.000030
     41 C                     0.075705      -0.001032
     42 C                     0.006759       0.000298
     43 N                    -0.189043      -0.000364
     44 C                     0.077942       0.000746
     45 C                    -0.288271      -0.001330
     46 H                     0.286826       0.000163
     47 C                     0.209413       0.006252
     48 C                     0.006238      -0.000179
     49 N                    -0.188941       0.000209
     50 C                    -0.350763      -0.046054
     51 C                     0.091924       0.022167
     52 C                    -0.270097       0.016416
     53 H                     0.240957      -0.000589
     54 C                    -0.243135      -0.010305
     55 H                     0.241687       0.000644
     56 C                     0.128182       0.019628
     57 C                    -0.329782      -0.011400
     58 H                     0.230561       0.001227
     59 C                    -0.239548       0.018829
     60 H                     0.240546      -0.001136
     61 C                     0.124286      -0.005053
     62 C                    -0.334853       0.002914
     63 H                     0.230468       0.000073
     64 C                    -0.231822      -0.002214
     65 H                     0.242649       0.000104
     66 C                    -0.241409       0.002191
     67 H                     0.241245       0.000026
     68 C                    -0.289346      -0.002378
     69 H                     0.235218      -0.000057
     70 C                     0.145402       0.020349
     71 C                    -0.670182       0.000179
     72 H                     0.235439      -0.000037
     73 H                     0.235416      -0.000033
     74 H                     0.242541      -0.000007
     75 C                    -0.608455       0.002002
     76 H                     0.225273       0.000083
     77 H                     0.236674       0.000256
     78 H                     0.229461       0.000183
  --------------------------------------------------------
  Sum of atomic charges =     0.000000

                    Cartesian Multipole Moments
 -----------------------------------------------------------------
    Charge (ESU x 10^10)
                 0.0000
    Dipole Moment (Debye)
         X       5.0099      Y      -4.2979      Z       7.6889
       Tot      10.1336
    Quadrupole Moments (Debye-Ang)
        XX    -302.8281     XY      31.4404     YY    -276.2017
        XZ     -76.6476     YZ      45.5621     ZZ    -342.0739

 Total job time:  76389.14s(wall), 205660.50s(cpu)
        *  Thank you very much for using Q-Chem.  Have a nice day.  *
