 Q-Chem 5.0, Q-Chem, Inc., Pleasanton, CA (2017)
 Q-Chem 5.0.1 for Intel X86 EM64T Linux

User input:
--------------------------------------------------------------
$solvent
dielectric      8.93
dielectric_infi 2.03
$end

$rem
threads 8
jobtype	sp
method PBEh-3c
basis def2-mSVP
mem_static	1024
mem_total	14000
sym_ignore	true
cis_n_roots             2
cis_singlets            true
cis_triplets		false
rpa                     false
calc_soc 		true
cis_moments             true
cis_relaxed_density	true
solvent_method		pcm
$end

$pcm
StateSpecific   1
ChargeSeparation Excited
$end

$molecule
read moms1opt_dcm.mol
$end

--------------------------------------------------------------

   14   -3799.4664053430      7.89E-09 Convergence criterion met
 Total energy in the final basis set = -3799.46640534
 Total job time:  19430.49s(wall), 35416.34s(cpu)
        *  Thank you very much for using Q-Chem.  Have a nice day.  *
 Q-Chem 5.0, Q-Chem, Inc., Pleasanton, CA (2017)
 Q-Chem 5.0.1 for Intel X86 EM64T Linux

User input:
--------------------------------------------------------------
$rem
threads 8
jobtype sp
method PBEh-3c
basis def2-mSVP
mem_static      1024
mem_total       14000
sym_ignore      true
cis_n_roots             6
cis_singlets            true
cis_triplets            true
rpa                     false
calc_soc                true
cis_moments             true
cis_relaxed_density     true
solvent_method          pcm
$end

$molecule
read
$end

$pcm
statespecific           Marcus
$end

$solvent
dielectric      8.93
dielectric_infi 2.03
$end

--------------------------------------------------------------

             Standard Nuclear Orientation (Angstroms)
    I     Atom           X                Y                Z
 ----------------------------------------------------------------
    1      S       0.0000000000     0.0000000000     0.0000000000
    2      C       0.0000000000     0.0000000000     1.7582310000
    3      C       1.2055188475     0.0000000000     2.4445907923
    4      H       2.1297803492     0.1089861843     1.8910735555
    5      C       1.2306635263    -0.1672733172     3.8213735968
    6      H       2.1741263617    -0.1876974180     4.3498393295
    7      C       0.0325716254    -0.3135718234     4.5010458373
    8      H       0.0261326019    -0.4502935167     5.5752055143
    9      C      -1.1771761641    -0.2726645689     3.8237942705
   10      H      -2.0908315992    -0.3781958530     4.3908891419
   11      C      -1.2162879194    -0.1138774797     2.4363314301
   12      N      -2.4295705598    -0.0812209769     1.7296207051
   13      C      -2.5775573341     0.7014993069     0.5763722974
   14      C      -3.7936551821     1.2921497764     0.2335508329
   15      H      -4.6683425239     1.1413082630     0.8503141325
   16      C      -3.9049722162     2.0718086501    -0.9084735837
   17      H      -4.8644940663     2.5089783874    -1.1518582106
   18      C      -2.8055664623     2.3036472153    -1.7187394913
   19      H      -2.8882197327     2.9242086822    -2.6005334495
   20      C      -1.5915991882     1.7187932543    -1.3894760341
   21      H      -0.7211325513     1.8760013909    -2.0140738234
   22      C      -1.4855347240     0.9041701299    -0.2727482862
   23      C      -3.5919887037    -0.4484650121     2.4670273777
   24      C      -4.0078647645    -1.7668609117     2.4448343339
   25      H      -3.4908103549    -2.4781206977     1.8110833440
   26      C      -4.2357954531     0.4727356747     3.2825016326
   27      H      -3.8930495595     1.5012957640     3.3064037952
   28      C      -5.2765184681     0.0719260709     4.1085816521
   29      C      -5.0432182753    -2.1908502701     3.2743680511
   30      C      -5.6705125765    -1.2741679927     4.1234041487
   31      C      -5.9361224077     1.0606309464     5.0299600239
   32      H      -5.4875315148     2.0495309712     4.9454955901
   33      H      -7.0017776021     1.1608102769     4.8148251688
   34      H      -5.8506172294     0.7500555615     6.0744092743
   35      C      -5.4734061912    -3.6344464270     3.2550769421
   36      H      -4.6284550691    -4.2654620646     2.9702523448
   37      H      -5.7579448151    -3.9534220815     4.2628191502
   38      C      -6.6364485481    -3.8870970342     2.2982268783
   39      H      -7.5201512087    -3.3190819970     2.5894255737
   40      H      -6.9091528837    -4.9428964439     2.2889419001
   41      H      -6.3751996223    -3.5983967162     1.2796013739
   42      B      -6.6831949503    -1.7545246847     5.2263906916
   43      C      -8.2239509994    -1.6700881530     5.0477251561
   44      C      -8.7809805206    -1.1349427259     3.8810124848
   45      H      -8.1318310152    -0.7824215601     3.0869530462
   46      C     -10.1574632248    -1.0526998553     3.7423270326
   47      C     -10.9955120299    -1.5163126842     4.7808238248
   48      C     -10.4567169728    -2.0523554402     5.9353552031
   49      H     -11.1097813417    -2.4063501089     6.7257728883
   50      C      -9.0719764855    -2.1324509469     6.0846830224
   51      C     -12.3845390895    -1.3087478329     4.3873277355
   52      C     -13.6019739673    -1.5462254082     4.9717764865
   53      H     -13.6901505549    -1.9924192216     5.9552459770
   54      C     -12.3420234914    -0.7228698043     3.1092500337
   55      C     -13.4719018229    -0.3614706480     2.3844382398
   56      C     -11.0160113852    -0.5444189636     2.6683948223
   57      C     -10.8116255925     0.0231948177     1.4378947649
   58      H      -9.8174407248     0.1894357134     1.0422547353
   59      C     -14.7693740817    -1.1892592452     4.2561637049
   60      H     -15.7329121149    -1.3738967814     4.7132414020
   61      C     -14.7205922219    -0.6165044577     3.0048629377
   62      H     -15.6407582483    -0.3590149537     2.4948212005
   63      C     -13.2332749024     0.2208835001     1.1157638207
   64      H     -14.0658832547     0.5265913890     0.4942081271
   65      C     -11.9422761230     0.4000868143     0.6719930382
   66      H     -11.7790340040     0.8473970089    -0.2996182795
   67      B      -8.4734870258    -2.7208056185     7.3943768185
   68      C      -6.9364651416    -2.7669206145     7.5848226752
   69      C      -6.3950672247    -3.2572196763     8.7753265755
   70      H      -7.0482771504    -3.6271764245     9.5583979547
   71      C      -5.0246246586    -3.2632368261     8.9564739527
   72      C      -4.1674342065    -2.7853065206     7.9400034675
   73      C      -4.6963658552    -2.3088123706     6.7538625004
   74      H      -4.0348274339    -1.9450033278     5.9769254889
   75      C      -6.0813956721    -2.2937347353     6.5605110145
   76      C      -4.2046758292    -3.6928999942    10.0887116394
   77      C      -4.4551521781    -4.2267594568    11.3273036296
   78      H      -5.4613782166    -4.4309265310    11.6729385828
   79      C      -2.8698189118    -3.4567548578     9.7107539705
   80      C      -1.7713060043    -3.7328112388    10.5191001671
   81      C      -2.7878244116    -2.9098885915     8.4162565083
   82      C      -1.5473230530    -2.6295153499     7.9038787275
   83      H      -1.4166479885    -2.2126643955     6.9126438702
   84      C      -3.3565898005    -4.5162313934    12.1722088522
   85      H      -3.5539716728    -4.9365704125    13.1499754549
   86      C      -2.0537220139    -4.2827420326    11.7943444437
   87      H      -1.2443022688    -4.5201635525    12.4740732530
   88      C      -0.5020400601    -3.4323230936     9.9682326924
   89      H       0.3962400251    -3.6227401490    10.5429740475
   90      C      -0.4092118186    -2.9000928317     8.7020848285
   91      H       0.5694470205    -2.6787537339     8.2967912803
   92      C      -9.4380608094    -3.2675186185     8.5107418980
   93      C      -9.9187084957    -2.4300557915     9.5194745881
   94      C     -10.8271268887    -2.9231247874    10.4545973123
   95      H     -11.2192196720    -2.2755572110    11.2314444040
   96      C     -11.2490616376    -4.2359380738    10.3965231109
   97      C     -10.7532611458    -5.0821329277     9.4120664724
   98      H     -11.0841147795    -6.1146735196     9.3776789749
   99      C      -9.8531463967    -4.6088906222     8.4690914199
  100      N     -12.2031871871    -4.6965901812    11.3516480166
  101      C     -11.7328861106    -5.4212145818    12.4564897727
  102      C     -10.4298759719    -5.9165160470    12.5165816890
  103      H      -9.7407419102    -5.7400285895    11.7034397713
  104      C      -9.9893318776    -6.6277216027    13.6238703017
  105      H      -8.9684421728    -6.9861454060    13.6437032622
  106      C     -10.8411304787    -6.8908378936    14.6836769862
  107      H     -10.5025536747    -7.4560918610    15.5414199990
  108      C     -12.1403476451    -6.4082737605    14.6352252676
  109      H     -12.8223116221    -6.5910790615    15.4565656165
  110      C     -12.5711830956    -5.6587288646    13.5512378578
  111      C     -13.5471504667    -4.7690905943    10.9541787506
  112      C     -13.9322680148    -4.6683527152     9.6171826534
  113      H     -13.1913063587    -4.5152899150     8.8459842742
  114      C     -15.2693340920    -4.7516869989     9.2549806441
  115      H     -15.5348272145    -4.6602905989     8.2099455510
  116      C     -16.2517476428    -4.9648569402    10.2077817858
  117      H     -17.2925252638    -5.0437513670     9.9244752540
  118      C     -15.8826405141    -5.0693445883    11.5403040264
  119      H     -16.6330422884    -5.2271912423    12.3052083055
  120      C     -14.5528365192    -4.9451880305    11.9117738274
  121      C      -9.3327440058    -5.5287876556     7.4011461500
  122      H      -9.7492870128    -6.5304905159     7.4988978819
  123      H      -8.2452392513    -5.6175424171     7.4471523365
  124      H      -9.5828983592    -5.1644546002     6.4021465823
  125      C      -9.4596698740    -1.0003184108     9.6503794769
  126      H     -10.3281222659    -0.3488181441     9.7790297791
  127      H      -8.9708102927    -0.6648501775     8.7314247968
  128      C      -8.5067245943    -0.8073467354    10.8277714475
  129      H      -8.1925444475     0.2335942610    10.9070980000
  130      H      -7.6118612426    -1.4201698655    10.7151034683
  131      H      -8.9829075759    -1.0843928148    11.7692219081
  132      S     -14.1432931170    -4.8734727705    13.6217406434
 ----------------------------------------------------------------

   14   -3799.4494266440      8.75E-09 Convergence criterion met
 Total energy in the final basis set = -3799.44942664

         TDDFT/TDA Excitation Energies
 ---------------------------------------------------

 Excited state   1: excitation energy (eV) =    1.9837
 Total energy for state  1:                 -3799.37652705 au
    Multiplicity: Triplet
    Trans. Mom.:  0.0000 X   0.0000 Y   0.0000 Z
    Strength   :     0.0000000000
    D(276) --> V(  1) amplitude =  0.9969

 Excited state   2: excitation energy (eV) =    1.9841
 Total energy for state  2:                 -3799.37651199 au
    Multiplicity: Singlet
    Trans. Mom.: -0.0296 X  -0.0083 Y   0.0248 Z
    Strength   :     0.0000756007
    D(276) --> V(  1) amplitude =  0.9971

 Excited state   3: excitation energy (eV) =    2.3907
 Total energy for state  3:                 -3799.36156924 au
    Multiplicity: Triplet
    Trans. Mom.:  0.0000 X   0.0000 Y   0.0000 Z
    Strength   :     0.0000000000
    D(263) --> V(  2) amplitude =  0.2366
    D(271) --> V(  1) amplitude = -0.3663
    D(272) --> V(  1) amplitude =  0.8294

 Excited state   4: excitation energy (eV) =    2.4904
 Total energy for state  4:                 -3799.35790640 au
    Multiplicity: Triplet
    Trans. Mom.:  0.0000 X   0.0000 Y   0.0000 Z
    Strength   :     0.0000000000
    D(270) --> V(  2) amplitude = -0.4424
    D(273) --> V(  1) amplitude =  0.7785
    D(273) --> V(  4) amplitude =  0.2295

 Excited state   5: excitation energy (eV) =    2.5412
 Total energy for state  5:                 -3799.35603780 au
    Multiplicity: Triplet
    Trans. Mom.:  0.0000 X   0.0000 Y   0.0000 Z
    Strength   :     0.0000000000
    D(269) --> V(  1) amplitude =  0.2290
    D(270) --> V(  1) amplitude =  0.6566
    D(270) --> V(  4) amplitude =  0.2254
    D(273) --> V(  2) amplitude = -0.5511

 Excited state   6: excitation energy (eV) =    2.8096
 Total energy for state  6:                 -3799.34617563 au
    Multiplicity: Triplet
    Trans. Mom.:  0.0000 X   0.0000 Y   0.0000 Z
    Strength   :     0.0000000000
    D(263) --> V(  1) amplitude =  0.6059
    D(264) --> V(  1) amplitude = -0.3240
    D(271) --> V(  2) amplitude = -0.2335
    D(272) --> V(  2) amplitude =  0.5067

 Excited state   7: excitation energy (eV) =    2.8563
 Total energy for state  7:                 -3799.34446062 au
    Multiplicity: Triplet
    Trans. Mom.:  0.0000 X   0.0000 Y   0.0000 Z
    Strength   :     0.0000000000
    D(275) --> V(  1) amplitude =  0.9961

 Excited state   8: excitation energy (eV) =    2.8564
 Total energy for state  8:                 -3799.34445640 au
    Multiplicity: Singlet
    Trans. Mom.: -0.0046 X   0.0004 Y   0.0058 Z
    Strength   :     0.0000038890
    D(275) --> V(  1) amplitude =  0.9980

 Excited state   9: excitation energy (eV) =    2.9890
 Total energy for state  9:                 -3799.33958124 au
    Multiplicity: Singlet
    Trans. Mom.: -0.0174 X   0.0054 Y  -0.0183 Z
    Strength   :     0.0000489012
    D(276) --> V(  2) amplitude =  0.9959

 Excited state  10: excitation energy (eV) =    3.0535
 Total energy for state 10:                 -3799.33721431 au
    Multiplicity: Singlet
    Trans. Mom.:  0.0565 X  -0.0022 Y   0.0166 Z
    Strength   :     0.0002601650
    D(271) --> V(  1) amplitude =  0.3856
    D(272) --> V(  1) amplitude = -0.8832

 Excited state  11: excitation energy (eV) =    3.1388
 Total energy for state 11:                 -3799.33407911 au
    Multiplicity: Singlet
    Trans. Mom.:  0.2238 X   0.0086 Y  -0.0258 Z
    Strength   :     0.0039087575
    D(274) --> V(  1) amplitude =  0.9113

 Excited state  12: excitation energy (eV) =    3.2107
 Total energy for state 12:                 -3799.33143438 au
    Multiplicity: Singlet
    Trans. Mom.: -3.1301 X   0.8610 Y  -2.0842 Z
    Strength   :     1.1707145392
    D(273) --> V(  1) amplitude =  0.9276

 ---------------------------------------------------

                    Orbital Energies (a.u.)
 --------------------------------------------------------------

 Alpha MOs
 -- Occupied --
-89.610 -89.577 -14.696 -14.667 -10.516 -10.516 -10.501 -10.495
-10.494 -10.485 -10.484 -10.483 -10.482 -10.481 -10.480 -10.480
-10.480 -10.480 -10.478 -10.478 -10.478 -10.477 -10.477 -10.476
-10.475 -10.475 -10.475 -10.474 -10.474 -10.474 -10.473 -10.472
-10.472 -10.472 -10.472 -10.472 -10.470 -10.470 -10.469 -10.467
-10.465 -10.465 -10.463 -10.463 -10.462 -10.461 -10.461 -10.461
-10.461 -10.460 -10.460 -10.459 -10.459 -10.456 -10.456 -10.455
-10.454 -10.454 -10.454 -10.453 -10.452 -10.448 -10.445 -10.441
-10.440 -10.440 -10.437 -10.434 -10.433 -10.433 -10.432 -10.432
-10.431 -10.430 -10.429 -10.426 -10.426 -10.424  -8.250  -8.216
 -6.969  -6.966  -6.141  -6.138  -6.132  -6.107  -6.104  -6.098
 -1.104  -1.076  -1.033  -1.031  -0.990  -0.981  -0.979  -0.976
 -0.967  -0.966  -0.950  -0.948  -0.945  -0.941  -0.925  -0.917
 -0.915  -0.903  -0.889  -0.883  -0.878  -0.872  -0.870  -0.870
 -0.861  -0.858  -0.857  -0.855  -0.839  -0.839  -0.834  -0.830
 -0.827  -0.826  -0.822  -0.821  -0.814  -0.799  -0.787  -0.779
 -0.771  -0.751  -0.750  -0.744  -0.740  -0.735  -0.732  -0.727
 -0.723  -0.716  -0.708  -0.702  -0.693  -0.693  -0.692  -0.691
 -0.681  -0.669  -0.664  -0.663  -0.662  -0.658  -0.646  -0.643
 -0.643  -0.630  -0.616  -0.611  -0.607  -0.603  -0.603  -0.600
 -0.599  -0.597  -0.589  -0.587  -0.578  -0.574  -0.568  -0.557
 -0.557  -0.556  -0.554  -0.549  -0.542  -0.540  -0.538  -0.535
 -0.529  -0.526  -0.524  -0.519  -0.517  -0.517  -0.513  -0.512
 -0.510  -0.510  -0.509  -0.507  -0.505  -0.503  -0.502  -0.501
 -0.498  -0.495  -0.494  -0.493  -0.491  -0.490  -0.489  -0.486
 -0.483  -0.481  -0.479  -0.476  -0.475  -0.473  -0.468  -0.465
 -0.464  -0.463  -0.460  -0.459  -0.458  -0.453  -0.452  -0.448
 -0.446  -0.445  -0.442  -0.440  -0.438  -0.437  -0.435  -0.428
 -0.428  -0.426  -0.421  -0.417  -0.413  -0.413  -0.411  -0.411
 -0.408  -0.408  -0.407  -0.406  -0.405  -0.403  -0.400  -0.398
 -0.398  -0.396  -0.394  -0.392  -0.387  -0.384  -0.382  -0.377
 -0.373  -0.369  -0.365  -0.363  -0.361  -0.357  -0.353  -0.337
 -0.331  -0.328  -0.319  -0.313  -0.311  -0.308  -0.299  -0.298
 -0.297  -0.290  -0.282  -0.282  -0.280  -0.278  -0.276  -0.276
 -0.272  -0.250  -0.239  -0.207

          Ground-State Mulliken Net Atomic Charges

     Atom                 Charge (a.u.)
  ----------------------------------------
      1 S                     0.139126
      2 C                    -0.195873
      3 C                    -0.264704
      4 H                     0.263658
      5 C                    -0.255151
      6 H                     0.247920
      7 C                    -0.252469
      8 H                     0.243327
      9 C                    -0.312180
     10 H                     0.267711
     11 C                     0.420196
     12 N                    -0.699909
     13 C                     0.429010
     14 C                    -0.318145
     15 H                     0.266052
     16 C                    -0.246265
     17 H                     0.246937
     18 C                    -0.258404
     19 H                     0.248760
     20 C                    -0.262711
     21 H                     0.263260
     22 C                    -0.206513
     23 C                     0.204860
     24 C                    -0.320551
     25 H                     0.254724
     26 C                    -0.318846
     27 H                     0.270197
     28 C                     0.034136
     29 C                     0.056007
     30 C                    -0.211166
     31 C                    -0.774669
     32 H                     0.266586
     33 H                     0.242151
     34 H                     0.241379
     35 C                    -0.549741
     36 H                     0.254788
     37 H                     0.239729
     38 C                    -0.658772
     39 H                     0.225315
     40 H                     0.228100
     41 H                     0.235029
     42 B                     0.667646
     43 C                    -0.150018
     44 C                    -0.406247
     45 H                     0.260100
     46 C                     0.085847
     47 C                     0.068093
     48 C                    -0.393067
     49 H                     0.246288
     50 C                    -0.162241
     51 C                     0.173779
     52 C                    -0.390919
     53 H                     0.253550
     54 C                    -0.067188
     55 C                     0.217413
     56 C                     0.174992
     57 C                    -0.397430
     58 H                     0.262660
     59 C                    -0.238032
     60 H                     0.263127
     61 C                    -0.347403
     62 H                     0.260810
     63 C                    -0.351151
     64 H                     0.261364
     65 C                    -0.235242
     66 H                     0.266959
     67 B                     0.672184
     68 C                    -0.157830
     69 C                    -0.398651
     70 H                     0.244610
     71 C                     0.068529
     72 C                     0.083277
     73 C                    -0.393701
     74 H                     0.270016
     75 C                    -0.155153
     76 C                     0.176172
     77 C                    -0.395525
     78 H                     0.252508
     79 C                    -0.067358
     80 C                     0.215469
     81 C                     0.176777
     82 C                    -0.403254
     83 H                     0.278333
     84 C                    -0.237374
     85 H                     0.262239
     86 C                    -0.347997
     87 H                     0.260551
     88 C                    -0.350255
     89 H                     0.260908
     90 C                    -0.239609
     91 H                     0.270217
     92 C                    -0.214825
     93 C                     0.052269
     94 C                    -0.323229
     95 H                     0.248252
     96 C                     0.219778
     97 C                    -0.334509
     98 H                     0.261439
     99 C                     0.033774
    100 N                    -0.706072
    101 C                     0.413978
    102 C                    -0.317565
    103 H                     0.271842
    104 C                    -0.250016
    105 H                     0.254601
    106 C                    -0.262609
    107 H                     0.255130
    108 C                    -0.267639
    109 H                     0.264886
    110 C                    -0.205531
    111 C                     0.411967
    112 C                    -0.316017
    113 H                     0.272276
    114 C                    -0.250500
    115 H                     0.253690
    116 C                    -0.262470
    117 H                     0.255020
    118 C                    -0.267322
    119 H                     0.265188
    120 C                    -0.205564
    121 C                    -0.772812
    122 H                     0.261833
    123 H                     0.248297
    124 H                     0.248529
    125 C                    -0.550331
    126 H                     0.250436
    127 H                     0.250498
    128 C                    -0.656011
    129 H                     0.235525
    130 H                     0.226648
    131 H                     0.229543
    132 S                     0.125962
  ----------------------------------------
  Sum of atomic charges =    -0.000000

                    Cartesian Multipole Moments
 -----------------------------------------------------------------
    Charge (ESU x 10^10)
                -0.0000
    Dipole Moment (Debye)
         X       1.4138      Y       1.1523      Z      -1.8588
       Tot       2.6041
    Quadrupole Moments (Debye-Ang)
        XX    -438.6156     XY     -25.6475     YY    -470.3094
        XZ      77.6849     YZ     -14.3315     ZZ    -469.9116

 Total job time:  28463.46s(wall), 84456.93s(cpu)
        *  Thank you very much for using Q-Chem.  Have a nice day.  *
