 Q-Chem 5.0, Q-Chem, Inc., Pleasanton, CA (2017)
 Q-Chem 5.0.1 for Intel X86 EM64T Linux

User input:
--------------------------------------------------------------
$solvent
dielectric      4.33
dielectric_infi 1.83
$end

$rem
threads 8
jobtype	sp
method PBEh-3c
basis def2-mSVP
mem_static	1024
mem_total	14000
sym_ignore	true
cis_n_roots             2
cis_singlets            true
cis_triplets		false
rpa                     false
calc_soc 		true
cis_moments             true
cis_relaxed_density	true
solvent_method		pcm
$end

$pcm
StateSpecific   1
ChargeSeparation Excited
$end

$molecule
read moms1opt_eth.mol
$end

--------------------------------------------------------------

   14   -3799.4500645929      9.73E-09 Convergence criterion met
 Total energy in the final basis set = -3799.45006459
 Total job time:  17064.25s(wall), 31231.94s(cpu)
        *  Thank you very much for using Q-Chem.  Have a nice day.  *
 Q-Chem 5.0, Q-Chem, Inc., Pleasanton, CA (2017)
 Q-Chem 5.0.1 for Intel X86 EM64T Linux

User input:
--------------------------------------------------------------
$rem
threads 8
jobtype sp
method PBEh-3c
basis def2-mSVP
mem_static      1024
mem_total       14000
sym_ignore      true
cis_n_roots             6
cis_singlets            true
cis_triplets            true
rpa                     false
calc_soc                true
cis_moments             true
cis_relaxed_density     true
solvent_method          pcm
$end

$molecule
read
$end

$pcm
statespecific           Marcus
$end

$solvent
dielectric      4.33
dielectric_infi 1.83
$end

--------------------------------------------------------------

             Standard Nuclear Orientation (Angstroms)
    I     Atom           X                Y                Z
 ----------------------------------------------------------------
    1      S       0.0000000000     0.0000000000     0.0000000000
    2      C       0.0000000000     0.0000000000     1.7584640000
    3      C       1.2105960081     0.0000000000     2.4339547607
    4      H       2.1288110844     0.1178729804     1.8717008414
    5      C       1.2491587208    -0.1818971963     3.8080069180
    6      H       2.1973700587    -0.2032839783     4.3279468426
    7      C       0.0574108587    -0.3459088409     4.4936905689
    8      H       0.0619340938    -0.5007453233     5.5647490981
    9      C      -1.1591327255    -0.3011452703     3.8281648829
   10      H      -2.0694494362    -0.4231064165     4.3968721159
   11      C      -1.2133028372    -0.1196739621     2.4455288493
   12      N      -2.4287689426    -0.0689558426     1.7501963336
   13      C      -2.5723463289     0.7126978568     0.5947550130
   14      C      -3.7831290096     1.3183675453     0.2574372652
   15      H      -4.6529457626     1.1784688178     0.8827277255
   16      C      -3.8939833553     2.0963464903    -0.8858948921
   17      H      -4.8501161549     2.5443496608    -1.1226531224
   18      C      -2.7997726860     2.3137241433    -1.7066533812
   19      H      -2.8822586594     2.9314818227    -2.5906044573
   20      C      -1.5901557494     1.7186818199    -1.3827437304
   21      H      -0.7216002354     1.8655847057    -2.0129502836
   22      C      -1.4844269358     0.9065237417    -0.2645186404
   23      C      -3.6157830663    -0.4586876109     2.4417364896
   24      C      -4.1400372195    -1.7154419935     2.2201276900
   25      H      -3.6317890180    -2.3858466665     1.5349816395
   26      C      -4.2539704595     0.4112402795     3.3164646877
   27      H      -3.8356571360     1.3978812019     3.4872548687
   28      C      -5.4240021100     0.0288884554     3.9575376324
   29      C      -5.3148515140    -2.1151648093     2.8563403025
   30      C      -5.9783304301    -1.2429612797     3.7262172181
   31      C      -6.1000907080     0.9891815074     4.8950935221
   32      H      -5.5603953152     1.9342125729     4.9562913011
   33      H      -6.1685627801     0.5759220013     5.9031953828
   34      H      -7.1209101036     1.2066662044     4.5746606206
   35      C      -5.8154607314    -3.5135037823     2.6019275226
   36      H      -6.8693701675    -3.5927222619     2.8759488988
   37      H      -5.7608909463    -3.7316322682     1.5315616785
   38      C      -5.0107887389    -4.5602391057     3.3692606279
   39      H      -5.0737091987    -4.3915171988     4.4445470090
   40      H      -5.3828135333    -5.5652589725     3.1664373159
   41      H      -3.9566540792    -4.5319371210     3.0886064767
   42      B      -7.3467790070    -1.6426786401     4.4205159494
   43      C      -7.3627597824    -2.3103497443     5.7987965401
   44      C      -6.1541067988    -2.6157752002     6.4547888043
   45      H      -5.2112595637    -2.3581219861     5.9814932890
   46      C      -6.1572933154    -3.2393826741     7.6775984180
   47      C      -7.3926321625    -3.5827239743     8.3045298430
   48      C      -8.5812560818    -3.2844444586     7.6852147413
   49      H      -9.5166144987    -3.5481026976     8.1681745483
   50      C      -8.6039977749    -2.6420192106     6.4275020189
   51      C      -5.0671266117    -3.6731277049     8.5459505332
   52      C      -3.6945234232    -3.6262513690     8.4910065242
   53      H      -3.1697596383    -3.1847803411     7.6522734353
   54      C      -5.6746797035    -4.2654486230     9.6726928470
   55      C      -4.9691331777    -4.8103371315    10.7436128939
   56      C      -7.0817860054    -4.2347989288     9.5766678601
   57      C      -7.8120530569    -4.7738775150    10.6078037249
   58      H      -8.8953536638    -4.7790615487    10.5975011052
   59      C      -2.9545700305    -4.1737199779     9.5647599090
   60      H      -1.8732366832    -4.1362205245     9.5178914652
   61      C      -3.5553678580    -4.7496394575    10.6615874192
   62      H      -2.9468361559    -5.1563721989    11.4603881098
   63      C      -7.1229188250    -5.3331776939    11.7093115801
   64      H      -7.7017575139    -5.7569296434    12.5204011042
   65      C      -5.7486822350    -5.3595280432    11.7903314504
   66      H      -5.2638807113    -5.7990290323    12.6538396611
   67      B      -9.9320317979    -2.3020804416     5.7351593791
   68      C      -9.9257807607    -1.6612661532     4.3422835749
   69      C     -11.1279429894    -1.3811691716     3.6542893161
   70      H     -12.0765650579    -1.6138302360     4.1289019998
   71      C     -11.1107369532    -0.8242602083     2.3973033923
   72      C      -9.8627882289    -0.5156486379     1.7789097763
   73      C      -8.6822996020    -0.7719751528     2.4305703688
   74      H      -7.7368655388    -0.5362827420     1.9514906417
   75      C      -8.6789556784    -1.3483286815     3.7144389059
   76      C     -10.1273198531     0.0476004298     0.4622824674
   77      C      -9.3484907666     0.5084976438    -0.5709848561
   78      H      -8.2663514329     0.5105237305    -0.5148735261
   79      C     -11.5296146145     0.0685176206     0.3170651962
   80      C     -12.1862312367     0.5310106752    -0.8198063025
   81      C     -12.1730195513    -0.4497737347     1.4615220877
   82      C     -13.5447669819    -0.5036470745     1.4610550160
   83      H     -14.1001605510    -0.8942121035     2.3048961697
   84      C      -9.9912132688     0.9863088306    -1.7360675696
   85      H      -9.3785355732     1.3493317352    -2.5518479698
   86      C     -11.3615494140     1.0042967938    -1.8715318901
   87      H     -11.8087966878     1.3782356292    -2.7845349125
   88      C     -14.2414515016    -0.0371701369     0.3209320290
   89      H     -15.3232092033    -0.0814498051     0.3249420150
   90      C     -13.6006634288     0.4658036854    -0.7894458729
   91      H     -14.1781542314     0.8088198550    -1.6393044949
   92      C     -11.2818981695    -2.6642229670     6.4900174635
   93      C     -11.7861131437    -1.8407632408     7.5087446981
   94      C     -12.8964582139    -2.2396709986     8.2473964389
   95      H     -13.2722116398    -1.6201111499     9.0538037887
   96      C     -13.4965762468    -3.4504606771     7.9635893301
   97      C     -13.0382865745    -4.2701878563     6.9500622347
   98      H     -13.5230897723    -5.2202924125     6.7573195100
   99      C     -11.9281001305    -3.8794541868     6.2095156875
  100      N     -14.5862591081    -3.9024490676     8.7867592863
  101      C     -15.8566991598    -3.5023521458     8.4415525397
  102      C     -14.2612224310    -4.7021653203     9.8601168407
  103      C     -16.9880003816    -3.8633006541     9.1982072803
  104      C     -18.2611364234    -3.4230534876     8.8242745467
  105      H     -19.1185890904    -3.7080585242     9.4205876354
  106      C     -18.4209160298    -2.6366395592     7.7099701060
  107      H     -19.4070609957    -2.2977977462     7.4258222130
  108      C     -17.3041059723    -2.2813650160     6.9458085137
  109      H     -17.4246002310    -1.6672196094     6.0643070424
  110      C     -16.0479812670    -2.7025188410     7.2985812460
  111      H     -15.2011835712    -2.4157543168     6.6932285718
  112      C     -15.2336839511    -5.2033512670    10.7466995647
  113      C     -14.8657301563    -6.0210035382    11.8199273413
  114      H     -15.6297712987    -6.3963185695    12.4888396368
  115      C     -13.5468412227    -6.3426821573    12.0249062297
  116      H     -13.2673109536    -6.9761387964    12.8549760998
  117      C     -12.5707706704    -5.8430338699    11.1562655137
  118      H     -11.5293166599    -6.0887648524    11.3132805077
  119      C     -12.9134709410    -5.0406063604    10.0987791286
  120      H     -12.1358565390    -4.6727453830     9.4472784675
  121      C     -11.3966895525    -4.7863174750     5.1360985994
  122      H     -11.9670222883    -5.7126108313     5.0721236487
  123      H     -11.4253746004    -4.3044161786     4.1578648329
  124      H     -10.3528867050    -5.0441262152     5.3242764361
  125      C     -11.1364353580    -0.5192442476     7.8248822300
  126      H     -10.0510059875    -0.6214658812     7.7636384072
  127      H     -11.3623731164    -0.2384948890     8.8566934867
  128      C     -11.5903194571     0.5964455959     6.8860822906
  129      H     -11.3177436380     0.3775361520     5.8540704379
  130      H     -11.1219967363     1.5430145582     7.1577224981
  131      H     -12.6720192474     0.7333399062     6.9277083679
  132      S     -16.9089133326    -4.8500962438    10.6037994724
 ----------------------------------------------------------------

   15   -3799.4359160674      6.19E-09 Convergence criterion met
 Total energy in the final basis set = -3799.43591607

         TDDFT/TDA Excitation Energies
 ---------------------------------------------------

 Excited state   1: excitation energy (eV) =    1.3275
 Total energy for state  1:                 -3799.38713017 au
    Multiplicity: Triplet
    Trans. Mom.:  0.0000 X   0.0000 Y   0.0000 Z
    Strength   :     0.0000000000
    D(276) --> V(  1) amplitude =  0.9985

 Excited state   2: excitation energy (eV) =    1.3279
 Total energy for state  2:                 -3799.38711793 au
    Multiplicity: Singlet
    Trans. Mom.: -0.0598 X  -0.0217 Y   0.0414 Z
    Strength   :     0.0001874424
    D(276) --> V(  1) amplitude =  0.9985

 Excited state   3: excitation energy (eV) =    2.2104
 Total energy for state  3:                 -3799.35468502 au
    Multiplicity: Triplet
    Trans. Mom.:  0.0000 X   0.0000 Y   0.0000 Z
    Strength   :     0.0000000000
    D(263) --> V(  2) amplitude = -0.2219
    D(272) --> V(  1) amplitude =  0.9128

 Excited state   4: excitation energy (eV) =    2.4044
 Total energy for state  4:                 -3799.34755526 au
    Multiplicity: Triplet
    Trans. Mom.:  0.0000 X   0.0000 Y   0.0000 Z
    Strength   :     0.0000000000
    D(271) --> V(  2) amplitude =  0.4463
    D(273) --> V(  1) amplitude =  0.8099

 Excited state   5: excitation energy (eV) =    2.4389
 Total energy for state  5:                 -3799.34628786 au
    Multiplicity: Triplet
    Trans. Mom.:  0.0000 X   0.0000 Y   0.0000 Z
    Strength   :     0.0000000000
    D(276) --> V(  2) amplitude =  0.9975

 Excited state   6: excitation energy (eV) =    2.4391
 Total energy for state  6:                 -3799.34628133 au
    Multiplicity: Singlet
    Trans. Mom.: -0.0043 X  -0.0045 Y   0.0101 Z
    Strength   :     0.0000084195
    D(276) --> V(  2) amplitude =  0.9982

 Excited state   7: excitation energy (eV) =    2.4708
 Total energy for state  7:                 -3799.34511405 au
    Multiplicity: Triplet
    Trans. Mom.:  0.0000 X   0.0000 Y   0.0000 Z
    Strength   :     0.0000000000
    D(271) --> V(  1) amplitude = -0.7423
    D(271) --> V(  4) amplitude = -0.2263
    D(273) --> V(  2) amplitude = -0.5341

 Excited state   8: excitation energy (eV) =    2.6475
 Total energy for state  8:                 -3799.33862174 au
    Multiplicity: Triplet
    Trans. Mom.:  0.0000 X   0.0000 Y   0.0000 Z
    Strength   :     0.0000000000
    D(276) --> V( 11) amplitude =  0.2878
    D(276) --> V( 12) amplitude =  0.7755
    D(276) --> V( 15) amplitude = -0.4455

 Excited state   9: excitation energy (eV) =    2.6764
 Total energy for state  9:                 -3799.33755986 au
    Multiplicity: Singlet
    Trans. Mom.:  0.0081 X  -0.0003 Y  -0.0054 Z
    Strength   :     0.0000062050
    D(275) --> V(  1) amplitude =  0.9981

 Excited state  10: excitation energy (eV) =    2.8656
 Total energy for state 10:                 -3799.33060753 au
    Multiplicity: Singlet
    Trans. Mom.: -0.0695 X   0.0328 Y  -0.0855 Z
    Strength   :     0.0009279408
    D(272) --> V(  1) amplitude =  0.9617

 Excited state  11: excitation energy (eV) =    2.9558
 Total energy for state 11:                 -3799.32729094 au
    Multiplicity: Singlet
    Trans. Mom.:  0.0423 X   0.0151 Y  -0.0302 Z
    Strength   :     0.0002119735
    D(276) --> V(  3) amplitude =  0.9564
    D(276) --> V(  4) amplitude =  0.2668

 Excited state  12: excitation energy (eV) =    3.0713
 Total energy for state 12:                 -3799.32304713 au
    Multiplicity: Singlet
    Trans. Mom.: -0.1771 X   0.2115 Y  -0.4676 Z
    Strength   :     0.0221759651
    D(268) --> V(  1) amplitude = -0.2138
    D(274) --> V(  1) amplitude =  0.9520

 ---------------------------------------------------

                    Orbital Energies (a.u.)
 --------------------------------------------------------------

 Alpha MOs
 -- Occupied --
-89.607 -89.579 -14.694 -14.669 -10.514 -10.513 -10.499 -10.492
-10.492 -10.491 -10.490 -10.483 -10.482 -10.481 -10.480 -10.480
-10.478 -10.478 -10.478 -10.477 -10.477 -10.476 -10.476 -10.476
-10.476 -10.475 -10.474 -10.474 -10.474 -10.473 -10.472 -10.472
-10.471 -10.471 -10.471 -10.470 -10.470 -10.470 -10.470 -10.468
-10.467 -10.466 -10.463 -10.463 -10.463 -10.462 -10.461 -10.459
-10.459 -10.458 -10.458 -10.458 -10.458 -10.457 -10.454 -10.454
-10.453 -10.453 -10.453 -10.452 -10.451 -10.447 -10.443 -10.442
-10.442 -10.440 -10.435 -10.435 -10.435 -10.435 -10.433 -10.432
-10.431 -10.430 -10.429 -10.426 -10.426 -10.425  -8.247  -8.221
 -6.965  -6.962  -6.138  -6.135  -6.129  -6.112  -6.108  -6.103
 -1.102  -1.086  -1.030  -1.029  -0.987  -0.979  -0.977  -0.973
 -0.969  -0.964  -0.952  -0.946  -0.946  -0.945  -0.923  -0.914
 -0.912  -0.901  -0.891  -0.889  -0.877  -0.871  -0.869  -0.868
 -0.860  -0.858  -0.857  -0.855  -0.846  -0.838  -0.832  -0.830
 -0.828  -0.825  -0.820  -0.819  -0.816  -0.801  -0.785  -0.777
 -0.773  -0.751  -0.749  -0.744  -0.740  -0.734  -0.730  -0.725
 -0.721  -0.718  -0.709  -0.706  -0.701  -0.693  -0.692  -0.691
 -0.681  -0.667  -0.663  -0.660  -0.660  -0.655  -0.647  -0.644
 -0.641  -0.628  -0.615  -0.610  -0.609  -0.607  -0.603  -0.600
 -0.600  -0.595  -0.588  -0.588  -0.581  -0.572  -0.566  -0.559
 -0.556  -0.555  -0.553  -0.547  -0.540  -0.539  -0.536  -0.535
 -0.531  -0.528  -0.522  -0.520  -0.517  -0.515  -0.514  -0.511
 -0.510  -0.508  -0.508  -0.507  -0.504  -0.501  -0.501  -0.499
 -0.497  -0.493  -0.493  -0.491  -0.490  -0.489  -0.488  -0.486
 -0.485  -0.480  -0.479  -0.477  -0.476  -0.473  -0.470  -0.468
 -0.465  -0.463  -0.461  -0.458  -0.456  -0.453  -0.451  -0.446
 -0.445  -0.442  -0.441  -0.439  -0.437  -0.435  -0.434  -0.427
 -0.426  -0.425  -0.422  -0.419  -0.414  -0.410  -0.410  -0.409
 -0.408  -0.408  -0.406  -0.405  -0.405  -0.404  -0.401  -0.398
 -0.396  -0.394  -0.392  -0.390  -0.388  -0.384  -0.380  -0.380
 -0.374  -0.369  -0.367  -0.365  -0.360  -0.358  -0.351  -0.349
 -0.337  -0.331  -0.316  -0.310  -0.309  -0.308  -0.298  -0.296
 -0.296  -0.294  -0.289  -0.282  -0.279  -0.278  -0.276  -0.273
 -0.270  -0.250  -0.236  -0.186

          Ground-State Mulliken Net Atomic Charges

     Atom                 Charge (a.u.)
  ----------------------------------------
      1 S                     0.127837
      2 C                    -0.204423
      3 C                    -0.264217
      4 H                     0.259873
      5 C                    -0.259002
      6 H                     0.249432
      7 C                    -0.245796
      8 H                     0.248622
      9 C                    -0.316043
     10 H                     0.269788
     11 C                     0.417477
     12 N                    -0.706358
     13 C                     0.415360
     14 C                    -0.313322
     15 H                     0.269617
     16 C                    -0.246890
     17 H                     0.247989
     18 C                    -0.258577
     19 H                     0.249378
     20 C                    -0.264007
     21 H                     0.260160
     22 C                    -0.203111
     23 C                     0.217014
     24 C                    -0.315848
     25 H                     0.244693
     26 C                    -0.329708
     27 H                     0.257897
     28 C                     0.030875
     29 C                     0.047465
     30 C                    -0.212710
     31 C                    -0.769774
     32 H                     0.257656
     33 H                     0.247862
     34 H                     0.248568
     35 C                    -0.548436
     36 H                     0.250021
     37 H                     0.247716
     38 C                    -0.654211
     39 H                     0.228787
     40 H                     0.233022
     41 H                     0.227387
     42 B                     0.663294
     43 C                    -0.151876
     44 C                    -0.401964
     45 H                     0.243940
     46 C                     0.080505
     47 C                     0.095307
     48 C                    -0.396296
     49 H                     0.260720
     50 C                    -0.152583
     51 C                     0.179943
     52 C                    -0.391333
     53 H                     0.248612
     54 C                    -0.068704
     55 C                     0.220733
     56 C                     0.178771
     57 C                    -0.396919
     58 H                     0.264712
     59 C                    -0.231816
     60 H                     0.257711
     61 C                    -0.344105
     62 H                     0.255888
     63 C                    -0.231836
     64 H                     0.262995
     65 C                    -0.346483
     66 H                     0.256222
     67 B                     0.659596
     68 C                    -0.147151
     69 C                    -0.406931
     70 H                     0.255441
     71 C                     0.096761
     72 C                     0.079442
     73 C                    -0.394254
     74 H                     0.243139
     75 C                    -0.160161
     76 C                     0.176572
     77 C                    -0.386991
     78 H                     0.249122
     79 C                    -0.067934
     80 C                     0.222250
     81 C                     0.179026
     82 C                    -0.394767
     83 H                     0.256620
     84 C                    -0.232909
     85 H                     0.258106
     86 C                    -0.343653
     87 H                     0.255826
     88 C                    -0.230077
     89 H                     0.261403
     90 C                    -0.347861
     91 H                     0.256252
     92 C                    -0.209115
     93 C                     0.050643
     94 C                    -0.287997
     95 H                     0.255244
     96 C                     0.147657
     97 C                    -0.289901
     98 H                     0.258352
     99 C                     0.025291
    100 N                    -0.714872
    101 C                     0.448749
    102 C                     0.443687
    103 C                    -0.218684
    104 C                    -0.256412
    105 H                     0.258083
    106 C                    -0.259427
    107 H                     0.241378
    108 C                    -0.245634
    109 H                     0.238746
    110 C                    -0.321166
    111 H                     0.264945
    112 C                    -0.216491
    113 C                    -0.256636
    114 H                     0.258258
    115 C                    -0.258500
    116 H                     0.240816
    117 C                    -0.247234
    118 H                     0.235562
    119 C                    -0.320089
    120 H                     0.267269
    121 C                    -0.771349
    122 H                     0.261385
    123 H                     0.243659
    124 H                     0.243138
    125 C                    -0.549416
    126 H                     0.242417
    127 H                     0.251169
    128 C                    -0.659923
    129 H                     0.230426
    130 H                     0.228113
    131 H                     0.231849
    132 S                     0.181639
  ----------------------------------------
  Sum of atomic charges =    -0.000000

                    Cartesian Multipole Moments
 -----------------------------------------------------------------
    Charge (ESU x 10^10)
                -0.0000
    Dipole Moment (Debye)
         X      -1.4055      Y       0.3918      Z       0.8443
       Tot       1.6857
    Quadrupole Moments (Debye-Ang)
        XX    -432.6871     XY     -21.5500     YY    -467.6420
        XZ      38.3000     YZ     -31.3977     ZZ    -414.9240

 Total job time:  25017.99s(wall), 74361.69s(cpu)
        *  Thank you very much for using Q-Chem.  Have a nice day.  *
