 Q-Chem 5.0, Q-Chem, Inc., Pleasanton, CA (2017)
 Q-Chem 5.0.1 for Intel X86 EM64T Linux

User input:
--------------------------------------------------------------
$solvent
dielectric      2.03
dielectric_infi 2.02
$end

$rem
threads 8
jobtype	sp
method PBEh-3c
basis def2-mSVP
mem_static	1024
mem_total	14000
sym_ignore	true
cis_n_roots             2
cis_singlets            true
cis_triplets		false
rpa                     false
calc_soc 		true
cis_moments             true
cis_relaxed_density	true
solvent_method		pcm
$end

$pcm
StateSpecific   1
ChargeSeparation Excited
$end

$molecule
read moms1opt_chx.mol
$end

--------------------------------------------------------------

   15   -3799.4378498269      5.99E-09 Convergence criterion met
 Total energy in the final basis set = -3799.43784983
 Total job time:  17975.59s(wall), 32936.40s(cpu)
        *  Thank you very much for using Q-Chem.  Have a nice day.  *
 Q-Chem 5.0, Q-Chem, Inc., Pleasanton, CA (2017)
 Q-Chem 5.0.1 for Intel X86 EM64T Linux

User input:
--------------------------------------------------------------
$rem
threads 8
jobtype sp
method PBEh-3c
basis def2-mSVP
mem_static      1024
mem_total       14000
sym_ignore      true
cis_n_roots             6
cis_singlets            true
cis_triplets            true
rpa                     false
calc_soc                true
cis_moments             true
cis_relaxed_density     true
solvent_method          pcm
$end

$molecule
read
$end

$pcm
statespecific           Marcus
$end

$solvent
dielectric      2.03
dielectric_infi 2.02
$end

--------------------------------------------------------------

             Standard Nuclear Orientation (Angstroms)
    I     Atom           X                Y                Z
 ----------------------------------------------------------------
    1      S       0.0000000000     0.0000000000     0.0000000000
    2      C       0.0000000000     0.0000000000     1.7578020000
    3      C       1.2101929110     0.0000000000     2.4331224336
    4      H       2.1274035712     0.1201583174     1.8698928461
    5      C       1.2499144008    -0.1836721138     3.8065380542
    6      H       2.1983269608    -0.2048547564     4.3260505055
    7      C       0.0590112928    -0.3496640060     4.4922195083
    8      H       0.0641925039    -0.5064265832     5.5629645233
    9      C      -1.1575449740    -0.3043961283     3.8276167705
   10      H      -2.0681820097    -0.4287740569     4.3951440713
   11      C      -1.2126214477    -0.1200786484     2.4456646890
   12      N      -2.4286360311    -0.0658937225     1.7523636018
   13      C      -2.5718338940     0.7133540982     0.5955991725
   14      C      -3.7824612926     1.3185913702     0.2581432012
   15      H      -4.6513621464     1.1775880406     0.8843442585
   16      C      -3.8934857021     2.0958494891    -0.8851604271
   17      H      -4.8495671668     2.5439373553    -1.1218514143
   18      C      -2.7997348641     2.3128517786    -1.7058331177
   19      H      -2.8822022710     2.9305632013    -2.5897766512
   20      C      -1.5905274055     1.7180352128    -1.3815806950
   21      H      -0.7212882419     1.8652311606    -2.0106205314
   22      C      -1.4840603358     0.9061500820    -0.2637381219
   23      C      -3.6157349057    -0.4509546454     2.4457262053
   24      C      -4.1460467904    -1.7051625289     2.2248024169
   25      H      -3.6410345178    -2.3764691383     1.5383743240
   26      C      -4.2495892434     0.4217624948     3.3205249291
   27      H      -3.8270339929     1.4069898566     3.4889917116
   28      C      -5.4200551570     0.0446496883     3.9635914268
   29      C      -5.3222574699    -2.0990685678     2.8610767552
   30      C      -5.9794092371    -1.2247694798     3.7332702157
   31      C      -6.0929753732     1.0078445981     4.9003390755
   32      H      -5.5545816555     1.9541227612     4.9545230885
   33      H      -6.1558668979     0.5989389046     5.9105009355
   34      H      -7.1155969511     1.2216333114     4.5833576745
   35      C      -5.8339459505    -3.4929757049     2.6060269726
   36      H      -6.8986706095    -3.5526178800     2.8408074830
   37      H      -5.7425270296    -3.7252017850     1.5411683236
   38      C      -5.0748325708    -4.5406624545     3.4168935699
   39      H      -5.1869364099    -4.3633394929     4.4865065170
   40      H      -5.4459680114    -5.5442070233     3.2048764791
   41      H      -4.0086070667    -4.5231684291     3.1856439915
   42      B      -7.3479775055    -1.6172409265     4.4302604394
   43      C      -7.3652097926    -2.2574916793     5.8213852818
   44      C      -6.1579190451    -2.5483257489     6.4851615545
   45      H      -5.2152285068    -2.3019628678     6.0055726972
   46      C      -6.1622863988    -3.1427379089     7.7222506379
   47      C      -7.3982137609    -3.4676130668     8.3565948690
   48      C      -8.5851317549    -3.1867045302     7.7278935281
   49      H      -9.5207416205    -3.4395483386     8.2165091738
   50      C      -8.6070945854    -2.5761298952     6.4543670564
   51      C      -5.0741175074    -3.5586702927     8.6007971744
   52      C      -3.7017003726    -3.5198727774     8.5443815013
   53      H      -3.1758724107    -3.1025827945     7.6941819651
   54      C      -5.6829679524    -4.1203216533     9.7423112910
   55      C      -4.9794224104    -4.6404295155    10.8262839383
   56      C      -7.0896316253    -4.0863439583     9.6454491686
   57      C      -7.8207716477    -4.5932380383    10.6917222008
   58      H      -8.9042255580    -4.5892685601    10.6829121783
   59      C      -2.9637190360    -4.0434276718     9.6306658919
   60      H      -1.8822795033    -4.0123575463     9.5820617076
   61      C      -3.5658382291    -4.5884136273    10.7418126996
   62      H      -2.9583538023    -4.9773296551    11.5501655844
   63      C      -7.1343360795    -5.1262531250    11.8070675829
   64      H      -7.7138843111    -5.5239294532    12.6309221991
   65      C      -5.7606308452    -5.1580589093    11.8871490746
   66      H      -5.2773891934    -5.5769169314    12.7616946858
   67      B      -9.9303490639    -2.2586959853     5.7461875905
   68      C      -9.9258746802    -1.6415371841     4.3444125737
   69      C     -11.1264811039    -1.3745493480     3.6485995858
   70      H     -12.0762338387    -1.5995775058     4.1250511608
   71      C     -11.1065383003    -0.8390705505     2.3829896009
   72      C      -9.8579941201    -0.5402689524     1.7631494605
   73      C      -8.6791678383    -0.7831078092     2.4225077761
   74      H      -7.7321330147    -0.5545007176     1.9435076315
   75      C      -8.6787974541    -1.3369844966     3.7152887708
   76      C     -10.1192585834    -0.0006845555     0.4363695169
   77      C      -9.3382261009     0.4413605459    -0.6026728513
   78      H      -8.2563445686     0.4432682353    -0.5437424690
   79      C     -11.5208081627     0.0175532115     0.2866096893
   80      C     -12.1742302605     0.4598778872    -0.8595261218
   81      C     -12.1665842593    -0.4811643591     1.4379952264
   82      C     -13.5377194674    -0.5352678744     1.4343756001
   83      H     -14.0947383610    -0.9116191896     2.2835873468
   84      C      -9.9774836793     0.8985111985    -1.7774659878
   85      H      -9.3625082203     1.2465370346    -2.5980075610
   86      C     -11.3468343491     0.9145688923    -1.9168510805
   87      H     -11.7912940365     1.2725173435    -2.8375493998
   88      C     -14.2317374916    -0.0889347878     0.2851400480
   89      H     -15.3135484047    -0.1333424029     0.2866255690
   90      C     -13.5882460992     0.3948722556    -0.8314853833
   91      H     -14.1637076016     0.7229588826    -1.6885767568
   92      C     -11.2797514066    -2.6331909052     6.4965143578
   93      C     -11.7983080261    -1.8149320310     7.5126375352
   94      C     -12.8993773908    -2.2323044308     8.2547300548
   95      H     -13.2833679145    -1.6177119815     9.0611967914
   96      C     -13.4769014428    -3.4551773754     7.9748348794
   97      C     -13.0077639189    -4.2684028470     6.9609570172
   98      H     -13.4749089996    -5.2280149385     6.7709407259
   99      C     -11.9061921561    -3.8593511123     6.2176044129
  100      N     -14.5516371648    -3.9288409784     8.8065569892
  101      C     -15.8311613554    -3.5456592343     8.4770401339
  102      C     -14.2038450453    -4.7295046580     9.8718663439
  103      C     -16.9494512429    -3.9240859037     9.2440981833
  104      C     -18.2310595087    -3.4979713386     8.8849759464
  105      H     -19.0789092671    -3.7956264710     9.4887656267
  106      C     -18.4119367229    -2.7095846041     7.7750538159
  107      H     -19.4051449800    -2.3819042359     7.5026754368
  108      C     -17.3083435358    -2.3384316807     6.9998210700
  109      H     -17.4459070034    -1.7234711149     6.1214865068
  110      C     -16.0438239743    -2.7452947726     7.3378896768
  111      H     -15.2045364425    -2.4490234900     6.7265484170
  112      C     -15.1592598177    -5.2496961455    10.7660522435
  113      C     -14.7671149957    -6.0685602822    11.8290174570
  114      H     -15.5175445273    -6.4594098739    12.5043722147
  115      C     -13.4412914780    -6.3727059731    12.0164606434
  116      H     -13.1434192981    -7.0076848347    12.8389521766
  117      C     -12.4820456510    -5.8533776788    11.1409901921
  118      H     -11.4355196258    -6.0853866694    11.2842817398
  119      C     -12.8481644052    -5.0486273244    10.0935214361
  120      H     -12.0850504391    -4.6631409102     9.4350265259
  121      C     -11.3598963575    -4.7578950433     5.1452796903
  122      H     -11.9136775403    -5.6944215426     5.0817582148
  123      H     -11.3958262213    -4.2765105374     4.1672894619
  124      H     -10.3114029568    -4.9951682127     5.3335596041
  125      C     -11.1709627832    -0.4814913504     7.8219756782
  126      H     -10.0838592330    -0.5707212457     7.7751046260
  127      H     -11.4132595923    -0.1919968518     8.8479002100
  128      C     -11.6271140265     0.6162070939     6.8632414651
  129      H     -11.3357799643     0.3898825621     5.8382024782
  130      H     -11.1752677765     1.5718140270     7.1304208435
  131      H     -12.7110604567     0.7395891272     6.8874283242
  132      S     -16.8413819179    -4.9175357152    10.6441428121
 ----------------------------------------------------------------

   15   -3799.4377466421      6.01E-09 Convergence criterion met
 Total energy in the final basis set = -3799.43774664

         TDDFT/TDA Excitation Energies
 ---------------------------------------------------

 Excited state   1: excitation energy (eV) =    2.0072
 Total energy for state  1:                 -3799.36398300 au
    Multiplicity: Triplet
    Trans. Mom.:  0.0000 X   0.0000 Y   0.0000 Z
    Strength   :     0.0000000000
    D(276) --> V(  1) amplitude =  0.9983

 Excited state   2: excitation energy (eV) =    2.0076
 Total energy for state  2:                 -3799.36396999 au
    Multiplicity: Singlet
    Trans. Mom.:  0.0487 X   0.0186 Y  -0.0337 Z
    Strength   :     0.0001893853
    D(276) --> V(  1) amplitude =  0.9983

 Excited state   3: excitation energy (eV) =    2.1851
 Total energy for state  3:                 -3799.35744392 au
    Multiplicity: Triplet
    Trans. Mom.:  0.0000 X   0.0000 Y   0.0000 Z
    Strength   :     0.0000000000
    D(273) --> V(  1) amplitude =  0.8830
    D(274) --> V(  1) amplitude =  0.2716

 Excited state   4: excitation energy (eV) =    2.4034
 Total energy for state  4:                 -3799.34942406 au
    Multiplicity: Triplet
    Trans. Mom.:  0.0000 X   0.0000 Y   0.0000 Z
    Strength   :     0.0000000000
    D(271) --> V(  2) amplitude = -0.4578
    D(273) --> V(  1) amplitude = -0.2500
    D(274) --> V(  1) amplitude =  0.7800

 Excited state   5: excitation energy (eV) =    2.4697
 Total energy for state  5:                 -3799.34698511 au
    Multiplicity: Triplet
    Trans. Mom.:  0.0000 X   0.0000 Y   0.0000 Z
    Strength   :     0.0000000000
    D(271) --> V(  1) amplitude =  0.7508
    D(271) --> V(  4) amplitude =  0.2338
    D(274) --> V(  2) amplitude = -0.5291

 Excited state   6: excitation energy (eV) =    2.6414
 Total energy for state  6:                 -3799.34067857 au
    Multiplicity: Triplet
    Trans. Mom.:  0.0000 X   0.0000 Y   0.0000 Z
    Strength   :     0.0000000000
    D(275) --> V(  1) amplitude =  0.9973

 Excited state   7: excitation energy (eV) =    2.6417
 Total energy for state  7:                 -3799.34066621 au
    Multiplicity: Singlet
    Trans. Mom.: -0.0103 X   0.0006 Y   0.0046 Z
    Strength   :     0.0000082905
    D(275) --> V(  1) amplitude =  0.9981

 Excited state   8: excitation energy (eV) =    2.6521
 Total energy for state  8:                 -3799.34028281 au
    Multiplicity: Triplet
    Trans. Mom.:  0.0000 X   0.0000 Y   0.0000 Z
    Strength   :     0.0000000000
    D(276) --> V(  5) amplitude =  0.3678
    D(276) --> V(  6) amplitude =  0.8407
    D(276) --> V( 11) amplitude = -0.2186

 Excited state   9: excitation energy (eV) =    2.8364
 Total energy for state  9:                 -3799.33350954 au
    Multiplicity: Singlet
    Trans. Mom.:  0.1350 X  -0.0832 Y   0.2048 Z
    Strength   :     0.0046608502
    D(273) --> V(  1) amplitude =  0.9319
    D(274) --> V(  1) amplitude =  0.2677

 Excited state  10: excitation energy (eV) =    3.0805
 Total energy for state 10:                 -3799.32454040 au
    Multiplicity: Singlet
    Trans. Mom.:  1.9611 X  -1.4049 Y   3.2403 Z
    Strength   :     1.2316092779
    D(273) --> V(  1) amplitude = -0.2648
    D(274) --> V(  1) amplitude =  0.9225

 Excited state  11: excitation energy (eV) =    3.1182
 Total energy for state 11:                 -3799.32315381 au
    Multiplicity: Singlet
    Trans. Mom.: -0.0225 X   0.0084 Y  -0.0189 Z
    Strength   :     0.0000713304
    D(276) --> V(  2) amplitude =  0.9973

 Excited state  12: excitation energy (eV) =    3.3643
 Total energy for state 12:                 -3799.31411088 au
    Multiplicity: Singlet
    Trans. Mom.:  0.0006 X  -0.0785 Y   0.1434 Z
    Strength   :     0.0022022664
    D(271) --> V(  1) amplitude =  0.3808
    D(276) --> V(  5) amplitude =  0.3484
    D(276) --> V(  6) amplitude =  0.7746

 ---------------------------------------------------

                    Orbital Energies (a.u.)
 --------------------------------------------------------------

 Alpha MOs
 -- Occupied --
-89.597 -89.597 -14.685 -14.684 -10.507 -10.506 -10.504 -10.504
-10.490 -10.489 -10.484 -10.484 -10.482 -10.482 -10.472 -10.472
-10.471 -10.471 -10.470 -10.470 -10.470 -10.470 -10.470 -10.470
-10.468 -10.468 -10.467 -10.467 -10.467 -10.466 -10.466 -10.466
-10.464 -10.464 -10.464 -10.463 -10.463 -10.463 -10.463 -10.462
-10.462 -10.461 -10.461 -10.460 -10.455 -10.454 -10.454 -10.454
-10.453 -10.453 -10.451 -10.450 -10.449 -10.449 -10.448 -10.448
-10.448 -10.447 -10.447 -10.447 -10.447 -10.446 -10.446 -10.445
-10.445 -10.444 -10.443 -10.443 -10.443 -10.442 -10.441 -10.440
-10.437 -10.437 -10.434 -10.433 -10.425 -10.425  -8.239  -8.237
 -6.956  -6.955  -6.130  -6.128  -6.126  -6.125  -6.121  -6.119
 -1.100  -1.093  -1.022  -1.021  -0.979  -0.978  -0.970  -0.969
 -0.968  -0.965  -0.957  -0.955  -0.938  -0.938  -0.915  -0.907
 -0.905  -0.903  -0.892  -0.891  -0.869  -0.864  -0.862  -0.862
 -0.859  -0.859  -0.852  -0.851  -0.847  -0.846  -0.830  -0.823
 -0.823  -0.821  -0.818  -0.812  -0.811  -0.810  -0.776  -0.776
 -0.768  -0.765  -0.742  -0.738  -0.732  -0.726  -0.724  -0.722
 -0.722  -0.715  -0.714  -0.713  -0.694  -0.687  -0.685  -0.682
 -0.680  -0.673  -0.660  -0.653  -0.652  -0.651  -0.646  -0.645
 -0.635  -0.632  -0.625  -0.619  -0.602  -0.601  -0.596  -0.593
 -0.591  -0.591  -0.588  -0.581  -0.581  -0.563  -0.562  -0.559
 -0.554  -0.549  -0.547  -0.547  -0.540  -0.537  -0.533  -0.532
 -0.530  -0.528  -0.527  -0.521  -0.516  -0.515  -0.509  -0.507
 -0.504  -0.501  -0.500  -0.500  -0.499  -0.498  -0.498  -0.497
 -0.496  -0.491  -0.490  -0.490  -0.486  -0.484  -0.483  -0.483
 -0.482  -0.480  -0.479  -0.478  -0.476  -0.473  -0.471  -0.470
 -0.464  -0.460  -0.454  -0.451  -0.448  -0.446  -0.445  -0.444
 -0.442  -0.440  -0.436  -0.435  -0.433  -0.432  -0.431  -0.429
 -0.427  -0.426  -0.425  -0.418  -0.418  -0.417  -0.405  -0.403
 -0.403  -0.402  -0.401  -0.400  -0.400  -0.398  -0.398  -0.396
 -0.393  -0.391  -0.390  -0.387  -0.386  -0.383  -0.381  -0.378
 -0.375  -0.371  -0.366  -0.365  -0.360  -0.356  -0.349  -0.346
 -0.328  -0.322  -0.311  -0.307  -0.305  -0.301  -0.301  -0.300
 -0.289  -0.287  -0.285  -0.285  -0.284  -0.270  -0.268  -0.267
 -0.263  -0.261  -0.226  -0.203

          Ground-State Mulliken Net Atomic Charges

     Atom                 Charge (a.u.)
  ----------------------------------------
      1 S                     0.132696
      2 C                    -0.200001
      3 C                    -0.258021
      4 H                     0.248678
      5 C                    -0.249961
      6 H                     0.236994
      7 C                    -0.237547
      8 H                     0.236637
      9 C                    -0.310198
     10 H                     0.265609
     11 C                     0.421774
     12 N                    -0.707761
     13 C                     0.419450
     14 C                    -0.307348
     15 H                     0.265764
     16 C                    -0.239001
     17 H                     0.236471
     18 C                    -0.249467
     19 H                     0.237002
     20 C                    -0.257887
     21 H                     0.248937
     22 C                    -0.198483
     23 C                     0.215889
     24 C                    -0.309124
     25 H                     0.237438
     26 C                    -0.328148
     27 H                     0.249996
     28 C                     0.035700
     29 C                     0.053461
     30 C                    -0.214653
     31 C                    -0.767414
     32 H                     0.250193
     33 H                     0.248985
     34 H                     0.250051
     35 C                    -0.548937
     36 H                     0.253093
     37 H                     0.242883
     38 C                    -0.650236
     39 H                     0.233442
     40 H                     0.227613
     41 H                     0.223789
     42 B                     0.678935
     43 C                    -0.148624
     44 C                    -0.399088
     45 H                     0.241636
     46 C                     0.089377
     47 C                     0.104500
     48 C                    -0.390799
     49 H                     0.243220
     50 C                    -0.150326
     51 C                     0.188224
     52 C                    -0.385307
     53 H                     0.239127
     54 C                    -0.067717
     55 C                     0.233492
     56 C                     0.188763
     57 C                    -0.391864
     58 H                     0.241574
     59 C                    -0.221083
     60 H                     0.246652
     61 C                    -0.338956
     62 H                     0.243260
     63 C                    -0.220479
     64 H                     0.246242
     65 C                    -0.341599
     66 H                     0.243318
     67 B                     0.666893
     68 C                    -0.145246
     69 C                    -0.405486
     70 H                     0.241630
     71 C                     0.105336
     72 C                     0.088063
     73 C                    -0.387383
     74 H                     0.239143
     75 C                    -0.158151
     76 C                     0.184972
     77 C                    -0.381408
     78 H                     0.239666
     79 C                    -0.066354
     80 C                     0.234677
     81 C                     0.187740
     82 C                    -0.390501
     83 H                     0.238615
     84 C                    -0.222544
     85 H                     0.246778
     86 C                    -0.338505
     87 H                     0.243000
     88 C                    -0.219426
     89 H                     0.246437
     90 C                    -0.343124
     91 H                     0.243162
     92 C                    -0.202987
     93 C                     0.055073
     94 C                    -0.290405
     95 H                     0.243118
     96 C                     0.145378
     97 C                    -0.292969
     98 H                     0.245918
     99 C                     0.026083
    100 N                    -0.713650
    101 C                     0.442872
    102 C                     0.437213
    103 C                    -0.218092
    104 C                    -0.253405
    105 H                     0.247326
    106 C                    -0.254164
    107 H                     0.234322
    108 C                    -0.240011
    109 H                     0.234236
    110 C                    -0.316953
    111 H                     0.269129
    112 C                    -0.216166
    113 C                    -0.253458
    114 H                     0.247477
    115 C                    -0.253176
    116 H                     0.234065
    117 C                    -0.241733
    118 H                     0.232614
    119 C                    -0.315314
    120 H                     0.272259
    121 C                    -0.768273
    122 H                     0.250875
    123 H                     0.250878
    124 H                     0.250860
    125 C                    -0.549526
    126 H                     0.253230
    127 H                     0.242150
    128 C                    -0.656173
    129 H                     0.241049
    130 H                     0.227715
    131 H                     0.222761
    132 S                     0.171039
  ----------------------------------------
  Sum of atomic charges =    -0.000000

                    Cartesian Multipole Moments
 -----------------------------------------------------------------
    Charge (ESU x 10^10)
                -0.0000
    Dipole Moment (Debye)
         X       0.3334      Y       0.9420      Z      -0.3704
       Tot       1.0657
    Quadrupole Moments (Debye-Ang)
        XX    -479.7224     XY     -33.3396     YY    -475.1220
        XZ      63.0051     YZ     -18.9965     ZZ    -437.8309

 Total job time:  24700.31s(wall), 71707.70s(cpu)
        *  Thank you very much for using Q-Chem.  Have a nice day.  *
