 Q-Chem 5.0, Q-Chem, Inc., Pleasanton, CA (2017)
 Q-Chem 5.0.1 for Intel X86 EM64T Linux

User input:
--------------------------------------------------------------
$solvent
dielectric      2.38
dielectric_infi 2.25
$end

$rem
threads 8
jobtype	sp
method PBEh-3c
basis def2-mSVP
mem_static	1024
mem_total	14000
sym_ignore	true
cis_n_roots             2
cis_singlets            true
cis_triplets		false
rpa                     false
calc_soc 		true
cis_moments             true
cis_relaxed_density	true
solvent_method		pcm
$end

$pcm
StateSpecific   1
ChargeSeparation Excited
$end

$molecule
read moms1opt_tol.mol
$end

--------------------------------------------------------------

   15   -3799.4411459441      5.64E-09 Convergence criterion met
 Total energy in the final basis set = -3799.44114594
 Q-Chem 5.0, Q-Chem, Inc., Pleasanton, CA (2017)
 Q-Chem 5.0.1 for Intel X86 EM64T Linux

User input:
--------------------------------------------------------------
$rem
threads 8
jobtype sp
method PBEh-3c
basis def2-mSVP
mem_static      1024
mem_total       14000
sym_ignore      true
cis_n_roots             6
cis_singlets            true
cis_triplets            true
rpa                     false
calc_soc                true
cis_moments             true
cis_relaxed_density     true
solvent_method          pcm
$end

$molecule
read
$end

$pcm
statespecific           Marcus
$end

$solvent
dielectric      2.38
dielectric_infi 2.25
$end

--------------------------------------------------------------

             Standard Nuclear Orientation (Angstroms)
    I     Atom           X                Y                Z
 ----------------------------------------------------------------
    1      S       0.0000000000     0.0000000000     0.0000000000
    2      C       0.0000000000     0.0000000000     1.7579560000
    3      C       1.2102898426     0.0000000000     2.4333099975
    4      H       2.1277340628     0.1196609698     1.8703088204
    5      C       1.2497413319    -0.1833209262     3.8068650993
    6      H       2.1981066937    -0.2045633858     4.3264841607
    7      C       0.0586325928    -0.3489489242     4.4925155909
    8      H       0.0636404661    -0.5053536934     5.5633238606
    9      C      -1.1579187751    -0.3038033009     3.8276931648
   10      H      -2.0684695392    -0.4277406579     4.3954894682
   11      C      -1.2127993590    -0.1200307668     2.4455920664
   12      N      -2.4286845184    -0.0666538144     1.7518297172
   13      C      -2.5719711202     0.7130939731     0.5953465531
   14      C      -3.7826828774     1.3182834376     0.2578222680
   15      H      -4.6518300201     1.1773974656     0.8837337572
   16      C      -3.8936679519     2.0957090687    -0.8854889612
   17      H      -4.8497986351     2.5436750039    -1.1222484958
   18      C      -2.7997790152     2.3129267287    -1.7061146302
   19      H      -2.8822527159     2.9306602999    -2.5900543340
   20      C      -1.5904411391     1.7181530881    -1.3818808483
   21      H      -0.7213438596     1.8653487883    -2.0111580659
   22      C      -1.4841497982     0.9062120647    -0.2639456267
   23      C      -3.6157842316    -0.4526825404     2.4448565084
   24      C      -4.1447804347    -1.7074519691     2.2238422339
   25      H      -3.6391390647    -2.3785527991     1.5376176012
   26      C      -4.2505151015     0.4195045930     3.3196308205
   27      H      -3.8288928412     1.4050731375     3.4884906073
   28      C      -5.4207753070     0.0412272560     3.9624696955
   29      C      -5.3206159463    -2.1026153950     2.8602778996
   30      C      -5.9789940819    -1.2287787607     3.7320932642
   31      C      -6.0942833707     1.0037491532     4.8995074560
   32      H      -5.5554604213     1.9496722929     4.9553957939
   33      H      -6.1585290361     0.5937182858     5.9091451669
   34      H      -7.1164824160     1.2185300207     4.5817831133
   35      C      -5.8300615882    -3.4974416822     2.6053617000
   36      H      -6.8923619091    -3.5613713990     2.8496273556
   37      H      -5.7475118919    -3.7261739999     1.5390203144
   38      C      -5.0604127124    -4.5453964444     3.4059455080
   39      H      -5.1613904190    -4.3706138305     4.4771397028
   40      H      -5.4319805617    -5.5491034115     3.1955533652
   41      H      -3.9967342417    -4.5255119150     3.1633572768
   42      B      -7.3471113626    -1.6233504088     4.4290878709
   43      C      -7.3630482175    -2.2699530761     5.8172750412
   44      C      -6.1549502064    -2.5634155474     6.4787037146
   45      H      -5.2125797990    -2.3136058307     6.0002655714
   46      C      -6.1580879221    -3.1648525895     7.7124176540
   47      C      -7.3933437105    -3.4951659982     8.3455414920
   48      C      -8.5811490038    -3.2107958348     7.7195716370
   49      H      -9.5163948342    -3.4667873272     8.2071441669
   50      C      -8.6042680391    -2.5925031682     6.4498215378
   51      C      -5.0687109634    -3.5841021870     8.5880932256
   52      C      -3.6963023242    -3.5421362553     8.5314253545
   53      H      -3.1714678054    -3.1186332570     7.6836455118
   54      C      -5.6762669314    -4.1536182594     9.7264168775
   55      C      -4.9713163060    -4.6790031229    10.8070448903
   56      C      -7.0831166262    -4.1216986658     9.6303216400
   57      C      -7.8131165115    -4.6370718022    10.6733511405
   58      H      -8.8965328773    -4.6365526643    10.6645793034
   59      C      -2.9569225504    -4.0707082412     9.6144752939
   60      H      -1.8755519465    -4.0371392123     9.5657986726
   61      C      -3.5577722678    -4.6236070420    10.7225556511
   62      H      -2.9493451362    -5.0162300662    11.5284224598
   63      C      -7.1250902641    -5.1757528144    11.7851687645
   64      H      -7.7037629699    -5.5803457405    12.6062282615
   65      C      -5.7511991553    -5.2049190011    11.8649393551
   66      H      -5.2668477511    -5.6282902971    12.7367032912
   67      B      -9.9292222986    -2.2701178120     5.7461527254
   68      C      -9.9252413616    -1.6475298620     4.3463073597
   69      C     -11.1266421717    -1.3781911567     3.6527936089
   70      H     -12.0757728284    -1.6052528358     4.1294083219
   71      C     -11.1082093636    -0.8381943434     2.3889317053
   72      C      -9.8602450383    -0.5368423442     1.7686595559
   73      C      -8.6806162183    -0.7820472769     2.4257905694
   74      H      -7.7342572794    -0.5517019723     1.9462060996
   75      C      -8.6786961426    -1.3406451562     3.7167453477
   76      C     -10.1231496146     0.0075055945     0.4440799088
   77      C      -9.3433267175     0.4536902372    -0.5942943462
   78      H      -8.2613546535     0.4560195005    -0.5365756442
   79      C     -11.5249553810     0.0256966158     0.2960348515
   80      C     -12.1798626278     0.4717945376    -0.8479187254
   81      C     -12.1693906804    -0.4773582519     1.4463946226
   82      C     -13.5406517660    -0.5321688499     1.4440895033
   83      H     -14.0967245730    -0.9117838153     2.2924695057
   84      C      -9.9841563901     0.9147599641    -1.7667934194
   85      H      -9.3702566315     1.2660682050    -2.5867560409
   86      C     -11.3538159552     0.9306205330    -1.9046190352
   87      H     -11.7995214439     1.2915896809    -2.8235481900
   88      C     -14.2360358534    -0.0820809046     0.2970230816
   89      H     -15.3178123095    -0.1270810536     0.2995641373
   90      C     -13.5939315022     0.4060056355    -0.8187020206
   91      H     -14.1704199330     0.7368141356    -1.6740603605
   92      C     -11.2785915218    -2.6410601909     6.4982466170
   93      C     -11.7933838011    -1.8206214706     7.5144322070
   94      C     -12.8975684009    -2.2321532562     8.2552318307
   95      H     -13.2795871796    -1.6154936975     9.0610217910
   96      C     -13.4817769448    -3.4515951991     7.9745074941
   97      C     -13.0152511376    -4.2674315876     6.9615606633
   98      H     -13.4876051723    -5.2243259828     6.7709341202
   99      C     -11.9106062990    -3.8643071568     6.2194490816
  100      N     -14.5621023115    -3.9179597917     8.8028636815
  101      C     -15.8383261165    -3.5284658938     8.4676470478
  102      C     -14.2227844397    -4.7187782950     9.8708340623
  103      C     -16.9614873385    -3.9002126811     9.2309477422
  104      C     -18.2398441254    -3.4685467896     8.8664244447
  105      H     -19.0913276693    -3.7612948554     9.4675061942
  106      C     -18.4127805702    -2.6808695063     7.7548084923
  107      H     -19.4033408432    -2.3488139416     7.4781239553
  108      C     -17.3042886074    -2.3159483856     6.9834900060
  109      H     -17.4354733807    -1.7013458889     6.1039064598
  110      C     -16.0429389640    -2.7283680434     7.3269250842
  111      H     -15.2005972457    -2.4361471480     6.7178727741
  112      C     -15.1845069860    -5.2320781631    10.7622236813
  113      C     -14.8012970156    -6.0510759368    11.8285156251
  114      H     -15.5567585634    -6.4361791635    12.5015703110
  115      C     -13.4780338256    -6.3622930987    12.0219094901
  116      H     -13.1869219478    -6.9972214661    12.8468529244
  117      C     -12.5125798492    -5.8501720338    11.1489348974
  118      H     -11.4679716249    -6.0878686701    11.2968317894
  119      C     -12.8699919025    -5.0455295951    10.0982998456
  120      H     -12.1017322039    -4.6663416475     9.4421600667
  121      C     -11.3679674257    -4.7659910657     5.1477521984
  122      H     -11.9262045144    -5.6998445524     5.0846539162
  123      H     -11.4015098032    -4.2852614989     4.1692949082
  124      H     -10.3207664288    -5.0086141542     5.3365509596
  125      C     -11.1596329238    -0.4904161951     7.8251219075
  126      H     -10.0729748051    -0.5836208991     7.7749795486
  127      H     -11.3978868602    -0.2025511906     8.8523912595
  128      C     -11.6142703883     0.6117934745     6.8708691873
  129      H     -11.3272397586     0.3869563952     5.8442453656
  130      H     -11.1578742628     1.5649652513     7.1391706029
  131      H     -12.6976471350     0.7391822713     6.8988756007
  132      S     -16.8641048795    -4.8914220341    10.6330486004
 ----------------------------------------------------------------

   15   -3799.4400808362      5.74E-09 Convergence criterion met
 Total energy in the final basis set = -3799.44008084

         TDDFT/TDA Excitation Energies
 ---------------------------------------------------

 Excited state   1: excitation energy (eV) =    1.9785
 Total energy for state  1:                 -3799.36737104 au
    Multiplicity: Triplet
    Trans. Mom.:  0.0000 X   0.0000 Y   0.0000 Z
    Strength   :     0.0000000000
    D(276) --> V(  1) amplitude =  0.9983

 Excited state   2: excitation energy (eV) =    1.9789
 Total energy for state  2:                 -3799.36735860 au
    Multiplicity: Singlet
    Trans. Mom.:  0.0476 X   0.0181 Y  -0.0335 Z
    Strength   :     0.0001801438
    D(276) --> V(  1) amplitude =  0.9984

 Excited state   3: excitation energy (eV) =    2.1886
 Total energy for state  3:                 -3799.35965219 au
    Multiplicity: Triplet
    Trans. Mom.:  0.0000 X   0.0000 Y   0.0000 Z
    Strength   :     0.0000000000
    D(273) --> V(  1) amplitude =  0.8895
    D(274) --> V(  1) amplitude =  0.2489

 Excited state   4: excitation energy (eV) =    2.4033
 Total energy for state  4:                 -3799.35176019 au
    Multiplicity: Triplet
    Trans. Mom.:  0.0000 X   0.0000 Y   0.0000 Z
    Strength   :     0.0000000000
    D(271) --> V(  2) amplitude = -0.4583
    D(273) --> V(  1) amplitude = -0.2299
    D(274) --> V(  1) amplitude =  0.7866

 Excited state   5: excitation energy (eV) =    2.4699
 Total energy for state  5:                 -3799.34931486 au
    Multiplicity: Triplet
    Trans. Mom.:  0.0000 X   0.0000 Y   0.0000 Z
    Strength   :     0.0000000000
    D(271) --> V(  1) amplitude =  0.7526
    D(271) --> V(  4) amplitude =  0.2340
    D(274) --> V(  2) amplitude = -0.5309

 Excited state   6: excitation energy (eV) =    2.6531
 Total energy for state  6:                 -3799.34258139 au
    Multiplicity: Triplet
    Trans. Mom.:  0.0000 X   0.0000 Y   0.0000 Z
    Strength   :     0.0000000000
    D(276) --> V(  5) amplitude =  0.2468
    D(276) --> V(  6) amplitude =  0.8827

 Excited state   7: excitation energy (eV) =    2.6610
 Total energy for state  7:                 -3799.34229041 au
    Multiplicity: Triplet
    Trans. Mom.:  0.0000 X   0.0000 Y   0.0000 Z
    Strength   :     0.0000000000
    D(275) --> V(  1) amplitude =  0.9969

 Excited state   8: excitation energy (eV) =    2.6614
 Total energy for state  8:                 -3799.34227623 au
    Multiplicity: Singlet
    Trans. Mom.: -0.0102 X   0.0003 Y   0.0050 Z
    Strength   :     0.0000083416
    D(275) --> V(  1) amplitude =  0.9981

 Excited state   9: excitation energy (eV) =    2.8388
 Total energy for state  9:                 -3799.33575741 au
    Multiplicity: Singlet
    Trans. Mom.:  0.1348 X  -0.0832 Y   0.2045 Z
    Strength   :     0.0046532772
    D(273) --> V(  1) amplitude =  0.9381
    D(274) --> V(  1) amplitude =  0.2457

 Excited state  10: excitation energy (eV) =    3.0716
 Total energy for state 10:                 -3799.32720016 au
    Multiplicity: Singlet
    Trans. Mom.:  2.0003 X  -1.4443 Y   3.2868 Z
    Strength   :     1.2710762173
    D(273) --> V(  1) amplitude = -0.2430
    D(274) --> V(  1) amplitude =  0.9287

 Excited state  11: excitation energy (eV) =    3.0900
 Total energy for state 11:                 -3799.32652418 au
    Multiplicity: Singlet
    Trans. Mom.: -0.0363 X   0.0187 Y  -0.0431 Z
    Strength   :     0.0002670023
    D(276) --> V(  2) amplitude =  0.9974

 Excited state  12: excitation energy (eV) =    3.3513
 Total energy for state 12:                 -3799.31692099 au
    Multiplicity: Singlet
    Trans. Mom.:  0.2295 X  -0.0048 Y  -0.1654 Z
    Strength   :     0.0065702918
    D(269) --> V(  1) amplitude =  0.4770
    D(271) --> V(  1) amplitude = -0.7934

 ---------------------------------------------------

                    Orbital Energies (a.u.)
 --------------------------------------------------------------

 Alpha MOs
 -- Occupied --
-89.599 -89.597 -14.686 -14.683 -10.506 -10.505 -10.505 -10.505
-10.490 -10.489 -10.484 -10.483 -10.483 -10.483 -10.473 -10.472
-10.472 -10.471 -10.470 -10.470 -10.470 -10.470 -10.470 -10.470
-10.469 -10.468 -10.468 -10.467 -10.467 -10.467 -10.467 -10.466
-10.464 -10.464 -10.464 -10.463 -10.463 -10.463 -10.463 -10.463
-10.462 -10.461 -10.461 -10.461 -10.455 -10.455 -10.454 -10.454
-10.452 -10.452 -10.452 -10.451 -10.450 -10.450 -10.449 -10.448
-10.448 -10.448 -10.447 -10.446 -10.446 -10.446 -10.446 -10.445
-10.445 -10.445 -10.444 -10.444 -10.442 -10.441 -10.441 -10.440
-10.438 -10.437 -10.434 -10.433 -10.426 -10.425  -8.238  -8.238
 -6.956  -6.956  -6.129  -6.129  -6.126  -6.125  -6.120  -6.120
 -1.099  -1.094  -1.022  -1.022  -0.979  -0.978  -0.971  -0.968
 -0.968  -0.965  -0.956  -0.955  -0.938  -0.938  -0.915  -0.907
 -0.906  -0.904  -0.892  -0.891  -0.870  -0.864  -0.863  -0.861
 -0.860  -0.859  -0.852  -0.851  -0.847  -0.846  -0.831  -0.824
 -0.823  -0.821  -0.818  -0.812  -0.811  -0.810  -0.776  -0.776
 -0.769  -0.764  -0.742  -0.738  -0.732  -0.726  -0.724  -0.722
 -0.722  -0.716  -0.714  -0.713  -0.694  -0.687  -0.685  -0.683
 -0.679  -0.673  -0.661  -0.654  -0.653  -0.651  -0.647  -0.644
 -0.636  -0.631  -0.624  -0.620  -0.603  -0.601  -0.596  -0.594
 -0.592  -0.591  -0.588  -0.581  -0.581  -0.563  -0.563  -0.560
 -0.554  -0.549  -0.548  -0.546  -0.540  -0.536  -0.533  -0.532
 -0.530  -0.529  -0.528  -0.522  -0.516  -0.515  -0.510  -0.507
 -0.504  -0.502  -0.500  -0.500  -0.499  -0.498  -0.497  -0.497
 -0.496  -0.491  -0.491  -0.490  -0.486  -0.485  -0.483  -0.483
 -0.482  -0.480  -0.479  -0.478  -0.476  -0.473  -0.471  -0.470
 -0.464  -0.460  -0.455  -0.451  -0.449  -0.446  -0.445  -0.444
 -0.441  -0.440  -0.436  -0.435  -0.434  -0.433  -0.431  -0.430
 -0.427  -0.426  -0.424  -0.419  -0.417  -0.416  -0.406  -0.403
 -0.403  -0.402  -0.401  -0.401  -0.401  -0.398  -0.398  -0.396
 -0.394  -0.391  -0.390  -0.388  -0.386  -0.384  -0.381  -0.377
 -0.376  -0.372  -0.366  -0.365  -0.360  -0.357  -0.350  -0.347
 -0.328  -0.322  -0.310  -0.308  -0.304  -0.302  -0.301  -0.300
 -0.290  -0.287  -0.285  -0.285  -0.284  -0.271  -0.268  -0.266
 -0.264  -0.262  -0.227  -0.202

          Ground-State Mulliken Net Atomic Charges

     Atom                 Charge (a.u.)
  ----------------------------------------
      1 S                     0.130909
      2 C                    -0.201146
      3 C                    -0.259784
      4 H                     0.251363
      5 C                    -0.252520
      6 H                     0.239959
      7 C                    -0.239874
      8 H                     0.239799
      9 C                    -0.311814
     10 H                     0.267368
     11 C                     0.420814
     12 N                    -0.707346
     13 C                     0.418531
     14 C                    -0.308993
     15 H                     0.267507
     16 C                    -0.241238
     17 H                     0.239602
     18 C                    -0.252034
     19 H                     0.239969
     20 C                    -0.259636
     21 H                     0.251622
     22 C                    -0.199682
     23 C                     0.215992
     24 C                    -0.310793
     25 H                     0.239167
     26 C                    -0.328663
     27 H                     0.251832
     28 C                     0.034956
     29 C                     0.052347
     30 C                    -0.214531
     31 C                    -0.768360
     32 H                     0.251712
     33 H                     0.249078
     34 H                     0.250133
     35 C                    -0.549026
     36 H                     0.253059
     37 H                     0.243957
     38 C                    -0.651305
     39 H                     0.232869
     40 H                     0.228481
     41 H                     0.224393
     42 B                     0.677892
     43 C                    -0.149202
     44 C                    -0.399264
     45 H                     0.242923
     46 C                     0.087561
     47 C                     0.102494
     48 C                    -0.391680
     49 H                     0.245741
     50 C                    -0.150775
     51 C                     0.186513
     52 C                    -0.386452
     53 H                     0.242051
     54 C                    -0.067979
     55 C                     0.230403
     56 C                     0.186598
     57 C                    -0.392788
     58 H                     0.245350
     59 C                    -0.223712
     60 H                     0.249405
     61 C                    -0.340219
     62 H                     0.246344
     63 C                    -0.223154
     64 H                     0.249320
     65 C                    -0.342799
     66 H                     0.246423
     67 B                     0.666866
     68 C                    -0.145769
     69 C                    -0.405485
     70 H                     0.243877
     71 C                     0.103415
     72 C                     0.086296
     73 C                    -0.388454
     74 H                     0.240671
     75 C                    -0.158461
     76 C                     0.183148
     77 C                    -0.382484
     78 H                     0.242479
     79 C                    -0.066737
     80 C                     0.231636
     81 C                     0.185847
     82 C                    -0.391488
     83 H                     0.242140
     84 C                    -0.225124
     85 H                     0.249523
     86 C                    -0.339770
     87 H                     0.246108
     88 C                    -0.222088
     89 H                     0.249439
     90 C                    -0.344304
     91 H                     0.246289
     92 C                    -0.203430
     93 C                     0.053987
     94 C                    -0.291438
     95 H                     0.245268
     96 C                     0.146234
     97 C                    -0.293949
     98 H                     0.248114
     99 C                     0.025790
    100 N                    -0.713524
    101 C                     0.442880
    102 C                     0.437367
    103 C                    -0.219142
    104 C                    -0.255046
    105 H                     0.250171
    106 C                    -0.256519
    107 H                     0.236877
    108 C                    -0.242193
    109 H                     0.236828
    110 C                    -0.318503
    111 H                     0.270165
    112 C                    -0.217226
    113 C                    -0.255147
    114 H                     0.250279
    115 C                    -0.255553
    116 H                     0.236630
    117 C                    -0.243895
    118 H                     0.235338
    119 C                    -0.317029
    120 H                     0.273396
    121 C                    -0.769316
    122 H                     0.252582
    123 H                     0.250538
    124 H                     0.250502
    125 C                    -0.549879
    126 H                     0.252562
    127 H                     0.243677
    128 C                    -0.657168
    129 H                     0.240026
    130 H                     0.228257
    131 H                     0.223715
    132 S                     0.170534
  ----------------------------------------
  Sum of atomic charges =    -0.000000

                    Cartesian Multipole Moments
 -----------------------------------------------------------------
    Charge (ESU x 10^10)
                -0.0000
    Dipole Moment (Debye)
         X       0.2222      Y       0.9047      Z      -0.2740
       Tot       0.9711
    Quadrupole Moments (Debye-Ang)
        XX    -476.4945     XY     -32.7489     YY    -474.0207
        XZ      62.0165     YZ     -20.4822     ZZ    -435.5261

 Total job time:  25908.75s(wall), 77251.92s(cpu)
        *  Thank you very much for using Q-Chem.  Have a nice day.  *
