 Q-Chem 5.1, Q-Chem, Inc., Pleasanton, CA (2018)
 Q-Chem 5.1.1 for Intel X86 EM64T Linux

User input:
--------------------------------------------------------------
$solvent
dielectric      4.33
dielectric_infi 1.83
$end

$rem
threads 8
jobtype	sp
method PBEh-3c
basis def2-mSVP
mem_static	1024
mem_total	14000
sym_ignore	true
cis_n_roots             2
cis_singlets            false
cis_triplets		true
rpa                     false
calc_soc 		true
cis_moments             true
cis_relaxed_density	true
solvent_method		pcm
$end

$pcm
StateSpecific   1
ChargeSeparation Excited
$end

$molecule
read ut1opt_eth.mol
$end

--------------------------------------------------------------

   15   -3799.4500684507      5.21e-09  Convergence criterion met
 Total energy in the final basis set =    -3799.4500684507

                    Orbital Energies (a.u.)
 --------------------------------------------------------------

 Alpha MOs
 -- Occupied --
-89.601 -89.601 -14.686 -14.686 -10.509 -10.508 -10.506 -10.506
-10.490 -10.489 -10.487 -10.486 -10.485 -10.485 -10.472 -10.472
-10.471 -10.470 -10.469 -10.469 -10.469 -10.469 -10.469 -10.468
-10.468 -10.467 -10.467 -10.466 -10.465 -10.465 -10.465 -10.465
-10.464 -10.463 -10.463 -10.462 -10.461 -10.461 -10.461 -10.461
-10.461 -10.461 -10.460 -10.460 -10.456 -10.456 -10.455 -10.455
-10.453 -10.453 -10.452 -10.452 -10.451 -10.450 -10.449 -10.448
-10.448 -10.448 -10.448 -10.448 -10.448 -10.447 -10.447 -10.447
-10.444 -10.444 -10.444 -10.444 -10.443 -10.443 -10.440 -10.439
-10.437 -10.437 -10.432 -10.431 -10.425 -10.424  -8.242  -8.240
 -6.956  -6.955  -6.133  -6.131  -6.130  -6.128  -6.124  -6.122
 -1.102  -1.094  -1.021  -1.021  -0.980  -0.978  -0.972  -0.971
 -0.967  -0.964  -0.958  -0.955  -0.937  -0.937  -0.914  -0.910
 -0.905  -0.905  -0.891  -0.890  -0.869  -0.864  -0.863  -0.861
 -0.861  -0.858  -0.850  -0.850  -0.849  -0.848  -0.830  -0.824
 -0.823  -0.820  -0.816  -0.812  -0.811  -0.809  -0.776  -0.775
 -0.769  -0.767  -0.740  -0.737  -0.731  -0.725  -0.725  -0.724
 -0.722  -0.715  -0.714  -0.713  -0.693  -0.686  -0.684  -0.683
 -0.682  -0.672  -0.661  -0.654  -0.651  -0.651  -0.645  -0.644
 -0.636  -0.633  -0.627  -0.620  -0.601  -0.600  -0.594  -0.592
 -0.592  -0.591  -0.587  -0.580  -0.579  -0.563  -0.562  -0.559
 -0.554  -0.549  -0.548  -0.547  -0.540  -0.538  -0.532  -0.531
 -0.531  -0.529  -0.528  -0.522  -0.516  -0.514  -0.508  -0.506
 -0.505  -0.502  -0.501  -0.500  -0.499  -0.498  -0.498  -0.497
 -0.495  -0.491  -0.490  -0.490  -0.486  -0.485  -0.484  -0.483
 -0.481  -0.480  -0.479  -0.477  -0.474  -0.472  -0.469  -0.469
 -0.463  -0.459  -0.453  -0.450  -0.449  -0.445  -0.444  -0.443
 -0.443  -0.439  -0.438  -0.436  -0.435  -0.432  -0.430  -0.430
 -0.427  -0.427  -0.424  -0.419  -0.418  -0.416  -0.405  -0.403
 -0.403  -0.401  -0.401  -0.400  -0.400  -0.397  -0.397  -0.396
 -0.394  -0.391  -0.390  -0.387  -0.385  -0.385  -0.381  -0.380
 -0.375  -0.372  -0.369  -0.366  -0.359  -0.356  -0.351  -0.346
 -0.327  -0.321  -0.313  -0.309  -0.308  -0.303  -0.300  -0.299
 -0.289  -0.287  -0.285  -0.284  -0.284  -0.272  -0.270  -0.267
 -0.263  -0.261  -0.229  -0.206

          Ground-State Mulliken Net Atomic Charges

     Atom                 Charge (a.u.)
  ----------------------------------------
      1 S                     0.125198
      2 C                    -0.204272
      3 C                    -0.264665
      4 H                     0.258119
      5 C                    -0.259338
      6 H                     0.247556
      7 C                    -0.246071
      8 H                     0.248410
      9 C                    -0.316053
     10 H                     0.272960
     11 C                     0.417879
     12 N                    -0.706284
     13 C                     0.415703
     14 C                    -0.313366
     15 H                     0.273145
     16 C                    -0.247187
     17 H                     0.248266
     18 C                    -0.258886
     19 H                     0.247597
     20 C                    -0.264455
     21 H                     0.258365
     22 C                    -0.202975
     23 C                     0.216531
     24 C                    -0.315107
     25 H                     0.243394
     26 C                    -0.330063
     27 H                     0.256483
     28 C                     0.033611
     29 C                     0.049817
     30 C                    -0.214596
     31 C                    -0.771118
     32 H                     0.255364
     33 H                     0.249725
     34 H                     0.250783
     35 C                    -0.549212
     36 H                     0.253671
     37 H                     0.246546
     38 C                    -0.654114
     39 H                     0.231859
     40 H                     0.230122
     41 H                     0.225726
     42 B                     0.678870
     43 C                    -0.150708
     44 C                    -0.399284
     45 H                     0.246995
     46 C                     0.083482
     47 C                     0.096955
     48 C                    -0.393111
     49 H                     0.250253
     50 C                    -0.151995
     51 C                     0.182272
     52 C                    -0.388765
     53 H                     0.250465
     54 C                    -0.068633
     55 C                     0.222005
     56 C                     0.181382
     57 C                    -0.395076
     58 H                     0.253333
     59 C                    -0.230442
     60 H                     0.256638
     61 C                    -0.343210
     62 H                     0.254364
     63 C                    -0.230128
     64 H                     0.255925
     65 C                    -0.345560
     66 H                     0.254415
     67 B                     0.668609
     68 C                    -0.147068
     69 C                    -0.405185
     70 H                     0.248237
     71 C                     0.098283
     72 C                     0.082072
     73 C                    -0.390578
     74 H                     0.245522
     75 C                    -0.159139
     76 C                     0.178612
     77 C                    -0.384678
     78 H                     0.250517
     79 C                    -0.067742
     80 C                     0.223345
     81 C                     0.181039
     82 C                    -0.393545
     83 H                     0.250074
     84 C                    -0.231793
     85 H                     0.256664
     86 C                    -0.342741
     87 H                     0.254165
     88 C                    -0.229002
     89 H                     0.256329
     90 C                    -0.347021
     91 H                     0.254324
     92 C                    -0.202695
     93 C                     0.051006
     94 C                    -0.296015
     95 H                     0.249535
     96 C                     0.148402
     97 C                    -0.298421
     98 H                     0.252423
     99 C                     0.024995
    100 N                    -0.712371
    101 C                     0.440820
    102 C                     0.435426
    103 C                    -0.223380
    104 C                    -0.260507
    105 H                     0.257634
    106 C                    -0.263928
    107 H                     0.244640
    108 C                    -0.248836
    109 H                     0.245718
    110 C                    -0.323294
    111 H                     0.275810
    112 C                    -0.221505
    113 C                    -0.260748
    114 H                     0.257565
    115 C                    -0.262913
    116 H                     0.244546
    117 C                    -0.251041
    118 H                     0.245875
    119 C                    -0.322418
    120 H                     0.280085
    121 C                    -0.772201
    122 H                     0.255846
    123 H                     0.251520
    124 H                     0.251583
    125 C                    -0.551041
    126 H                     0.253345
    127 H                     0.246740
    128 C                    -0.659607
    129 H                     0.239228
    130 H                     0.230276
    131 H                     0.224495
    132 S                     0.164598
  ----------------------------------------
  Sum of atomic charges =    -0.000000

                    Cartesian Multipole Moments
 -----------------------------------------------------------------
    Charge (ESU x 10^10)
                -0.0000
    Dipole Moment (Debye)
         X       0.3606      Y       0.9840      Z      -0.3112
       Tot       1.0932
    Quadrupole Moments (Debye-Ang)
        XX    -479.3103     XY     -35.0247     YY    -471.9889
        XZ      66.6536     YZ     -22.3139     ZZ    -434.2489

 Total job time:  16784.14s(wall), 46758.73s(cpu)
        *  Thank you very much for using Q-Chem.  Have a nice day.  *
 Q-Chem 5.1, Q-Chem, Inc., Pleasanton, CA (2018)
 Q-Chem 5.1.1 for Intel X86 EM64T Linux

User input:
--------------------------------------------------------------
$rem
threads 8
jobtype sp
method PBEh-3c
basis def2-mSVP
mem_static      1024
mem_total       14000
sym_ignore      true
cis_n_roots             6
cis_singlets            true
cis_triplets            true
rpa                     false
calc_soc                true
cis_moments             true
cis_relaxed_density     true
solvent_method          pcm
$end

$molecule
read
$end

$pcm
statespecific           Marcus
$end

$solvent
dielectric      4.33
dielectric_infi 1.83
$end

--------------------------------------------------------------

             Standard Nuclear Orientation (Angstroms)
    I     Atom           X                Y                Z
 ----------------------------------------------------------------
    1      S       0.0000000000     0.0000000000     0.0000000000
    2      C       0.0000000000     0.0000000000     1.7584640000
    3      C       1.2105770900     0.0000000000     2.4340009771
    4      H       2.1287972582     0.1179430519     1.8717719947
    5      C       1.2490899076    -0.1819481889     3.8080397095
    6      H       2.1972777051    -0.2033315915     4.3280247816
    7      C       0.0573229937    -0.3460256219     4.4936825845
    8      H       0.0618484736    -0.5009636650     5.5647264172
    9      C      -1.1591974536    -0.3012078270     3.8281349333
   10      H      -2.0695498159    -0.4231809369     4.3967787302
   11      C      -1.2133178748    -0.1196562760     2.4455014319
   12      N      -2.4287709609    -0.0688464840     1.7501447905
   13      C      -2.5722880990     0.7128853771     0.5947585748
   14      C      -3.7829966216     1.3187448910     0.2575114136
   15      H      -4.6527930853     1.1789378954     0.8828540674
   16      C      -3.8937885757     2.0967548643    -0.8857983969
   17      H      -4.8498683088     2.5449007177    -1.1225054591
   18      C      -2.7995856644     2.3140002526    -1.7066039342
   19      H      -2.8820360719     2.9318023359    -2.5905272947
   20      C      -1.5900335960     1.7188030529    -1.3827494438
   21      H      -0.7214672254     1.8656084699    -2.0129620282
   22      C      -1.4843732173     0.9066069113    -0.2645418127
   23      C      -3.6158079258    -0.4586721715     2.4415886667
   24      C      -4.1399907156    -1.7154392700     2.2198209702
   25      H      -3.6316772371    -2.3857107931     1.5345946620
   26      C      -4.2540738135     0.4111254832     3.3163779869
   27      H      -3.8358434673     1.3977905330     3.4872383389
   28      C      -5.4240738439     0.0286128295     3.9574213572
   29      C      -5.3147848423    -2.1153056462     2.8559564948
   30      C      -5.9783037224    -1.2432412727     3.7259778192
   31      C      -6.1001817926     0.9886650064     4.8952115520
   32      H      -5.5615495200     1.9343785769     4.9552208638
   33      H      -6.1668957297     0.5758786329     5.9036337516
   34      H      -7.1216595586     1.2047193248     4.5759281932
   35      C      -5.8153282838    -3.5136327061     2.6013725675
   36      H      -6.8694869545    -3.5926946753     2.8744709315
   37      H      -5.7597612584    -3.7319960633     1.5311130775
   38      C      -5.0114177923    -4.5602583271     3.3696747697
   39      H      -5.0752344247    -4.3912108997     4.4448511224
   40      H      -5.3833956718    -5.5652949650     3.1668431369
   41      H      -3.9570523203    -4.5321416113     3.0898820070
   42      B      -7.3467568894    -1.6431977128     4.4201275211
   43      C      -7.3628421778    -2.3103744346     5.7986562764
   44      C      -6.1542525776    -2.6151181031     6.4550908420
   45      H      -5.2113825325    -2.3572430286     5.9819593292
   46      C      -6.1575270249    -3.2383405595     7.6780841520
   47      C      -7.3929012514    -3.5819915011     8.3048057699
   48      C      -8.5814545980    -3.2843583437     7.6850643585
   49      H      -9.5168714819    -3.5482163066     8.1677995536
   50      C      -8.6041060311    -2.6423017340     6.4271393219
   51      C      -5.0674117418    -3.6712988915     8.5468882632
   52      C      -3.6948147119    -3.6238381797     8.4922931852
   53      H      -3.1700231599    -3.1824591508     7.6535303428
   54      C      -5.6750086915    -4.2634767080     9.6736758857
   55      C      -4.9695134449    -4.8076371278    10.7449985455
   56      C      -7.0821048635    -4.2334810162     9.5772526915
   57      C      -7.8124082704    -4.7724761841    10.6084024192
   58      H      -8.8957034076    -4.7781523345    10.5977887435
   59      C      -2.9549135923    -4.1705728934     9.5664538163
   60      H      -1.8735839422    -4.1326129376     9.5198716567
   61      C      -3.5557564100    -4.7463378609    10.6633352898
   62      H      -2.9472643338    -5.1524926000    11.4624601985
   63      C      -7.1233308651    -5.3310388898    11.7103186768
   64      H      -7.7022011276    -5.7547236258    12.5214207803
   65      C      -5.7491088931    -5.3567549067    11.7917214335
   66      H      -5.2643452833    -5.7956953690    12.6555372395
   67      B      -9.9321276879    -2.3029992957     5.7344586816
   68      C      -9.9257449132    -1.6627793141     4.3413179120
   69      C     -11.1278618862    -1.3834538360     3.6529002346
   70      H     -12.0764965847    -1.6162942114     4.1273997264
   71      C     -11.1105811933    -0.8270659268     2.3956955468
   72      C      -9.8625938416    -0.5181997952     1.7774816269
   73      C      -8.6821753586    -0.7737879479     2.4295402161
   74      H      -7.7367053222    -0.5379074640     1.9506286065
   75      C      -8.6789081487    -1.3496447990     3.7136449549
   76      C     -10.1270258080     0.0443637654     0.4605434683
   77      C      -9.3481212065     0.5051107584    -0.5727312703
   78      H      -8.2659973860     0.5076136567    -0.5163406979
   79      C     -11.5292914451     0.0646201683     0.3149517669
   80      C     -12.1858025093     0.5263016338    -0.8223105008
   81      C     -12.1727757326    -0.4534415887     1.4594692325
   82      C     -13.5444969457    -0.5079238607     1.4586492803
   83      H     -14.0999469466    -0.8983591851     2.3025133126
   84      C      -9.9907392620     0.9821112478    -1.7382037249
   85      H      -9.3779976918     1.3450113388    -2.5539894662
   86      C     -11.3610443320     0.9994524456    -1.8740357342
   87      H     -11.8082147795     1.3727727589    -2.7873294603
   88      C     -14.2410790568    -0.0422717979     0.3181278349
   89      H     -15.3228180134    -0.0870308093     0.3218634540
   90      C     -13.6002137459     0.4604809442    -0.7923018909
   91      H     -14.1776229161     0.8028529636    -1.6424756658
   92      C     -11.2820753221    -2.6651366080     6.4891318379
   93      C     -11.7868595902    -1.8411551699     7.5071757369
   94      C     -12.8975083375    -2.2398117099     8.2455121398
   95      H     -13.2737529503    -1.6198352996     9.0513728197
   96      C     -13.4973464180    -3.4508175483     7.9620600241
   97      C     -13.0384421493    -4.2710838876     6.9492665796
   98      H     -13.5230450840    -5.2213412225     6.7567735679
   99      C     -11.9279297294    -3.8806220524     6.2090448278
  100      N     -14.5875323472    -3.9024042105     8.7847842468
  101      C     -15.8578076377    -3.5029455054     8.4382465966
  102      C     -14.2631428663    -4.7012104562     9.8590174256
  103      C     -16.9896594556    -3.8639277272     9.1940632348
  104      C     -18.2626424511    -3.4245831781     8.8185660796
  105      H     -19.1205570089    -3.7096430314     9.4141864061
  106      C     -18.4217261121    -2.6389332603     7.7036270084
  107      H     -19.4077782766    -2.3008386613     7.4182733638
  108      C     -17.3043270557    -2.2834547587     6.9404200729
  109      H     -17.4242368390    -1.6697938240     6.0585040522
  110      C     -16.0483493925    -2.7037821425     7.2946794553
  111      H     -15.2010680250    -2.4168902939     6.6900643368
  112      C     -15.2361548709    -5.2018566129    10.7453074558
  113      C     -14.8687871783    -6.0182929349    11.8196624250
  114      H     -15.6332285267    -6.3931531384    12.4883724906
  115      C     -13.5499685711    -6.3394074293    12.0259673318
  116      H     -13.2708921289    -6.9719003055    12.8569217538
  117      C     -12.5733878989    -5.8404584467    11.1574980284
  118      H     -11.5320010178    -6.0858431152    11.3154899445
  119      C     -12.9154956581    -5.0391664008    10.0989632153
  120      H     -12.1375081691    -4.6718196543     9.4476178361
  121      C     -11.3958456848    -4.7879952036     5.1363883036
  122      H     -11.9660570412    -5.7143739531     5.0725680313
  123      H     -11.4240020533    -4.3065891507     4.1578942534
  124      H     -10.3521294945    -5.0456055556     5.3253112157
  125      C     -11.1375637497    -0.5193456900     7.8229166272
  126      H     -10.0520932827    -0.6213597268     7.7621460062
  127      H     -11.3639483720    -0.2381654410     8.8545136410
  128      C     -11.5913196579     0.5958367282     6.8834423041
  129      H     -11.3182453920     0.3765565849     5.8516462225
  130      H     -11.1233511442     1.5426358640     7.1548907157
  131      H     -12.6730693507     0.7324875051     6.9245422298
  132      S     -16.9114251278    -4.8495191560    10.6005491615
 ----------------------------------------------------------------

   15   -3799.4359197059      6.36e-09  Convergence criterion met
 Total energy in the final basis set =    -3799.4359197059

         TDDFT/TDA Excitation Energies
 ---------------------------------------------------

 Excited state   1: excitation energy (eV) =    1.3275
 Total energy for state  1:                 -3799.38713527 au
    Multiplicity: Triplet
    Trans. Mom.:  0.0000 X   0.0000 Y   0.0000 Z
    Strength   :     0.0000000000
    D(276) --> V(  1) amplitude =  0.9985

 Excited state   2: excitation energy (eV) =    1.3278
 Total energy for state  2:                 -3799.38712307 au
    Multiplicity: Singlet
    Trans. Mom.: -0.0596 X  -0.0216 Y   0.0413 Z
    Strength   :     0.0001862700
    D(276) --> V(  1) amplitude =  0.9985

 Excited state   3: excitation energy (eV) =    2.2104
 Total energy for state  3:                 -3799.35468982 au
    Multiplicity: Triplet
    Trans. Mom.:  0.0000 X   0.0000 Y   0.0000 Z
    Strength   :     0.0000000000
    D(263) --> V(  2) amplitude = -0.2217
    D(272) --> V(  1) amplitude = -0.9128

 Excited state   4: excitation energy (eV) =    2.4044
 Total energy for state  4:                 -3799.34756015 au
    Multiplicity: Triplet
    Trans. Mom.:  0.0000 X   0.0000 Y   0.0000 Z
    Strength   :     0.0000000000
    D(271) --> V(  2) amplitude = -0.4464
    D(273) --> V(  1) amplitude =  0.8099

 Excited state   5: excitation energy (eV) =    2.4390
 Total energy for state  5:                 -3799.34628986 au
    Multiplicity: Triplet
    Trans. Mom.:  0.0000 X   0.0000 Y   0.0000 Z
    Strength   :     0.0000000000
    D(276) --> V(  2) amplitude =  0.9975

 Excited state   6: excitation energy (eV) =    2.4391
 Total energy for state  6:                 -3799.34628332 au
    Multiplicity: Singlet
    Trans. Mom.: -0.0044 X  -0.0045 Y   0.0100 Z
    Strength   :     0.0000083689
    D(276) --> V(  2) amplitude =  0.9982

 Excited state   7: excitation energy (eV) =    2.4708
 Total energy for state  7:                 -3799.34511859 au
    Multiplicity: Triplet
    Trans. Mom.:  0.0000 X   0.0000 Y   0.0000 Z
    Strength   :     0.0000000000
    D(271) --> V(  1) amplitude = -0.7423
    D(271) --> V(  4) amplitude =  0.2264
    D(273) --> V(  2) amplitude =  0.5341

 Excited state   8: excitation energy (eV) =    2.6475
 Total energy for state  8:                 -3799.33862459 au
    Multiplicity: Triplet
    Trans. Mom.:  0.0000 X   0.0000 Y   0.0000 Z
    Strength   :     0.0000000000
    D(276) --> V( 11) amplitude =  0.2878
    D(276) --> V( 12) amplitude = -0.7754
    D(276) --> V( 15) amplitude =  0.4456

 Excited state   9: excitation energy (eV) =    2.6764
 Total energy for state  9:                 -3799.33756365 au
    Multiplicity: Singlet
    Trans. Mom.: -0.0081 X   0.0003 Y   0.0054 Z
    Strength   :     0.0000062207
    D(275) --> V(  1) amplitude =  0.9981

 Excited state  10: excitation energy (eV) =    2.8655
 Total energy for state 10:                 -3799.33061269 au
    Multiplicity: Singlet
    Trans. Mom.:  0.0695 X  -0.0328 Y   0.0858 Z
    Strength   :     0.0009313863
    D(272) --> V(  1) amplitude =  0.9617

 Excited state  11: excitation energy (eV) =    2.9559
 Total energy for state 11:                 -3799.32729223 au
    Multiplicity: Singlet
    Trans. Mom.:  0.0420 X   0.0150 Y  -0.0301 Z
    Strength   :     0.0002096919
    D(276) --> V(  3) amplitude =  0.9564
    D(276) --> V(  4) amplitude = -0.2668

 Excited state  12: excitation energy (eV) =    3.0714
 Total energy for state 12:                 -3799.32304786 au
    Multiplicity: Singlet
    Trans. Mom.:  0.1804 X  -0.2130 Y   0.4716 Z
    Strength   :     0.0226020513
    D(268) --> V(  1) amplitude = -0.2124
    D(274) --> V(  1) amplitude =  0.9523

 ---------------------------------------------------
