 Q-Chem 5.0, Q-Chem, Inc., Pleasanton, CA (2017)
 Q-Chem 5.0.1 for Intel X86 EM64T Linux

User input:
--------------------------------------------------------------
$solvent
dielectric      2.38
dielectric_infi 2.25
$end

$rem
threads 8
jobtype	sp
method PBEh-3c
basis def2-mSVP
mem_static	1024
mem_total	14000
sym_ignore	true
cis_n_roots             2
cis_singlets            false
cis_triplets		true
rpa                     false
calc_soc 		true
cis_moments             true
cis_relaxed_density	true
solvent_method		pcm
$end

$pcm
StateSpecific   1
ChargeSeparation Excited
$end

$molecule
read ut1opt_tol.mol
$end

--------------------------------------------------------------

   15   -3799.4411466646      5.64E-09 Convergence criterion met
 Total energy in the final basis set = -3799.44114666
 Q-Chem 5.0, Q-Chem, Inc., Pleasanton, CA (2017)
 Q-Chem 5.0.1 for Intel X86 EM64T Linux

User input:
--------------------------------------------------------------
$rem
threads 8
jobtype sp
method PBEh-3c
basis def2-mSVP
mem_static      1024
mem_total       14000
sym_ignore      true
cis_n_roots             6
cis_singlets            true
cis_triplets            true
rpa                     false
calc_soc                true
cis_moments             true
cis_relaxed_density     true
solvent_method          pcm
$end

$molecule
read
$end

$pcm
statespecific           Marcus
$end

$solvent
dielectric      2.38
dielectric_infi 2.25
$end

--------------------------------------------------------------

             Standard Nuclear Orientation (Angstroms)
    I     Atom           X                Y                Z
 ----------------------------------------------------------------
    1      S       0.0000000000     0.0000000000     0.0000000000
    2      C       0.0000000000     0.0000000000     1.7579560000
    3      C       1.2102966319     0.0000000000     2.4332978303
    4      H       2.1277358650     0.1196598667     1.8702882920
    5      C       1.2497630050    -0.1833162214     3.8068531325
    6      H       2.1981345226    -0.2045562489     4.3264610580
    7      C       0.0586617188    -0.3489412595     4.4925172859
    8      H       0.0636805864    -0.5053402783     5.5633253334
    9      C      -1.1578958706    -0.3037988588     3.8277060255
   10      H      -2.0684398011    -0.4277309511     4.3955125341
   11      C      -1.2127927476    -0.1200286565     2.4456042545
   12      N      -2.4286869479    -0.0666494775     1.7518559025
   13      C      -2.5719802358     0.7130730456     0.5953528959
   14      C      -3.7826950506     1.3182573722     0.2578303659
   15      H      -4.6518353638     1.1773853386     0.8837544759
   16      C      -3.8936915035     2.0956641728    -0.8854925627
   17      H      -4.8498236249     2.5436284490    -1.1222494283
   18      C      -2.7998108399     2.3128660133    -1.7061334466
   19      H      -2.8822933067     2.9305835282    -2.5900847766
   20      C      -1.5904685824     1.7181019160    -1.3818985007
   21      H      -0.7213772955     1.8652906405    -2.0111856262
   22      C      -1.4841655321     0.9061814135    -0.2639482490
   23      C      -3.6157905768    -0.4526248810     2.4449077457
   24      C      -4.1448612747    -1.7073628637     2.2238932597
   25      H      -3.6392751569    -2.3784844094     1.5376481767
   26      C      -4.2504544974     0.4195891015     3.3197038629
   27      H      -3.8287760608     1.4051343299     3.4885594605
   28      C      -5.4207140775     0.0413656875     3.9625756042
   29      C      -5.3206966552    -2.1024725769     2.8603647050
   30      C      -5.9790033592    -1.2286109721     3.7322089814
   31      C      -6.0941381867     1.0039067193     4.8996540483
   32      H      -5.5552535661     1.9497941339     4.9555524206
   33      H      -6.1583836202     0.5938521536     5.9092821493
   34      H      -7.1163330567     1.2187604887     4.5819621283
   35      C      -5.8302117131    -3.4972765155     2.6054649582
   36      H      -6.8924963577    -3.5611715793     2.8498078433
   37      H      -5.7477474249    -3.7259975811     1.5391145508
   38      C      -5.0605398947    -4.5452686558     3.4059777784
   39      H      -5.1614221552    -4.3704899993     4.4771816119
   40      H      -5.4321684559    -5.5489579253     3.1956084394
   41      H      -3.9968796251    -4.5254278373     3.1633016800
   42      B      -7.3471005686    -1.6231328087     4.4292734532
   43      C      -7.3629873283    -2.2697297667     5.8174605475
   44      C      -6.1548653459    -2.5632123281     6.4788407793
   45      H      -5.2125111635    -2.3134060933     6.0003688617
   46      C      -6.1579637468    -3.1646692495     7.7125429017
   47      C      -7.3931982279    -3.4949850183     8.3457070784
   48      C      -8.5810245899    -3.2105818192     7.7197944063
   49      H      -9.5162574545    -3.4665558109     8.2074009937
   50      C      -8.6041838680    -2.5922621230     6.4500582027
   51      C      -5.0685581578    -3.5839410800     8.5881738760
   52      C      -3.6961522961    -3.5419821334     8.5314578371
   53      H      -3.1713447937    -3.1184711985     7.6836652346
   54      C      -5.6760768278    -4.1534650000     9.7265122688
   55      C      -4.9710916260    -4.6788629368    10.8071113685
   56      C      -7.0829298075    -4.1215359747     9.6304682684
   57      C      -7.8128972023    -4.6369132892    10.6735171264
   58      H      -8.8963128627    -4.6363915136    10.6647819234
   59      C      -2.9567370462    -4.0705695841     9.6144773145
   60      H      -1.8753680037    -4.0370055548     9.5657625721
   61      C      -3.5575502836    -4.6234738894    10.7225734633
   62      H      -2.9490972429    -5.0161075409    11.5284155321
   63      C      -7.1248353463    -5.1756063217    11.7853068900
   64      H      -7.7034821059    -5.5802030391    12.6063828048
   65      C      -5.7509425857    -5.2047804810    11.8650288436
   66      H      -5.2665631653    -5.6281608698    12.7367727974
   67      B      -9.9291668799    -2.2697674125     5.7464936463
   68      C      -9.9252358248    -1.6472088098     4.3466339932
   69      C     -11.1266653169    -1.3778849237     3.6531621384
   70      H     -12.0757775537    -1.6049020487     4.1298347526
   71      C     -11.1082788823    -0.8379653207     2.3892676608
   72      C      -9.8603374052    -0.5366859725     1.7689142550
   73      C      -8.6806835022    -0.7818799424     2.4260001531
   74      H      -7.7343421043    -0.5516004170     1.9463494855
   75      C      -8.6787126662    -1.3403983366     3.7169914245
   76      C     -10.1232962102     0.0075768839     0.4443082117
   77      C      -9.3435154754     0.4536699289    -0.5941370591
   78      H      -8.2615403519     0.4559754995    -0.5364747870
   79      C     -11.5251090712     0.0257934896     0.2963334945
   80      C     -12.1800638167     0.4718288289    -0.8476172917
   81      C     -12.1694997527    -0.4771653155     1.4467602623
   82      C     -13.5407623273    -0.5319417542     1.4445301210
   83      H     -14.0968014578    -0.9114852886     2.2929641539
   84      C      -9.9843941892     0.9146746569    -1.7666360915
   85      H      -9.3705274420     1.2659095178    -2.5866548618
   86      C     -11.3540603972     0.9305602135    -1.9043927970
   87      H     -11.7998050045     1.2914751979    -2.8233242520
   88      C     -14.2361937330    -0.0819149952     0.2974683793
   89      H     -15.3179711666    -0.1268883131     0.3000676312
   90      C     -13.5941329425     0.4060781902    -0.8183238585
   91      H     -14.1706562514     0.7368414233    -1.6736761964
   92      C     -11.2784893490    -2.6406429904     6.4986874587
   93      C     -11.7932933129    -1.8200676160     7.5147567828
   94      C     -12.8973910407    -2.2315895040     8.2557026441
   95      H     -13.2794087392    -1.6148465638     9.0614306447
   96      C     -13.4814785761    -3.4511392269     7.9752292613
   97      C     -13.0149400812    -4.2671171458     6.9624118308
   98      H     -13.4872091853    -5.2240969208     6.7719978922
   99      C     -11.9103776247    -3.8640107240     6.2201584890
  100      N     -14.5616821949    -3.9174824055     8.8037562591
  101      C     -15.8379628423    -3.5280505815     8.4686716330
  102      C     -14.2222086683    -4.7182137880     9.8717515251
  103      C     -16.9610135879    -3.8997685427     9.2321433660
  104      C     -18.2394265969    -3.4681560335     8.8677540535
  105      H     -19.0908286308    -3.7608763859     9.4689647463
  106      C     -18.4125219289    -2.6805680159     7.7560995825
  107      H     -19.4031266202    -2.3485523481     7.4795223075
  108      C     -17.3041405443    -2.3157019767     6.9845943389
  109      H     -17.4354545239    -1.7011903406     6.1049678191
  110      C     -16.0427381938    -2.7280757213     7.3278949308
  111      H     -15.2004853961    -2.4359177717     6.7186894681
  112      C     -15.1838150442    -5.2315091740    10.7632674652
  113      C     -14.8004553372    -6.0504264682    11.8295673970
  114      H     -15.5558281050    -6.4355342170    12.5027191325
  115      C     -13.4771554464    -6.3615538837    12.0228545142
  116      H     -13.1859304548    -6.9964185461    12.8478070531
  117      C     -12.5118105863    -5.8494034007    11.1497765170
  118      H     -11.4671719277    -6.0870025255    11.2976078054
  119      C     -12.8693695736    -5.0448365387    10.0991335818
  120      H     -12.1011847983    -4.6656058194     9.4429308036
  121      C     -11.3676917390    -4.7658493412     5.1486127951
  122      H     -11.9258585060    -5.6997581535     5.0857115597
  123      H     -11.4013053588    -4.2853070036     4.1700659835
  124      H     -10.3204661844    -5.0083555053     5.3374255634
  125      C     -11.1596247376    -0.4897722725     7.8252625922
  126      H     -10.0729626648    -0.5828817394     7.7750508114
  127      H     -11.3978251991    -0.2018540690     8.8525283721
  128      C     -11.6144527115     0.6123411847     6.8709847300
  129      H     -11.3274758048     0.3874943414     5.8443501504
  130      H     -11.1581412060     1.5655764156     7.1392086926
  131      H     -12.6978409237     0.7396158951     6.8990662152
  132      S     -16.8634402127    -4.8909124425    10.6342772307
 ----------------------------------------------------------------

   15   -3799.4400815884      5.74E-09 Convergence criterion met
 Total energy in the final basis set = -3799.44008159

         TDDFT/TDA Excitation Energies
 ---------------------------------------------------

 Excited state   1: excitation energy (eV) =    1.9785
 Total energy for state  1:                 -3799.36737127 au
    Multiplicity: Triplet
    Trans. Mom.:  0.0000 X   0.0000 Y   0.0000 Z
    Strength   :     0.0000000000
    D(276) --> V(  1) amplitude =  0.9983

 Excited state   2: excitation energy (eV) =    1.9789
 Total energy for state  2:                 -3799.36735882 au
    Multiplicity: Singlet
    Trans. Mom.:  0.0476 X   0.0181 Y  -0.0335 Z
    Strength   :     0.0001803247
    D(276) --> V(  1) amplitude =  0.9984

 Excited state   3: excitation energy (eV) =    2.1886
 Total energy for state  3:                 -3799.35965280 au
    Multiplicity: Triplet
    Trans. Mom.:  0.0000 X   0.0000 Y   0.0000 Z
    Strength   :     0.0000000000
    D(273) --> V(  1) amplitude =  0.8895
    D(274) --> V(  1) amplitude =  0.2487

 Excited state   4: excitation energy (eV) =    2.4033
 Total energy for state  4:                 -3799.35176075 au
    Multiplicity: Triplet
    Trans. Mom.:  0.0000 X   0.0000 Y   0.0000 Z
    Strength   :     0.0000000000
    D(271) --> V(  2) amplitude = -0.4583
    D(273) --> V(  1) amplitude = -0.2298
    D(274) --> V(  1) amplitude =  0.7866

 Excited state   5: excitation energy (eV) =    2.4699
 Total energy for state  5:                 -3799.34931529 au
    Multiplicity: Triplet
    Trans. Mom.:  0.0000 X   0.0000 Y   0.0000 Z
    Strength   :     0.0000000000
    D(271) --> V(  1) amplitude =  0.7526
    D(271) --> V(  4) amplitude =  0.2340
    D(274) --> V(  2) amplitude = -0.5309

 Excited state   6: excitation energy (eV) =    2.6531
 Total energy for state  6:                 -3799.34258176 au
    Multiplicity: Triplet
    Trans. Mom.:  0.0000 X   0.0000 Y   0.0000 Z
    Strength   :     0.0000000000
    D(276) --> V(  5) amplitude =  0.2469
    D(276) --> V(  6) amplitude =  0.8826

 Excited state   7: excitation energy (eV) =    2.6610
 Total energy for state  7:                 -3799.34229191 au
    Multiplicity: Triplet
    Trans. Mom.:  0.0000 X   0.0000 Y   0.0000 Z
    Strength   :     0.0000000000
    D(275) --> V(  1) amplitude =  0.9969

 Excited state   8: excitation energy (eV) =    2.6614
 Total energy for state  8:                 -3799.34227772 au
    Multiplicity: Singlet
    Trans. Mom.: -0.0102 X   0.0003 Y   0.0050 Z
    Strength   :     0.0000083574
    D(275) --> V(  1) amplitude =  0.9981

 Excited state   9: excitation energy (eV) =    2.8388
 Total energy for state  9:                 -3799.33575789 au
    Multiplicity: Singlet
    Trans. Mom.:  0.1347 X  -0.0831 Y   0.2043 Z
    Strength   :     0.0046469364
    D(273) --> V(  1) amplitude =  0.9381
    D(274) --> V(  1) amplitude =  0.2456

 Excited state  10: excitation energy (eV) =    3.0716
 Total energy for state 10:                 -3799.32720061 au
    Multiplicity: Singlet
    Trans. Mom.:  2.0004 X  -1.4443 Y   3.2868 Z
    Strength   :     1.2710860198
    D(273) --> V(  1) amplitude = -0.2429
    D(274) --> V(  1) amplitude =  0.9288

 Excited state  11: excitation energy (eV) =    3.0900
 Total energy for state 11:                 -3799.32652473 au
    Multiplicity: Singlet
    Trans. Mom.: -0.0363 X   0.0188 Y  -0.0432 Z
    Strength   :     0.0002682130
    D(276) --> V(  2) amplitude =  0.9974

 Excited state  12: excitation energy (eV) =    3.3514
 Total energy for state 12:                 -3799.31691908 au
    Multiplicity: Singlet
    Trans. Mom.:  0.2291 X  -0.0050 Y  -0.1652 Z
    Strength   :     0.0065507719
    D(269) --> V(  1) amplitude =  0.4770
    D(271) --> V(  1) amplitude = -0.7934

 ---------------------------------------------------

                    Orbital Energies (a.u.)
 --------------------------------------------------------------

 Alpha MOs
 -- Occupied --
-89.599 -89.597 -14.686 -14.683 -10.506 -10.505 -10.505 -10.505
-10.490 -10.489 -10.484 -10.483 -10.483 -10.483 -10.473 -10.472
-10.472 -10.471 -10.470 -10.470 -10.470 -10.470 -10.470 -10.470
-10.469 -10.468 -10.468 -10.467 -10.467 -10.467 -10.467 -10.466
-10.464 -10.464 -10.464 -10.463 -10.463 -10.463 -10.463 -10.463
-10.462 -10.461 -10.461 -10.461 -10.455 -10.455 -10.454 -10.454
-10.452 -10.452 -10.452 -10.451 -10.450 -10.450 -10.449 -10.448
-10.448 -10.448 -10.447 -10.446 -10.446 -10.446 -10.446 -10.445
-10.445 -10.445 -10.444 -10.444 -10.442 -10.441 -10.441 -10.440
-10.438 -10.437 -10.434 -10.433 -10.426 -10.425  -8.238  -8.238
 -6.956  -6.956  -6.129  -6.129  -6.126  -6.125  -6.120  -6.120
 -1.099  -1.094  -1.022  -1.022  -0.979  -0.978  -0.971  -0.968
 -0.968  -0.965  -0.956  -0.955  -0.938  -0.938  -0.915  -0.907
 -0.906  -0.904  -0.892  -0.891  -0.870  -0.864  -0.863  -0.861
 -0.860  -0.859  -0.852  -0.851  -0.847  -0.846  -0.831  -0.824
 -0.823  -0.821  -0.818  -0.812  -0.811  -0.810  -0.776  -0.776
 -0.769  -0.764  -0.742  -0.738  -0.732  -0.726  -0.724  -0.722
 -0.722  -0.716  -0.714  -0.713  -0.694  -0.687  -0.685  -0.683
 -0.679  -0.673  -0.661  -0.654  -0.653  -0.651  -0.647  -0.644
 -0.636  -0.631  -0.624  -0.620  -0.603  -0.601  -0.596  -0.594
 -0.592  -0.591  -0.588  -0.581  -0.581  -0.563  -0.563  -0.560
 -0.554  -0.549  -0.548  -0.546  -0.540  -0.536  -0.533  -0.532
 -0.530  -0.529  -0.528  -0.522  -0.516  -0.515  -0.510  -0.507
 -0.504  -0.502  -0.500  -0.500  -0.499  -0.498  -0.497  -0.497
 -0.496  -0.491  -0.491  -0.490  -0.486  -0.485  -0.483  -0.483
 -0.482  -0.480  -0.479  -0.478  -0.476  -0.473  -0.471  -0.470
 -0.464  -0.460  -0.455  -0.451  -0.449  -0.446  -0.445  -0.444
 -0.441  -0.440  -0.436  -0.435  -0.434  -0.433  -0.431  -0.430
 -0.427  -0.426  -0.424  -0.419  -0.417  -0.416  -0.406  -0.403
 -0.403  -0.402  -0.401  -0.401  -0.401  -0.398  -0.398  -0.396
 -0.394  -0.391  -0.390  -0.388  -0.386  -0.384  -0.381  -0.377
 -0.376  -0.372  -0.366  -0.365  -0.360  -0.357  -0.350  -0.347
 -0.328  -0.322  -0.310  -0.308  -0.304  -0.302  -0.301  -0.300
 -0.290  -0.287  -0.285  -0.285  -0.284  -0.271  -0.268  -0.266
 -0.264  -0.262  -0.227  -0.202

          Ground-State Mulliken Net Atomic Charges

     Atom                 Charge (a.u.)
  ----------------------------------------
      1 S                     0.130911
      2 C                    -0.201150
      3 C                    -0.259782
      4 H                     0.251363
      5 C                    -0.252521
      6 H                     0.239959
      7 C                    -0.239873
      8 H                     0.239798
      9 C                    -0.311817
     10 H                     0.267369
     11 C                     0.420817
     12 N                    -0.707346
     13 C                     0.418530
     14 C                    -0.308992
     15 H                     0.267508
     16 C                    -0.241238
     17 H                     0.239602
     18 C                    -0.252034
     19 H                     0.239969
     20 C                    -0.259635
     21 H                     0.251622
     22 C                    -0.199682
     23 C                     0.215987
     24 C                    -0.310792
     25 H                     0.239167
     26 C                    -0.328661
     27 H                     0.251831
     28 C                     0.034956
     29 C                     0.052345
     30 C                    -0.214533
     31 C                    -0.768360
     32 H                     0.251712
     33 H                     0.249078
     34 H                     0.250132
     35 C                    -0.549026
     36 H                     0.253060
     37 H                     0.243957
     38 C                    -0.651303
     39 H                     0.232869
     40 H                     0.228481
     41 H                     0.224393
     42 B                     0.677897
     43 C                    -0.149209
     44 C                    -0.399261
     45 H                     0.242923
     46 C                     0.087564
     47 C                     0.102493
     48 C                    -0.391685
     49 H                     0.245744
     50 C                    -0.150765
     51 C                     0.186513
     52 C                    -0.386453
     53 H                     0.242051
     54 C                    -0.067978
     55 C                     0.230403
     56 C                     0.186599
     57 C                    -0.392794
     58 H                     0.245357
     59 C                    -0.223713
     60 H                     0.249405
     61 C                    -0.340219
     62 H                     0.246344
     63 C                    -0.223156
     64 H                     0.249318
     65 C                    -0.342799
     66 H                     0.246423
     67 B                     0.666877
     68 C                    -0.145775
     69 C                    -0.405483
     70 H                     0.243874
     71 C                     0.103413
     72 C                     0.086302
     73 C                    -0.388456
     74 H                     0.240670
     75 C                    -0.158457
     76 C                     0.183147
     77 C                    -0.382484
     78 H                     0.242479
     79 C                    -0.066735
     80 C                     0.231634
     81 C                     0.185847
     82 C                    -0.391486
     83 H                     0.242141
     84 C                    -0.225125
     85 H                     0.249523
     86 C                    -0.339769
     87 H                     0.246108
     88 C                    -0.222089
     89 H                     0.249439
     90 C                    -0.344303
     91 H                     0.246289
     92 C                    -0.203433
     93 C                     0.053987
     94 C                    -0.291444
     95 H                     0.245270
     96 C                     0.146245
     97 C                    -0.293960
     98 H                     0.248115
     99 C                     0.025792
    100 N                    -0.713527
    101 C                     0.442880
    102 C                     0.437363
    103 C                    -0.219142
    104 C                    -0.255046
    105 H                     0.250171
    106 C                    -0.256518
    107 H                     0.236877
    108 C                    -0.242194
    109 H                     0.236828
    110 C                    -0.318503
    111 H                     0.270167
    112 C                    -0.217224
    113 C                    -0.255146
    114 H                     0.250279
    115 C                    -0.255551
    116 H                     0.236630
    117 C                    -0.243898
    118 H                     0.235340
    119 C                    -0.317033
    120 H                     0.273398
    121 C                    -0.769321
    122 H                     0.252583
    123 H                     0.250535
    124 H                     0.250503
    125 C                    -0.549878
    126 H                     0.252557
    127 H                     0.243678
    128 C                    -0.657168
    129 H                     0.240024
    130 H                     0.228256
    131 H                     0.223713
    132 S                     0.170534
  ----------------------------------------
  Sum of atomic charges =    -0.000000

                    Cartesian Multipole Moments
 -----------------------------------------------------------------
    Charge (ESU x 10^10)
                -0.0000
    Dipole Moment (Debye)
         X       0.2219      Y       0.9046      Z      -0.2743
       Tot       0.9709
    Quadrupole Moments (Debye-Ang)
        XX    -476.4820     XY     -32.7459     YY    -474.0200
        XZ      62.0193     YZ     -20.4806     ZZ    -435.5348

 Total job time:  25074.73s(wall), 74635.96s(cpu)
        *  Thank you very much for using Q-Chem.  Have a nice day.  *
