 Q-Chem 5.0, Q-Chem, Inc., Pleasanton, CA (2017)
 Q-Chem 5.0.1 for Intel X86 EM64T Linux

User input:
--------------------------------------------------------------
$solvent
dielectric      1.0001
dielectric_infi 1.00009
$end

$rem
threads 8
jobtype	sp
method PBEh-3c
basis def2-mSVP
mem_static	1024
mem_total	14000
sym_ignore	true
cis_n_roots             2
cis_singlets            false
cis_triplets		true
rpa                     false
calc_soc 		true
cis_moments             true
cis_relaxed_density	true
solvent_method		pcm
$end

$pcm
StateSpecific   1
ChargeSeparation Excited
$end

$molecule
read ut1opt_vac.mol
$end

--------------------------------------------------------------

   15   -3799.4167592694      8.25E-09 Convergence criterion met
 Total energy in the final basis set = -3799.41675927
 Q-Chem 5.0, Q-Chem, Inc., Pleasanton, CA (2017)
 Q-Chem 5.0.1 for Intel X86 EM64T Linux

User input:
--------------------------------------------------------------
$rem
threads 8
jobtype sp
method PBEh-3c
basis def2-mSVP
mem_static      1024
mem_total       14000
sym_ignore      true
cis_n_roots             6
cis_singlets            true
cis_triplets            true
rpa                     false
calc_soc                true
cis_moments             true
cis_relaxed_density     true
solvent_method          pcm
$end

$molecule
read
$end

$pcm
statespecific           Marcus
$end

$solvent
dielectric      1.0001
dielectric_infi 1.00009
$end

--------------------------------------------------------------

             Standard Nuclear Orientation (Angstroms)
    I     Atom           X                Y                Z
 ----------------------------------------------------------------
    1      S       0.0000000000     0.0000000000     0.0000000000
    2      C       0.0000000000     0.0000000000     1.7370930000
    3      C       1.2454963267     0.0000000000     2.3586680739
    4      H       2.1396795312     0.0536225594     1.7503690635
    5      C       1.3478470727    -0.0691355721     3.7321025150
    6      H       2.3202492823    -0.0681632402     4.2042699745
    7      C       0.1875210222    -0.1385651478     4.4955031155
    8      H       0.2454782743    -0.1912134821     5.5746161366
    9      C      -1.0515658445    -0.1329254642     3.8938132142
   10      H      -1.9334414825    -0.1824764616     4.5139893680
   11      C      -1.1789710894    -0.0578674661     2.4968397007
   12      N      -2.4371820363    -0.0453539560     1.9157580177
   13      C      -2.6952646561     0.2001292960     0.5790975183
   14      C      -4.0182889227     0.3737898406     0.1467737034
   15      H      -4.8242071615     0.3102763486     0.8628374934
   16      C      -4.3023101301     0.6253616994    -1.1772328428
   17      H      -5.3328788359     0.7553190080    -1.4774422124
   18      C      -3.2814437025     0.7164805732    -2.1174269681
   19      H      -3.5039853619     0.9189488650    -3.1554821511
   20      C      -1.9741915402     0.5456613988    -1.7120114113
   21      H      -1.1682729284     0.6131781122    -2.4319250069
   22      C      -1.6728745200     0.2831340397    -0.3791798309
   23      C      -3.5524651572    -0.2244626718     2.7963622680
   24      C      -4.0171832933    -1.5008520223     3.0467664760
   25      H      -3.5793132564    -2.3460563602     2.5279107197
   26      C      -4.0885834681     0.8708548579     3.4505115835
   27      H      -3.7036991974     1.8637502505     3.2457091696
   28      C      -5.0784899596     0.6848132612     4.4075239539
   29      C      -5.0097562612    -1.6995151569     4.0024042978
   30      C      -5.5322234557    -0.6088631573     4.7125801985
   31      C      -5.6177466482     1.8692268626     5.1590047518
   32      H      -5.1416677577     2.7980093399     4.8443559829
   33      H      -6.6935918462     1.9758916388     5.0151548461
   34      H      -5.4593103273     1.7552697121     6.2330982871
   35      C      -5.4989505078    -3.0974255142     4.2748750562
   36      H      -5.6101723809    -3.2432242227     5.3518383902
   37      H      -4.7478451866    -3.8195072376     3.9436520409
   38      C      -6.8291822915    -3.3968222498     3.5876170443
   39      H      -7.6173721485    -2.7387981723     3.9515881797
   40      H      -7.1415257966    -4.4234542900     3.7818546101
   41      H      -6.7547470860    -3.2681518341     2.5068770841
   42      B      -6.4927618152    -0.8107052163     5.9598048731
   43      C      -8.0065679087    -0.5907729138     5.8799104644
   44      C      -8.6373363680    -0.2375404924     4.6671613899
   45      H      -8.0336753818    -0.1305441803     3.7707882914
   46      C      -9.9947583603    -0.0298345694     4.6100069291
   47      C     -10.7795045734    -0.1740848056     5.7909074692
   48      C     -10.1895710984    -0.5201485465     6.9792085899
   49      H     -10.7959823489    -0.6264798477     7.8737092016
   50      C      -8.8011126989    -0.7339609427     7.0592133166
   51      C     -12.1683625824     0.1108142265     5.4589082800
   52      C     -13.3470487793     0.1460035263     6.1610146121
   53      H     -13.3852350400    -0.0734456264     7.2214304826
   54      C     -12.1910329459     0.4153900717     4.0832073766
   55      C     -13.3434898438     0.7516258749     3.3804208924
   56      C     -10.8986752302     0.3444488203     3.5214637037
   57      C     -10.7624026001     0.6234431698     2.1854250868
   58      H      -9.7986383612     0.5893596160     1.6929819055
   59      C     -14.5327221111     0.4835078732     5.4711858542
   60      H     -15.4636184926     0.5127970353     6.0237887277
   61      C     -14.5472937226     0.7777328202     4.1271374894
   62      H     -15.4811925037     1.0320912969     3.6409759040
   63      C     -11.9161720956     0.9647488347     1.4421538813
   64      H     -11.8035327387     1.1832901600     0.3878424192
   65      C     -13.1704319555     1.0315411659     2.0037662990
   66      H     -14.0237289814     1.2993916858     1.3927710340
   67      B      -8.1499468727    -1.1029404719     8.3968309925
   68      C      -6.6390047039    -1.3187875020     8.4735549757
   69      C      -6.0196493249    -1.6475118468     9.6960130326
   70      H      -6.6283834734    -1.7560043132    10.5893981609
   71      C      -4.6616748874    -1.8229543192     9.7705341854
   72      C      -3.8571014245    -1.6825392514     8.6017538140
   73      C      -4.4414289224    -1.3632385840     7.4024436245
   74      H      -3.8206240785    -1.2519708327     6.5197951760
   75      C      -5.8363753708    -1.1755958252     7.2998422056
   76      C      -3.7840669986    -2.1387081374    10.8933962659
   77      C      -3.9576533811    -2.3750126342    12.2351097537
   78      H      -4.9377833697    -2.3535310088    12.6960336098
   79      C      -2.4757545264    -2.1841649472    10.3694941610
   80      C      -1.3399665602    -2.4575130696    11.1273497079
   81      C      -2.4669137582    -1.9208098792     8.9842851041
   82      C      -1.2598951638    -1.9452195362     8.3307637798
   83      H      -1.1879466846    -1.7684173246     7.2642731356
   84      C      -2.8212684750    -2.6515106918    13.0283555692
   85      H      -2.9613201772    -2.8359320774    14.0863478890
   86      C      -1.5485745586    -2.6953357662    12.5080078588
   87      H      -0.7072727945    -2.9120514455    13.1551870289
   88      C      -0.0894585067    -2.2219641473     9.0734291543
   89      H       0.8605320409    -2.2427383503     8.5541357166
   90      C      -0.1103611638    -2.4689531380    10.4266732535
   91      H       0.8125480869    -2.6758488115    10.9548488103
   92      C      -9.0520964203    -1.2763366705     9.6914684046
   93      C      -9.3998890891    -0.1816996084    10.4925269927
   94      C     -10.2222689618    -0.3571350345    11.6029526612
   95      H     -10.5015868619     0.4906090676    12.2195299694
   96      C     -10.6985082014    -1.6131986605    11.9145923413
   97      C     -10.3596866022    -2.7123732347    11.1432860900
   98      H     -10.7463773529    -3.6912326986    11.4051581504
   99      C      -9.5389903364    -2.5500084017    10.0349967504
  100      N     -11.5694565002    -1.7741703431    13.0429570571
  101      C     -10.9884174530    -2.0887853799    14.2614195916
  102      C     -12.9350841392    -1.6941865791    12.8133942938
  103      C     -13.4227450076    -1.5699987668    11.5046951144
  104      H     -12.7299324288    -1.5272456928    10.6781510984
  105      C     -14.7768914444    -1.5046585556    11.2533787416
  106      H     -15.1157530625    -1.4118484709    10.2307884377
  107      C     -15.6974608087    -1.5639997271    12.2925768347
  108      H     -16.7593702398    -1.5205868958    12.0955836004
  109      C     -15.2384500940    -1.6797280095    13.5878940659
  110      H     -15.9405215807    -1.7262308899    14.4113448615
  111      C     -13.8752074640    -1.7359062835    13.8571916978
  112      C      -9.6113080453    -2.3428335646    14.3397012309
  113      H      -9.0065132930    -2.2863438092    13.4474726660
  114      C      -9.0125342372    -2.6655383798    15.5392075152
  115      H      -7.9481424431    -2.8549778316    15.5596104894
  116      C      -9.7607030950    -2.7532652433    16.7069008508
  117      H      -9.2936563195    -3.0125584483    17.6466660287
  118      C     -11.1159556805    -2.5037842740    16.6526637620
  119      H     -11.7158320794    -2.5661055094    17.5523497997
  120      C     -11.7305905143    -2.1666698208    15.4515267793
  121      C      -9.1812054002    -3.7437670730     9.1979850061
  122      H      -9.6687914960    -4.6490917926     9.5597342207
  123      H      -9.4727084990    -3.5946154478     8.1571498289
  124      H      -8.1037690642    -3.9161152612     9.2001791703
  125      C      -8.8738792812     1.1999101880    10.2089476971
  126      H      -8.6592243576     1.3063166512     9.1441233296
  127      H      -9.6461946089     1.9383925222    10.4423232029
  128      C      -7.6167594630     1.5080598588    11.0192862340
  129      H      -6.8109121639     0.8195769768    10.7665935689
  130      H      -7.2631446995     2.5204040715    10.8214085956
  131      H      -7.8060632683     1.4245648244    12.0909872505
  132      S     -13.4236389918    -1.7786849408    15.5369307537
 ----------------------------------------------------------------

   15   -3799.4167557521      8.25E-09 Convergence criterion met
 Total energy in the final basis set = -3799.41675575

         TDDFT/TDA Excitation Energies
 ---------------------------------------------------

 Excited state   1: excitation energy (eV) =    1.9961
 Total energy for state  1:                 -3799.34339868 au
    Multiplicity: Triplet
    Trans. Mom.:  0.0000 X   0.0000 Y   0.0000 Z
    Strength   :     0.0000000000
    D(276) --> V(  1) amplitude =  0.9981

 Excited state   2: excitation energy (eV) =    1.9964
 Total energy for state  2:                 -3799.34338767 au
    Multiplicity: Singlet
    Trans. Mom.: -0.0197 X  -0.0044 Y   0.0183 Z
    Strength   :     0.0000362405
    D(276) --> V(  1) amplitude =  0.9982

 Excited state   3: excitation energy (eV) =    2.0221
 Total energy for state  3:                 -3799.34244510 au
    Multiplicity: Triplet
    Trans. Mom.:  0.0000 X   0.0000 Y   0.0000 Z
    Strength   :     0.0000000000
    D(275) --> V(  1) amplitude =  0.9986

 Excited state   4: excitation energy (eV) =    2.0223
 Total energy for state  4:                 -3799.34243812 au
    Multiplicity: Singlet
    Trans. Mom.: -0.0107 X  -0.0015 Y   0.0079 Z
    Strength   :     0.0000089183
    D(275) --> V(  1) amplitude =  0.9987

 Excited state   5: excitation energy (eV) =    2.1677
 Total energy for state  5:                 -3799.33709528 au
    Multiplicity: Triplet
    Trans. Mom.:  0.0000 X   0.0000 Y   0.0000 Z
    Strength   :     0.0000000000
    D(271) --> V(  1) amplitude = -0.8926
    D(273) --> V(  1) amplitude =  0.2407

 Excited state   6: excitation energy (eV) =    2.4010
 Total energy for state  6:                 -3799.32852022 au
    Multiplicity: Triplet
    Trans. Mom.:  0.0000 X   0.0000 Y   0.0000 Z
    Strength   :     0.0000000000
    D(270) --> V(  2) amplitude = -0.4588
    D(271) --> V(  1) amplitude =  0.2180
    D(273) --> V(  1) amplitude =  0.7827

 Excited state   7: excitation energy (eV) =    2.4680
 Total energy for state  7:                 -3799.32605742 au
    Multiplicity: Triplet
    Trans. Mom.:  0.0000 X   0.0000 Y   0.0000 Z
    Strength   :     0.0000000000
    D(270) --> V(  1) amplitude = -0.7516
    D(270) --> V(  4) amplitude = -0.2359
    D(273) --> V(  2) amplitude =  0.5238

 Excited state   8: excitation energy (eV) =    2.6955
 Total energy for state  8:                 -3799.31769949 au
    Multiplicity: Triplet
    Trans. Mom.:  0.0000 X   0.0000 Y   0.0000 Z
    Strength   :     0.0000000000
    D(265) --> V(  1) amplitude =  0.5628
    D(266) --> V(  1) amplitude = -0.3931
    D(271) --> V(  2) amplitude = -0.5376

 Excited state   9: excitation energy (eV) =    2.8289
 Total energy for state  9:                 -3799.31279426 au
    Multiplicity: Singlet
    Trans. Mom.: -0.0602 X   0.0229 Y  -0.0610 Z
    Strength   :     0.0005454723
    D(271) --> V(  1) amplitude = -0.9388
    D(273) --> V(  1) amplitude =  0.2362

 Excited state  10: excitation energy (eV) =    3.1039
 Total energy for state 10:                 -3799.30268842 au
    Multiplicity: Singlet
    Trans. Mom.:  0.0006 X  -0.0003 Y   0.0033 Z
    Strength   :     0.0000008849
    D(276) --> V(  2) amplitude =  0.9966

 Excited state  11: excitation energy (eV) =    3.1289
 Total energy for state 11:                 -3799.30177246 au
    Multiplicity: Singlet
    Trans. Mom.:  0.0077 X  -0.0012 Y  -0.0002 Z
    Strength   :     0.0000046558
    D(275) --> V(  2) amplitude =  0.9986

 Excited state  12: excitation energy (eV) =    3.1509
 Total energy for state 12:                 -3799.30096369 au
    Multiplicity: Singlet
    Trans. Mom.: -2.8123 X   0.7516 Y  -1.7620 Z
    Strength   :     0.8938174290
    D(271) --> V(  1) amplitude =  0.2318
    D(273) --> V(  1) amplitude =  0.9192

 ---------------------------------------------------

                    Orbital Energies (a.u.)
 --------------------------------------------------------------

 Alpha MOs
 -- Occupied --
-89.594 -89.593 -14.683 -14.682 -10.504 -10.503 -10.503 -10.502
-10.490 -10.490 -10.482 -10.481 -10.481 -10.480 -10.474 -10.473
-10.473 -10.473 -10.473 -10.473 -10.472 -10.472 -10.472 -10.472
-10.470 -10.470 -10.470 -10.470 -10.470 -10.469 -10.469 -10.468
-10.467 -10.467 -10.467 -10.467 -10.466 -10.466 -10.466 -10.464
-10.464 -10.463 -10.462 -10.462 -10.455 -10.455 -10.451 -10.451
-10.450 -10.450 -10.450 -10.450 -10.450 -10.449 -10.447 -10.446
-10.446 -10.446 -10.446 -10.446 -10.445 -10.445 -10.445 -10.445
-10.444 -10.444 -10.444 -10.443 -10.442 -10.442 -10.441 -10.441
-10.439 -10.438 -10.437 -10.437 -10.428 -10.428  -8.234  -8.234
 -6.958  -6.956  -6.125  -6.125  -6.122  -6.121  -6.117  -6.116
 -1.096  -1.095  -1.024  -1.023  -0.978  -0.977  -0.970  -0.967
 -0.967  -0.966  -0.955  -0.955  -0.941  -0.941  -0.917  -0.908
 -0.903  -0.902  -0.894  -0.893  -0.871  -0.865  -0.864  -0.860
 -0.859  -0.859  -0.855  -0.854  -0.845  -0.844  -0.832  -0.824
 -0.823  -0.821  -0.820  -0.812  -0.812  -0.811  -0.778  -0.778
 -0.765  -0.764  -0.744  -0.740  -0.735  -0.729  -0.724  -0.723
 -0.718  -0.717  -0.717  -0.715  -0.697  -0.689  -0.688  -0.679
 -0.679  -0.676  -0.661  -0.655  -0.653  -0.653  -0.648  -0.647
 -0.632  -0.632  -0.622  -0.621  -0.605  -0.604  -0.600  -0.598
 -0.592  -0.592  -0.591  -0.585  -0.584  -0.565  -0.564  -0.561
 -0.555  -0.552  -0.546  -0.546  -0.539  -0.537  -0.536  -0.534
 -0.529  -0.528  -0.528  -0.521  -0.517  -0.517  -0.512  -0.509
 -0.506  -0.502  -0.501  -0.500  -0.498  -0.498  -0.497  -0.497
 -0.497  -0.493  -0.492  -0.491  -0.488  -0.487  -0.487  -0.483
 -0.481  -0.480  -0.479  -0.479  -0.478  -0.476  -0.475  -0.472
 -0.467  -0.463  -0.457  -0.453  -0.450  -0.448  -0.446  -0.444
 -0.442  -0.441  -0.438  -0.434  -0.432  -0.432  -0.432  -0.430
 -0.428  -0.426  -0.425  -0.419  -0.418  -0.417  -0.407  -0.405
 -0.404  -0.403  -0.402  -0.402  -0.402  -0.401  -0.399  -0.398
 -0.393  -0.391  -0.391  -0.390  -0.389  -0.380  -0.378  -0.377
 -0.375  -0.374  -0.367  -0.362  -0.359  -0.358  -0.358  -0.348
 -0.329  -0.323  -0.307  -0.306  -0.303  -0.302  -0.302  -0.302
 -0.291  -0.288  -0.286  -0.285  -0.285  -0.270  -0.264  -0.263
 -0.263  -0.263  -0.205  -0.204

          Ground-State Mulliken Net Atomic Charges

     Atom                 Charge (a.u.)
  ----------------------------------------
      1 S                     0.170711
      2 C                    -0.201322
      3 C                    -0.242011
      4 H                     0.229437
      5 C                    -0.233704
      6 H                     0.216773
      7 C                    -0.227419
      8 H                     0.213739
      9 C                    -0.306509
     10 H                     0.259200
     11 C                     0.441127
     12 N                    -0.719716
     13 C                     0.447799
     14 C                    -0.309027
     15 H                     0.256203
     16 C                    -0.222384
     17 H                     0.215600
     18 C                    -0.235473
     19 H                     0.217541
     20 C                    -0.242118
     21 H                     0.229003
     22 C                    -0.203695
     23 C                     0.154790
     24 C                    -0.282424
     25 H                     0.228204
     26 C                    -0.289799
     27 H                     0.233507
     28 C                     0.030476
     29 C                     0.062252
     30 C                    -0.202221
     31 C                    -0.760952
     32 H                     0.242475
     33 H                     0.248746
     34 H                     0.249144
     35 C                    -0.545760
     36 H                     0.251310
     37 H                     0.234656
     38 C                    -0.648547
     39 H                     0.241761
     40 H                     0.223450
     41 H                     0.220279
     42 B                     0.665701
     43 C                    -0.142430
     44 C                    -0.407318
     45 H                     0.231150
     46 C                     0.115922
     47 C                     0.098861
     48 C                    -0.381926
     49 H                     0.226805
     50 C                    -0.154714
     51 C                     0.196138
     52 C                    -0.373482
     53 H                     0.218092
     54 C                    -0.064786
     55 C                     0.252959
     56 C                     0.197693
     57 C                    -0.383222
     58 H                     0.218782
     59 C                    -0.205116
     60 H                     0.229468
     61 C                    -0.330510
     62 H                     0.223984
     63 C                    -0.202591
     64 H                     0.229292
     65 C                    -0.334515
     66 H                     0.224117
     67 B                     0.673818
     68 C                    -0.143774
     69 C                    -0.398439
     70 H                     0.231946
     71 C                     0.098687
     72 C                     0.116110
     73 C                    -0.386707
     74 H                     0.232656
     75 C                    -0.148735
     76 C                     0.198777
     77 C                    -0.377742
     78 H                     0.217085
     79 C                    -0.065847
     80 C                     0.251476
     81 C                     0.200872
     82 C                    -0.388896
     83 H                     0.226174
     84 C                    -0.203659
     85 H                     0.229183
     86 C                    -0.330815
     87 H                     0.224045
     88 C                    -0.205084
     89 H                     0.229881
     90 C                    -0.333310
     91 H                     0.224170
     92 C                    -0.214414
     93 C                     0.054397
     94 C                    -0.279141
     95 H                     0.227966
     96 C                     0.163755
     97 C                    -0.293033
     98 H                     0.233004
     99 C                     0.037627
    100 N                    -0.721513
    101 C                     0.442771
    102 C                     0.441248
    103 C                    -0.305218
    104 H                     0.254238
    105 C                    -0.220867
    106 H                     0.211541
    107 C                    -0.234708
    108 H                     0.217296
    109 C                    -0.241502
    110 H                     0.229310
    111 C                    -0.200651
    112 C                    -0.306771
    113 H                     0.253754
    114 C                    -0.220253
    115 H                     0.212518
    116 C                    -0.235150
    117 H                     0.217481
    118 C                    -0.241377
    119 H                     0.229137
    120 C                    -0.200414
    121 C                    -0.759860
    122 H                     0.242354
    123 H                     0.247914
    124 H                     0.247703
    125 C                    -0.548525
    126 H                     0.252429
    127 H                     0.236108
    128 C                    -0.645243
    129 H                     0.238691
    130 H                     0.223476
    131 H                     0.220149
    132 S                     0.168443
  ----------------------------------------
  Sum of atomic charges =    -0.000000

                    Cartesian Multipole Moments
 -----------------------------------------------------------------
    Charge (ESU x 10^10)
                -0.0000
    Dipole Moment (Debye)
         X      -0.5946      Y       0.0917      Z      -0.4346
       Tot       0.7422
    Quadrupole Moments (Debye-Ang)
        XX    -434.4175     XY     -17.9559     YY    -482.6150
        XZ      58.0038     YZ      -8.4596     ZZ    -475.2280

 Total job time:  23684.27s(wall), 67686.56s(cpu)
        *  Thank you very much for using Q-Chem.  Have a nice day.  *
