 Q-Chem 5.0, Q-Chem, Inc., Pleasanton, CA (2017)
 Q-Chem 5.0.1 for Intel X86 EM64T Linux

User input:
--------------------------------------------------------------
$solvent
dielectric      2.03
dielectric_infi 2.02
$end

$rem
threads 8
jobtype	sp
method PBEh-3c
basis def2-mSVP
mem_static	1024
mem_total	14000
sym_ignore	true
cis_n_roots             2
cis_singlets            false
cis_triplets		true
rpa                     false
calc_soc 		true
cis_moments             true
cis_relaxed_density	true
solvent_method		pcm
$end

$pcm
StateSpecific   1
ChargeSeparation Excited
$end

$molecule
read ut1opt_chx.mol
$end

--------------------------------------------------------------

   15   -3799.4378500970      5.99E-09 Convergence criterion met
 Total energy in the final basis set = -3799.43785010
 Total job time:  18391.74s(wall), 32043.07s(cpu)
        *  Thank you very much for using Q-Chem.  Have a nice day.  *
 Q-Chem 5.0, Q-Chem, Inc., Pleasanton, CA (2017)
 Q-Chem 5.0.1 for Intel X86 EM64T Linux

User input:
--------------------------------------------------------------
$rem
threads 8
jobtype sp
method PBEh-3c
basis def2-mSVP
mem_static      1024
mem_total       14000
sym_ignore      true
cis_n_roots             6
cis_singlets            true
cis_triplets            true
rpa                     false
calc_soc                true
cis_moments             true
cis_relaxed_density     true
solvent_method          pcm
$end

$molecule
read
$end

$pcm
statespecific           Marcus
$end

$solvent
dielectric      2.03
dielectric_infi 2.02
$end

--------------------------------------------------------------

             Standard Nuclear Orientation (Angstroms)
    I     Atom           X                Y                Z
 ----------------------------------------------------------------
    1      S       0.0000000000     0.0000000000     0.0000000000
    2      C       0.0000000000     0.0000000000     1.7578030000
    3      C       1.2101942901     0.0000000000     2.4331209624
    4      H       2.1274037434     0.1201554126     1.8698887899
    5      C       1.2499192009    -0.1836688027     3.8065379361
    6      H       2.1983326289    -0.2048483145     4.3260489305
    7      C       0.0590172117    -0.3496567050     4.4922222992
    8      H       0.0642002391    -0.5064160328     5.5629677811
    9      C      -1.1575404292    -0.3043894045     3.8276220375
   10      H      -2.0681774154    -0.4287624811     4.3951504812
   11      C      -1.2126200419    -0.1200760899     2.4456695256
   12      N      -2.4286370000    -0.0658787183     1.7523816583
   13      C      -2.5718417600     0.7133374510     0.5956003979
   14      C      -3.7824762875     1.3185567635     0.2581336579
   15      H      -4.6513752065     1.1775558153     0.8843379360
   16      C      -3.8935118790     2.0957916427    -0.8851846835
   17      H      -4.8495997194     2.5438618339    -1.1218833773
   18      C      -2.7997652010     2.3127918917    -1.7058634578
   19      H      -2.8822412403     2.9304867324    -2.5898177734
   20      C      -1.5905503642     1.7179930641    -1.3816017372
   21      H      -0.7213132001     1.8651854364    -2.0106468950
   22      C      -1.4840717456     0.9061290147    -0.2637449530
   23      C      -3.6157271673    -0.4509532831     2.4457515931
   24      C      -4.1460269046    -1.7051670203     2.2248318782
   25      H      -3.6410140937    -2.3764685944     1.5383976764
   26      C      -4.2495790186     0.4217547202     3.3205612335
   27      H      -3.8270327034     1.4069863644     3.4890253832
   28      C      -5.4200349958     0.0446277468     3.9636375085
   29      C      -5.3222254534    -2.0990876223     2.8611196250
   30      C      -5.9793764742    -1.2247987390     3.7333238770
   31      C      -6.0929572934     1.0078160013     4.9003905054
   32      H      -5.5545624110     1.9540929653     4.9545838855
   33      H      -6.1558519480     0.5989031626     5.9105492782
   34      H      -7.1155780760     1.2216069768     4.5834080644
   35      C      -5.8338989726    -3.4929991672     2.6060639170
   36      H      -6.8986120088    -3.5526653249     2.8408863878
   37      H      -5.7425185299    -3.7252022091     1.5411969414
   38      C      -5.0747338999    -4.5406870156     3.4168806978
   39      H      -5.1867954828    -4.3633819576     4.4865010408
   40      H      -5.4458613774    -5.5442344885     3.2048634139
   41      H      -4.0085171914    -4.5231724659     3.1855874050
   42      B      -7.3479211361    -1.6173033377     4.4303440579
   43      C      -7.3650946600    -2.2576044195     5.8214453616
   44      C      -6.1577798734    -2.5484043772     6.4851970985
   45      H      -5.2151077455    -2.3019806864     6.0056055596
   46      C      -6.1621021839    -3.1428586514     7.7222638847
   47      C      -7.3980023983    -3.4678251911     8.3566142016
   48      C      -8.5849440372    -3.1869400985     7.7279448439
   49      H      -9.5205394054    -3.4398341297     8.2165644792
   50      C      -8.6069508562    -2.5763198914     6.4544431997
   51      C      -5.0738977374    -3.5587603339     8.6007842375
   52      C      -3.7014845189    -3.5198810440     8.5443539490
   53      H      -3.1756911833    -3.1025304990     7.6941627248
   54      C      -5.6827018964    -4.1204864563     9.7422850183
   55      C      -4.9791135342    -4.6405918088    10.8262310764
   56      C      -7.0893686343    -4.0865893358     9.6454391780
   57      C      -7.8204666749    -4.5935693694    10.6916999003
   58      H      -8.9039209153    -4.5896738940    10.6828974425
   59      C      -2.9634598687    -4.0434303225     9.6306116194
   60      H      -1.8820226982    -4.0122951755     9.5819964851
   61      C      -3.5655345691    -4.5884898243    10.7417464615
   62      H      -2.9580180758    -4.9773983293    11.5500788665
   63      C      -7.1339868559    -5.1265833064    11.8070198644
   64      H      -7.7135024237    -5.5243282560    12.6308643311
   65      C      -5.7602788943    -5.1583067084    11.8870872486
   66      H      -5.2770027663    -5.5771671219    12.7616126632
   67      B      -9.9302346469    -2.2588335443     5.7463420159
   68      C      -9.9258187988    -1.6416340729     4.3445858127
   69      C     -11.1264532247    -1.3746940171     3.6488068731
   70      H     -12.0761834724    -1.5997711101     4.1252801579
   71      C     -11.1065650195    -0.8392136343     2.3831956138
   72      C      -9.8580453629    -0.5403740915     1.7633197698
   73      C      -8.6791934385    -0.7831831819     2.4226390383
   74      H      -7.7321791883    -0.5545593746     1.9436039310
   75      C      -8.6787648744    -1.3370588606     3.7154226230
   76      C     -10.1193654118    -0.0008057924     0.4365442265
   77      C      -9.3383765969     0.4412587233    -0.6025240266
   78      H      -8.2564935532     0.4432048346    -0.5436226560
   79      C     -11.5209197027     0.0173821374     0.2868224374
   80      C     -12.1743880553     0.4596736398    -0.8592998044
   81      C     -12.1666474164    -0.4813514271     1.4382294076
   82      C     -13.5377817087    -0.5355058348     1.4346449942
   83      H     -14.0947643687    -0.9118730112     2.2838734771
   84      C      -9.9776814428     0.8983771538    -1.7773027768
   85      H      -9.3627401835     1.2464181263    -2.5978648805
   86      C     -11.3470374443     0.9143849031    -1.9166511046
   87      H     -11.7915349282     1.2723083767    -2.8373408876
   88      C     -14.2318462303    -0.0892072095     0.2854241394
   89      H     -15.3136554253    -0.1336557207     0.2869374522
   90      C     -13.5884020087     0.3946153692    -0.8312217433
   91      H     -14.1638978526     0.7226730389    -1.6883011429
   92      C     -11.2796040067    -2.6332928559     6.4967310465
   93      C     -11.7982219327    -1.8149020004     7.5127069638
   94      C     -12.8993239060    -2.2322018185     8.2548050475
   95      H     -13.2833739672    -1.6175104354     9.0611693701
   96      C     -13.4767825866    -3.4551308535     7.9750546387
   97      C     -13.0075490511    -4.2685176791     6.9613574716
   98      H     -13.4746519500    -5.2281764943     6.7714677881
   99      C     -11.9059476831    -3.8595365828     6.2179986493
  100      N     -14.5515776813    -3.9286907410     8.8067625459
  101      C     -15.8310704733    -3.5454464450     8.4771798218
  102      C     -14.2038755805    -4.7293387790     9.8721156258
  103      C     -16.9494091284    -3.9237830137     9.2442093814
  104      C     -18.2309809800    -3.4976010550     8.8850332788
  105      H     -19.0788692335    -3.7951860653     9.4888034669
  106      C     -18.4117743669    -2.7092399704     7.7750805095
  107      H     -19.4049537442    -2.3815065612     7.5026606423
  108      C     -17.3081347632    -2.3381949699     6.9998621798
  109      H     -17.4456328956    -1.7232707872     6.1214919144
  110      C     -16.0436519123    -2.7451300998     7.3379813888
  111      H     -15.2043330858    -2.4489523193     6.7266360207
  112      C     -15.1593600638    -5.2494784011    10.7662540588
  113      C     -14.7673099505    -6.0683530988    11.8292473865
  114      H     -15.5177937593    -6.4591711664    12.5045600733
  115      C     -13.4415097636    -6.3725455893    12.0167723084
  116      H     -13.1437108987    -7.0075340022    12.8392843300
  117      C     -12.4821909173    -5.8532414362    11.1413675490
  118      H     -11.4356794546    -6.0852672643    11.2847381682
  119      C     -12.8482178481    -5.0484826351    10.0938731921
  120      H     -12.0850480502    -4.6630026182     9.4354392442
  121      C     -11.3595603585    -4.7582223694     5.1458352448
  122      H     -11.9133216206    -5.6947675595     5.0824157548
  123      H     -11.3954407242    -4.2769756294     4.1677742854
  124      H     -10.3110748962    -4.9954503464     5.3342162858
  125      C     -11.1708985284    -0.4814209377     7.8219347712
  126      H     -10.0837928794    -0.5706434500     7.7750983531
  127      H     -11.4132199040    -0.1918508475     8.8478321672
  128      C     -11.6270421591     0.6162014473     6.8631114526
  129      H     -11.3356715049     0.3898148056     5.8380976451
  130      H     -11.1752243041     1.5718356717     7.1302412334
  131      H     -12.7109917924     0.7395634084     6.8872571113
  132      S     -16.8414572950    -4.9172186858    10.6442720648
 ----------------------------------------------------------------

   15   -3799.4377469109      6.01E-09 Convergence criterion met
 Total energy in the final basis set = -3799.43774691

         TDDFT/TDA Excitation Energies
 ---------------------------------------------------

 Excited state   1: excitation energy (eV) =    2.0072
 Total energy for state  1:                 -3799.36398334 au
    Multiplicity: Triplet
    Trans. Mom.:  0.0000 X   0.0000 Y   0.0000 Z
    Strength   :     0.0000000000
    D(276) --> V(  1) amplitude =  0.9983

 Excited state   2: excitation energy (eV) =    2.0076
 Total energy for state  2:                 -3799.36397032 au
    Multiplicity: Singlet
    Trans. Mom.:  0.0487 X   0.0186 Y  -0.0337 Z
    Strength   :     0.0001896554
    D(276) --> V(  1) amplitude =  0.9983

 Excited state   3: excitation energy (eV) =    2.1851
 Total energy for state  3:                 -3799.35744439 au
    Multiplicity: Triplet
    Trans. Mom.:  0.0000 X   0.0000 Y   0.0000 Z
    Strength   :     0.0000000000
    D(273) --> V(  1) amplitude =  0.8830
    D(274) --> V(  1) amplitude =  0.2715

 Excited state   4: excitation energy (eV) =    2.4034
 Total energy for state  4:                 -3799.34942445 au
    Multiplicity: Triplet
    Trans. Mom.:  0.0000 X   0.0000 Y   0.0000 Z
    Strength   :     0.0000000000
    D(271) --> V(  2) amplitude = -0.4578
    D(273) --> V(  1) amplitude = -0.2499
    D(274) --> V(  1) amplitude =  0.7800

 Excited state   5: excitation energy (eV) =    2.4697
 Total energy for state  5:                 -3799.34698535 au
    Multiplicity: Triplet
    Trans. Mom.:  0.0000 X   0.0000 Y   0.0000 Z
    Strength   :     0.0000000000
    D(271) --> V(  1) amplitude =  0.7508
    D(271) --> V(  4) amplitude =  0.2338
    D(274) --> V(  2) amplitude = -0.5291

 Excited state   6: excitation energy (eV) =    2.6413
 Total energy for state  6:                 -3799.34068031 au
    Multiplicity: Triplet
    Trans. Mom.:  0.0000 X   0.0000 Y   0.0000 Z
    Strength   :     0.0000000000
    D(275) --> V(  1) amplitude =  0.9973

 Excited state   7: excitation energy (eV) =    2.6417
 Total energy for state  7:                 -3799.34066795 au
    Multiplicity: Singlet
    Trans. Mom.: -0.0103 X   0.0006 Y   0.0046 Z
    Strength   :     0.0000082859
    D(275) --> V(  1) amplitude =  0.9981

 Excited state   8: excitation energy (eV) =    2.6521
 Total energy for state  8:                 -3799.34028299 au
    Multiplicity: Triplet
    Trans. Mom.:  0.0000 X   0.0000 Y   0.0000 Z
    Strength   :     0.0000000000
    D(276) --> V(  5) amplitude =  0.3679
    D(276) --> V(  6) amplitude =  0.8407
    D(276) --> V( 11) amplitude = -0.2186

 Excited state   9: excitation energy (eV) =    2.8364
 Total energy for state  9:                 -3799.33350991 au
    Multiplicity: Singlet
    Trans. Mom.:  0.1348 X  -0.0832 Y   0.2046 Z
    Strength   :     0.0046543849
    D(273) --> V(  1) amplitude =  0.9319
    D(274) --> V(  1) amplitude =  0.2676

 Excited state  10: excitation energy (eV) =    3.0805
 Total energy for state 10:                 -3799.32454064 au
    Multiplicity: Singlet
    Trans. Mom.:  1.9612 X  -1.4049 Y   3.2402 Z
    Strength   :     1.2316242704
    D(273) --> V(  1) amplitude = -0.2647
    D(274) --> V(  1) amplitude =  0.9225

 Excited state  11: excitation energy (eV) =    3.1182
 Total energy for state 11:                 -3799.32315446 au
    Multiplicity: Singlet
    Trans. Mom.: -0.0226 X   0.0084 Y  -0.0189 Z
    Strength   :     0.0000716021
    D(276) --> V(  2) amplitude =  0.9973

 Excited state  12: excitation energy (eV) =    3.3643
 Total energy for state 12:                 -3799.31411055 au
    Multiplicity: Singlet
    Trans. Mom.:  0.0008 X  -0.0785 Y   0.1432 Z
    Strength   :     0.0021980218
    D(271) --> V(  1) amplitude =  0.3801
    D(276) --> V(  5) amplitude =  0.3486
    D(276) --> V(  6) amplitude =  0.7748

 ---------------------------------------------------

                    Orbital Energies (a.u.)
 --------------------------------------------------------------

 Alpha MOs
 -- Occupied --
-89.597 -89.597 -14.685 -14.684 -10.507 -10.506 -10.504 -10.504
-10.490 -10.489 -10.484 -10.484 -10.482 -10.482 -10.472 -10.472
-10.471 -10.471 -10.470 -10.470 -10.470 -10.470 -10.470 -10.470
-10.468 -10.468 -10.467 -10.467 -10.467 -10.466 -10.466 -10.466
-10.464 -10.464 -10.464 -10.463 -10.463 -10.463 -10.463 -10.462
-10.462 -10.461 -10.461 -10.460 -10.455 -10.454 -10.454 -10.454
-10.453 -10.453 -10.451 -10.450 -10.449 -10.449 -10.448 -10.448
-10.448 -10.447 -10.447 -10.447 -10.447 -10.446 -10.446 -10.445
-10.445 -10.444 -10.443 -10.443 -10.443 -10.442 -10.441 -10.440
-10.437 -10.437 -10.434 -10.433 -10.425 -10.425  -8.239  -8.237
 -6.956  -6.955  -6.130  -6.128  -6.126  -6.125  -6.121  -6.119
 -1.100  -1.093  -1.022  -1.021  -0.979  -0.978  -0.970  -0.969
 -0.968  -0.965  -0.957  -0.955  -0.938  -0.938  -0.915  -0.907
 -0.905  -0.903  -0.892  -0.891  -0.869  -0.864  -0.862  -0.862
 -0.859  -0.859  -0.852  -0.851  -0.847  -0.846  -0.830  -0.823
 -0.823  -0.821  -0.818  -0.812  -0.811  -0.810  -0.776  -0.776
 -0.768  -0.765  -0.742  -0.738  -0.732  -0.726  -0.724  -0.722
 -0.722  -0.715  -0.714  -0.713  -0.694  -0.687  -0.685  -0.682
 -0.680  -0.673  -0.660  -0.653  -0.652  -0.651  -0.646  -0.645
 -0.635  -0.632  -0.625  -0.619  -0.602  -0.601  -0.596  -0.593
 -0.591  -0.591  -0.588  -0.581  -0.581  -0.563  -0.562  -0.559
 -0.554  -0.549  -0.547  -0.547  -0.540  -0.537  -0.533  -0.532
 -0.530  -0.528  -0.527  -0.521  -0.516  -0.515  -0.509  -0.507
 -0.504  -0.501  -0.500  -0.500  -0.499  -0.498  -0.498  -0.497
 -0.496  -0.491  -0.490  -0.490  -0.486  -0.484  -0.483  -0.483
 -0.482  -0.480  -0.479  -0.478  -0.476  -0.473  -0.471  -0.470
 -0.464  -0.460  -0.454  -0.451  -0.448  -0.446  -0.445  -0.444
 -0.442  -0.440  -0.436  -0.435  -0.433  -0.432  -0.431  -0.429
 -0.427  -0.426  -0.425  -0.418  -0.418  -0.417  -0.405  -0.403
 -0.403  -0.402  -0.401  -0.400  -0.400  -0.398  -0.398  -0.396
 -0.393  -0.391  -0.390  -0.387  -0.386  -0.383  -0.381  -0.378
 -0.375  -0.371  -0.366  -0.365  -0.360  -0.356  -0.349  -0.346
 -0.328  -0.322  -0.311  -0.307  -0.305  -0.301  -0.301  -0.300
 -0.289  -0.287  -0.285  -0.285  -0.284  -0.270  -0.268  -0.267
 -0.263  -0.261  -0.226  -0.203

          Ground-State Mulliken Net Atomic Charges

     Atom                 Charge (a.u.)
  ----------------------------------------
      1 S                     0.132696
      2 C                    -0.200002
      3 C                    -0.258021
      4 H                     0.248678
      5 C                    -0.249962
      6 H                     0.236993
      7 C                    -0.237547
      8 H                     0.236637
      9 C                    -0.310199
     10 H                     0.265610
     11 C                     0.421778
     12 N                    -0.707764
     13 C                     0.419454
     14 C                    -0.307349
     15 H                     0.265763
     16 C                    -0.239000
     17 H                     0.236471
     18 C                    -0.249467
     19 H                     0.237002
     20 C                    -0.257887
     21 H                     0.248937
     22 C                    -0.198483
     23 C                     0.215887
     24 C                    -0.309122
     25 H                     0.237438
     26 C                    -0.328147
     27 H                     0.249996
     28 C                     0.035699
     29 C                     0.053459
     30 C                    -0.214654
     31 C                    -0.767413
     32 H                     0.250193
     33 H                     0.248984
     34 H                     0.250050
     35 C                    -0.548938
     36 H                     0.253094
     37 H                     0.242883
     38 C                    -0.650236
     39 H                     0.233442
     40 H                     0.227613
     41 H                     0.223788
     42 B                     0.678937
     43 C                    -0.148627
     44 C                    -0.399087
     45 H                     0.241636
     46 C                     0.089379
     47 C                     0.104499
     48 C                    -0.390799
     49 H                     0.243218
     50 C                    -0.150321
     51 C                     0.188223
     52 C                    -0.385307
     53 H                     0.239127
     54 C                    -0.067716
     55 C                     0.233492
     56 C                     0.188762
     57 C                    -0.391862
     58 H                     0.241572
     59 C                    -0.221083
     60 H                     0.246651
     61 C                    -0.338957
     62 H                     0.243260
     63 C                    -0.220478
     64 H                     0.246241
     65 C                    -0.341598
     66 H                     0.243318
     67 B                     0.666905
     68 C                    -0.145254
     69 C                    -0.405478
     70 H                     0.241630
     71 C                     0.105333
     72 C                     0.088067
     73 C                    -0.387387
     74 H                     0.239143
     75 C                    -0.158141
     76 C                     0.184970
     77 C                    -0.381407
     78 H                     0.239666
     79 C                    -0.066354
     80 C                     0.234677
     81 C                     0.187741
     82 C                    -0.390500
     83 H                     0.238615
     84 C                    -0.222544
     85 H                     0.246778
     86 C                    -0.338505
     87 H                     0.243000
     88 C                    -0.219425
     89 H                     0.246437
     90 C                    -0.343124
     91 H                     0.243162
     92 C                    -0.202992
     93 C                     0.055074
     94 C                    -0.290417
     95 H                     0.243119
     96 C                     0.145392
     97 C                    -0.292981
     98 H                     0.245920
     99 C                     0.026090
    100 N                    -0.713653
    101 C                     0.442870
    102 C                     0.437213
    103 C                    -0.218093
    104 C                    -0.253404
    105 H                     0.247326
    106 C                    -0.254164
    107 H                     0.234322
    108 C                    -0.240010
    109 H                     0.234235
    110 C                    -0.316952
    111 H                     0.269128
    112 C                    -0.216167
    113 C                    -0.253457
    114 H                     0.247477
    115 C                    -0.253176
    116 H                     0.234064
    117 C                    -0.241730
    118 H                     0.232612
    119 C                    -0.315313
    120 H                     0.272257
    121 C                    -0.768278
    122 H                     0.250877
    123 H                     0.250876
    124 H                     0.250860
    125 C                    -0.549530
    126 H                     0.253227
    127 H                     0.242151
    128 C                    -0.656177
    129 H                     0.241054
    130 H                     0.227714
    131 H                     0.222759
    132 S                     0.171039
  ----------------------------------------
  Sum of atomic charges =    -0.000000

                    Cartesian Multipole Moments
 -----------------------------------------------------------------
    Charge (ESU x 10^10)
                -0.0000
    Dipole Moment (Debye)
         X       0.3335      Y       0.9416      Z      -0.3704
       Tot       1.0654
    Quadrupole Moments (Debye-Ang)
        XX    -479.7239     XY     -33.3350     YY    -475.1182
        XZ      63.0076     YZ     -18.9996     ZZ    -437.8341

 Total job time:  26832.94s(wall), 75497.40s(cpu)
        *  Thank you very much for using Q-Chem.  Have a nice day.  *
