 Q-Chem 5.0, Q-Chem, Inc., Pleasanton, CA (2017)
 Q-Chem 5.0.1 for Intel X86 EM64T Linux

User input:
--------------------------------------------------------------
$rem
threads 8
jobtype	sp
method PBEh-3c
basis def2-mSVP
mem_static	1024
mem_total	8000
sym_ignore	true
unrestricted true
scf_convergence	9
solvent_method	pcm
$end

$molecule
read incoords.mol
$end

$solvent
dielectric	2.38
$end

$pcm
theory iefpcm
$end
--------------------------------------------------------------

   17   -2202.2596093218      4.72E-10 Convergence criterion met
 Total energy in the final basis set = -2202.25960932
 Total job time:  2248.72s(wall), 6579.59s(cpu)
        *  Thank you very much for using Q-Chem.  Have a nice day.  *
 Q-Chem 5.0, Q-Chem, Inc., Pleasanton, CA (2017)
 Q-Chem 5.0.1 for Intel X86 EM64T Linux

User input:
--------------------------------------------------------------

$rem
threads 8
jobtype opt
method PBEh-3c
basis def2-mSVP
scf_guess	read
mem_static      1024
mem_total       8000
sym_ignore      true
unrestricted true
mom_start       1
scf_algorithm	diis
scf_max_cycles	250
solvent_method	pcm
geom_opt_tol_energy 25
geom_opt_tol_gradient 75
$end

$solvent
dielectric      2.38
$end

$pcm
theory iefpcm
$end

$occupied
1 2 3 4 5 6 7 8 9 10 11 12 13 14 15 16 17 18 19 20 21 22 23 24 25 26 27 28 29 30 31 32 33 34 35 36 37 38 39 40 41 42 43 44 45 46 47 48 49 50 51 52 53 54 55 56 57 58 59 60 61 62 63 64 65 66 67 68 69 70 71 72 73 74 75 76 77 78 79 80 81 82 83 84 85 86 87 88 89 90 91 92 93 94 95 96 97 98 99 100 101 102 103 104 105 106 107 108 109 110 111 112 113 114 115 116 117 118 119 120 121 122 123 124 125 126 127 128 129 130 131 132 133 134 135 136 137 138 139 140 141 142 143 144 145 146 147 148 149 150 151 152 153 154 155 156 157 158 159 160 161 162 163 164 165 166 167 168 169 170 171 172 173 174 175 176 177 178 179 180 181 182 183 184 185 186 187 188 189  191
1 2 3 4 5 6 7 8 9 10 11 12 13 14 15 16 17 18 19 20 21 22 23 24 25 26 27 28 29 30 31 32 33 34 35 36 37 38 39 40 41 42 43 44 45 46 47 48 49 50 51 52 53 54 55 56 57 58 59 60 61 62 63 64 65 66 67 68 69 70 71 72 73 74 75 76 77 78 79 80 81 82 83 84 85 86 87 88 89 90 91 92 93 94 95 96 97 98 99 100 101 102 103 104 105 106 107 108 109 110 111 112 113 114 115 116 117 118 119 120 121 122 123 124 125 126 127 128 129 130 131 132 133 134 135 136 137 138 139 140 141 142 143 144 145 146 147 148 149 150 151 152 153 154 155 156 157 158 159 160 161 162 163 164 165 166 167 168 169 170 171 172 173 174 175 176 177 178 179 180 181 182 183 184 185 186 187 188 189 190
$end

$molecule
read
$end

--------------------------------------------------------------

   21   -2202.1767945922      8.34E-09 Convergence criterion met
 Total energy in the final basis set = -2202.17679459
   17   -2202.1783966187      9.54E-09 Convergence criterion met
 Total energy in the final basis set = -2202.17839662
   17   -2202.1784941593      9.51E-09 Convergence criterion met
 Total energy in the final basis set = -2202.17849416
   17   -2202.1787950347      8.42E-09 Convergence criterion met
 Total energy in the final basis set = -2202.17879503
   17   -2202.1789090572      6.57E-09 Convergence criterion met
 Total energy in the final basis set = -2202.17890906
   17   -2202.1790335903      6.97E-09 Convergence criterion met
 Total energy in the final basis set = -2202.17903359
   16   -2202.1790137398      9.13E-09 Convergence criterion met
 Total energy in the final basis set = -2202.17901374
   16   -2202.1790108528      9.13E-09 Convergence criterion met
 Total energy in the final basis set = -2202.17901085
   16   -2202.1790245183      9.28E-09 Convergence criterion met
 Total energy in the final basis set = -2202.17902452

             Standard Nuclear Orientation (Angstroms)
    I     Atom           X                Y                Z
 ----------------------------------------------------------------
    1      C       0.0331229116    -0.4000811596     0.0692702633
    2      C       0.0370051315    -0.3560010649     1.4858415545
    3      H       0.9803010476    -0.3665971569     2.0256007678
    4      C      -1.1406035119    -0.2980635566     2.1890035363
    5      C      -2.3806055149    -0.2769783700     1.4846928997
    6      C      -2.4058024824    -0.3224520694     0.1123303742
    7      H      -3.3552347143    -0.3108323509    -0.4138181157
    8      C      -1.2138386264    -0.3884876764    -0.6294696294
    9      C      -3.4612415259    -0.2101549428     2.4569586647
   10      C      -4.8311938036    -0.1643780666     2.3802268416
   11      H      -5.3500907299    -0.1733315924     1.4294383632
   12      C      -2.8517363426    -0.1942525881     3.7266651942
   13      C      -3.5576772927    -0.1355604940     4.9245591783
   14      C      -1.4462296546    -0.2461032636     3.6215199847
   15      C      -0.7145082428    -0.2388338505     4.7813108582
   16      H       0.3678024617    -0.2774744756     4.7744405659
   17      C      -1.4023626154    -0.1799098298     6.0166079046
   18      H      -0.8208361158    -0.1750607897     6.9296892985
   19      C      -2.7750793044    -0.1293077485     6.1033877057
   20      H      -3.2547717493    -0.0854336455     7.0735915161
   21      C      -5.5719145285    -0.1043675615     3.5824154992
   22      H      -6.6524496340    -0.0686191189     3.5225164109
   23      C      -4.9706751857    -0.0898648503     4.8204468195
   24      H      -5.5791963828    -0.0435642649     5.7153538925
   25      B       1.3265688952    -0.4661334013    -0.7395383588
   26      C       1.3153750378    -0.5621390688    -2.2641873456
   27      C       2.5125067662    -0.6639714322    -3.0148026199
   28      H       3.4714338644    -0.6875679192    -2.5040100503
   29      C       2.4751056677    -0.7341978102    -4.3854359061
   30      C       1.2178634166    -0.6952302457    -5.0569979329
   31      C       0.0465581252    -0.6006939474    -4.3482059654
   32      H      -0.9033565658    -0.5743446938    -4.8721106823
   33      C       0.0595130825    -0.5401611399    -2.9448372490
   34      C       1.4575228584    -0.7756811025    -6.4909905246
   35      C       0.6607071393    -0.7822177407    -7.6093785532
   36      H      -0.4182173314    -0.7148645631    -7.5415499480
   37      C       2.8532935791    -0.8656667402    -6.6541027973
   38      C       3.4840137630    -0.9644130831    -7.8923101791
   39      C       3.5194334474    -0.8456873038    -5.4112490116
   40      C       4.8888678038    -0.9306905762    -5.4175462123
   41      H       5.4661275781    -0.9240563490    -4.5012722870
   42      C       1.2765358055    -0.8803745752    -8.8783632029
   43      H       0.6470252701    -0.8852084346    -9.7593993435
   44      C       2.6409637342    -0.9698074182    -9.0317043584
   45      H       3.0705171244    -1.0437315303   -10.0234805825
   46      C       5.5596559781    -1.0316332856    -6.6597639864
   47      H       6.6401783958    -1.0987023389    -6.6572528605
   48      C       4.8957687036    -1.0492636125    -7.8649993227
   49      H       5.4533324240    -1.1291395069    -8.7904281073
   50      B      -1.2648130569    -0.4509836013    -2.1665348957
   51      C       2.7096423831    -0.4657002750     0.0057924725
   52      C       3.4537432943     0.7510112393     0.2009177067
   53      C       4.6122830043     0.7409757303     0.9297311253
   54      H       5.1597141957     1.6626703970     1.0776279183
   55      C       5.0849334554    -0.4745554745     1.4693901294
   56      O       6.1690575173    -0.5829238778     2.1876688951
   57      C       4.3916354061    -1.6938312570     1.2375609542
   58      H       4.8042661282    -2.6049406562     1.6532816206
   59      C       3.2405634986    -1.7016854059     0.5094081478
   60      C       6.9616167787     0.5614734892     2.5023420749
   61      H       7.7766523135     0.1965743237     3.1187235385
   62      H       7.3657655575     1.0162490460     1.5977222144
   63      H       6.3819130464     1.2952579541     3.0625031041
   64      C       2.5009844539    -2.9710677029     0.2393594438
   65      H       3.0366413663    -3.8384128609     0.6215869526
   66      H       2.3424298842    -3.1030468534    -0.8321871220
   67      H       1.5104188363    -2.9460183893     0.6965668069
   68      C       2.9391697470     2.0364323439    -0.3697855840
   69      H       2.4583383274     1.8449467831    -1.3305748020
   70      H       3.7803515095     2.7059392994    -0.5613850296
   71      C       1.9417738471     2.7245681064     0.5653818038
   72      H       1.0582098636     2.1099980387     0.7294286814
   73      H       1.6127491172     3.6655977993     0.1260045256
   74      H       2.3916109256     2.9426049187     1.5344669364
   75      C      -2.6445994225    -0.4011912806    -2.9417495570
   76      C      -3.2800838428    -1.5571578052    -3.3978633061
   77      C      -4.4886201739    -1.4891223299    -4.0958656376
   78      H      -4.9440331488    -2.4133532946    -4.4320119765
   79      C      -5.0796477815    -0.2630159821    -4.3532693705
   80      O      -6.2452758153    -0.0973819973    -5.0200655137
   81      C      -4.4514834730     0.8999893774    -3.9129313750
   82      H      -4.9116524909     1.8582496192    -4.1257996343
   83      C      -3.2549210230     0.8367787937    -3.2188334208
   84      C      -6.9209713585    -1.2424413904    -5.4740785909
   85      H      -7.8297399249    -0.8959596037    -5.9622834556
   86      H      -7.1999767849    -1.9120298024    -4.6542805100
   87      H      -6.3324654113    -1.8118652313    -6.2006447283
   88      C      -2.5969798247     2.1112859583    -2.7696964534
   89      H      -3.1603759367     2.9892940152    -3.0856653609
   90      H      -1.5874566393     2.1987504465    -3.1770385644
   91      H      -2.5030889831     2.1484237302    -1.6828372252
   92      C      -2.7133810058    -2.9253994814    -3.1145309870
   93      H      -1.6266093850    -2.8716070829    -3.0181868159
   94      H      -2.9103681391    -3.5857417330    -3.9639022696
   95      C      -3.3037970570    -3.5425144438    -1.8486853072
   96      H      -3.0828666519    -2.9277501564    -0.9759013184
   97      H      -4.3883299976    -3.6354678919    -1.9238598508
   98      H      -2.8941745179    -4.5375485878    -1.6687678031
 ----------------------------------------------------------------

   16   -2202.1790243864      9.25E-09 Convergence criterion met
 Total energy in the final basis set = -2202.17902439
 Final energy is   -2202.17902438635
 **  OPTIMIZATION CONVERGED  **

                    Orbital Energies (a.u.)
 --------------------------------------------------------------

 Alpha MOs
 -- Occupied --
-19.607 -19.514 -10.588 -10.531 -10.511 -10.505 -10.493 -10.492
-10.492 -10.487 -10.476 -10.455 -10.451 -10.451 -10.450 -10.450
-10.449 -10.449 -10.448 -10.448 -10.447 -10.447 -10.446 -10.446
-10.445 -10.445 -10.445 -10.445 -10.444 -10.444 -10.444 -10.442
-10.442 -10.439 -10.439 -10.436 -10.436 -10.435 -10.434 -10.434
-10.432 -10.432 -10.429 -10.429 -10.418 -10.418 -10.415 -10.415
-10.415 -10.409 -10.408 -10.406 -10.405 -10.397  -6.908  -6.900
 -1.260  -1.169  -1.004  -0.999  -0.999  -0.943  -0.940  -0.937
 -0.927  -0.919  -0.919  -0.902  -0.888  -0.880  -0.867  -0.857
 -0.842  -0.837  -0.836  -0.833  -0.832  -0.817  -0.804  -0.802
 -0.801  -0.795  -0.794  -0.784  -0.760  -0.747  -0.741  -0.718
 -0.714  -0.712  -0.703  -0.700  -0.693  -0.677  -0.673  -0.663
 -0.663  -0.647  -0.638  -0.634  -0.629  -0.628  -0.621  -0.612
 -0.595  -0.583  -0.579  -0.578  -0.573  -0.570  -0.567  -0.561
 -0.559  -0.554  -0.545  -0.536  -0.527  -0.524  -0.522  -0.522
 -0.515  -0.511  -0.510  -0.503  -0.500  -0.497  -0.491  -0.486
 -0.483  -0.482  -0.478  -0.476  -0.474  -0.473  -0.471  -0.470
 -0.469  -0.466  -0.464  -0.463  -0.460  -0.457  -0.454  -0.454
 -0.450  -0.449  -0.447  -0.440  -0.437  -0.429  -0.428  -0.423
 -0.418  -0.416  -0.411  -0.410  -0.408  -0.405  -0.401  -0.399
 -0.397  -0.393  -0.385  -0.383  -0.383  -0.382  -0.380  -0.378
 -0.372  -0.370  -0.358  -0.358  -0.354  -0.349  -0.343  -0.333
 -0.329  -0.321  -0.320  -0.307  -0.301  -0.285  -0.283  -0.270
 -0.260  -0.253  -0.242  -0.238  -0.234  -0.152

 Beta MOs
 -- Occupied --
-19.612 -19.514 -10.591 -10.530 -10.511 -10.504 -10.499 -10.494
-10.493 -10.487 -10.476 -10.455 -10.452 -10.452 -10.450 -10.450
-10.449 -10.449 -10.448 -10.448 -10.447 -10.447 -10.446 -10.446
-10.445 -10.445 -10.444 -10.444 -10.444 -10.444 -10.444 -10.442
-10.442 -10.439 -10.439 -10.434 -10.434 -10.434 -10.433 -10.433
-10.433 -10.432 -10.430 -10.430 -10.418 -10.418 -10.416 -10.416
-10.415 -10.409 -10.408 -10.404 -10.404 -10.397  -6.904  -6.897
 -1.271  -1.169  -1.013  -0.999  -0.998  -0.942  -0.939  -0.937
 -0.929  -0.918  -0.918  -0.911  -0.887  -0.880  -0.867  -0.858
 -0.842  -0.836  -0.835  -0.832  -0.831  -0.825  -0.805  -0.802
 -0.800  -0.795  -0.795  -0.783  -0.759  -0.747  -0.745  -0.717
 -0.713  -0.710  -0.703  -0.703  -0.693  -0.679  -0.673  -0.663
 -0.660  -0.646  -0.638  -0.638  -0.629  -0.628  -0.620  -0.615
 -0.604  -0.595  -0.578  -0.577  -0.572  -0.570  -0.568  -0.561
 -0.558  -0.554  -0.544  -0.538  -0.529  -0.525  -0.522  -0.522
 -0.516  -0.512  -0.510  -0.507  -0.501  -0.500  -0.491  -0.485
 -0.483  -0.482  -0.480  -0.477  -0.476  -0.474  -0.473  -0.468
 -0.468  -0.466  -0.465  -0.465  -0.463  -0.459  -0.455  -0.454
 -0.450  -0.450  -0.447  -0.441  -0.438  -0.429  -0.428  -0.423
 -0.416  -0.415  -0.411  -0.409  -0.408  -0.408  -0.405  -0.401
 -0.399  -0.397  -0.392  -0.383  -0.381  -0.380  -0.380  -0.378
 -0.373  -0.370  -0.359  -0.356  -0.352  -0.347  -0.344  -0.333
 -0.332  -0.327  -0.320  -0.304  -0.301  -0.296  -0.281  -0.281
 -0.260  -0.260  -0.245  -0.239  -0.234  -0.232

          Ground-State Mulliken Net Atomic Charges

     Atom                 Charge (a.u.)    Spin (a.u.)
  --------------------------------------------------------
      1 C                    -0.131283      -0.043472
      2 C                    -0.414035       0.012846
      3 H                     0.194955      -0.000489
      4 C                     0.089851       0.008469
      5 C                     0.068445       0.115955
      6 C                    -0.407334      -0.076331
      7 H                     0.232657       0.003146
      8 C                    -0.137367       0.083870
      9 C                     0.185709      -0.062809
     10 C                    -0.396637       0.089910
     11 H                     0.231635      -0.005267
     12 C                    -0.074951       0.022788
     13 C                     0.238712      -0.035871
     14 C                     0.188578      -0.035789
     15 C                    -0.405979       0.056224
     16 H                     0.215221      -0.003343
     17 C                    -0.216591      -0.039531
     18 H                     0.230257       0.001986
     19 C                    -0.355341       0.052695
     20 H                     0.228822      -0.003054
     21 C                    -0.218233      -0.054562
     22 H                     0.234522       0.002629
     23 C                    -0.353007       0.081341
     24 H                     0.227586      -0.004841
     25 B                     0.531678       0.408015
     26 C                    -0.131323      -0.048741
     27 C                    -0.409228       0.013424
     28 H                     0.192463      -0.000473
     29 C                     0.089671       0.007911
     30 C                     0.066378       0.113221
     31 C                    -0.394211      -0.074113
     32 H                     0.229797       0.003036
     33 C                    -0.150087       0.081982
     34 C                     0.186350      -0.061362
     35 C                    -0.395772       0.087910
     36 H                     0.231458      -0.005152
     37 C                    -0.074619       0.022220
     38 C                     0.236749      -0.035027
     39 C                     0.188602      -0.034909
     40 C                    -0.406876       0.054844
     41 H                     0.215713      -0.003255
     42 C                    -0.218509      -0.053234
     43 H                     0.234401       0.002564
     44 C                    -0.351731       0.079222
     45 H                     0.227685      -0.004710
     46 C                    -0.216411      -0.038555
     47 H                     0.230379       0.001936
     48 C                    -0.354628       0.051243
     49 H                     0.229016      -0.002966
     50 B                     0.570060       0.257009
     51 C                    -0.122287      -0.547823
     52 C                     0.110954      -0.010806
     53 C                    -0.417426      -0.035751
     54 H                     0.280567       0.004308
     55 C                     0.465014      -0.221414
     56 O                    -0.392371      -0.137451
     57 C                    -0.365407      -0.102945
     58 H                     0.280193       0.007625
     59 C                     0.072876       0.082544
     60 C                    -0.444284       0.013854
     61 H                     0.283009       0.000028
     62 H                     0.252726      -0.009156
     63 H                     0.252925      -0.008946
     64 C                    -0.755917      -0.002662
     65 H                     0.249966       0.003251
     66 H                     0.279865      -0.001348
     67 H                     0.281693      -0.001120
     68 C                    -0.551832       0.008248
     69 H                     0.293893      -0.004066
     70 H                     0.244821       0.000523
     71 C                    -0.662361      -0.007047
     72 H                     0.274958      -0.000404
     73 H                     0.243275      -0.001211
     74 H                     0.213888       0.000269
     75 C                    -0.200529      -0.025038
     76 C                     0.062169       0.003457
     77 C                    -0.434378      -0.001039
     78 H                     0.229923       0.000307
     79 C                     0.388339       0.000671
     80 O                    -0.465944      -0.000017
     81 C                    -0.395983      -0.000933
     82 H                     0.222830       0.000354
     83 C                     0.045057       0.003700
     84 C                    -0.415275      -0.000003
     85 H                     0.242624       0.000006
     86 H                     0.209597       0.000002
     87 H                     0.209392       0.000007
     88 C                    -0.759109       0.000439
     89 H                     0.232996       0.001366
     90 H                     0.244308      -0.000791
     91 H                     0.245699      -0.000543
     92 C                    -0.540796       0.003095
     93 H                     0.255876      -0.001895
     94 H                     0.222329       0.000283
     95 C                    -0.649895      -0.000238
     96 H                     0.243122      -0.000190
     97 H                     0.211213      -0.000048
     98 H                     0.214502       0.000007
  --------------------------------------------------------
  Sum of atomic charges =    -0.000000

                    Cartesian Multipole Moments
 -----------------------------------------------------------------
    Charge (ESU x 10^10)
                -0.0000
    Dipole Moment (Debye)
         X      14.5518      Y       0.6947      Z       8.0925
       Tot      16.6651
    Quadrupole Moments (Debye-Ang)
        XX    -227.1061     XY      15.4143     YY    -320.2114
        XZ      36.2478     YZ       7.5210     ZZ    -320.3233

 Total job time:  23567.66s(wall), 70257.38s(cpu)
        *  Thank you very much for using Q-Chem.  Have a nice day.  *
