 Q-Chem 5.0, Q-Chem, Inc., Pleasanton, CA (2017)
 Q-Chem 5.0.1 for Intel X86 EM64T Linux

User input:
--------------------------------------------------------------
$rem
threads 8
jobtype	sp
method PBEh-3c
basis def2-mSVP
mem_static	1024
mem_total	8000
sym_ignore	true
unrestricted true
scf_convergence	9
solvent_method	pcm
$end

$molecule
read incoords.mol
$end

$solvent
dielectric	8.93
$end

$pcm
theory iefpcm
$end
--------------------------------------------------------------

   17   -2202.2721121681      3.23E-10 Convergence criterion met
 Total energy in the final basis set = -2202.27211217
 Total job time:  2591.47s(wall), 7068.34s(cpu)
        *  Thank you very much for using Q-Chem.  Have a nice day.  *
 Q-Chem 5.0, Q-Chem, Inc., Pleasanton, CA (2017)
 Q-Chem 5.0.1 for Intel X86 EM64T Linux

User input:
--------------------------------------------------------------

$rem
threads 8
jobtype opt
method PBEh-3c
basis def2-mSVP
scf_guess	read
mem_static      1024
mem_total       8000
sym_ignore      true
unrestricted true
mom_start       1
scf_algorithm	diis
scf_max_cycles	250
solvent_method	pcm
geom_opt_tol_energy 25
geom_opt_tol_gradient 75
$end

$solvent
dielectric      8.93
$end
$pcm
theory iefpcm
$end

$occupied
1 2 3 4 5 6 7 8 9 10 11 12 13 14 15 16 17 18 19 20 21 22 23 24 25 26 27 28 29 30 31 32 33 34 35 36 37 38 39 40 41 42 43 44 45 46 47 48 49 50 51 52 53 54 55 56 57 58 59 60 61 62 63 64 65 66 67 68 69 70 71 72 73 74 75 76 77 78 79 80 81 82 83 84 85 86 87 88 89 90 91 92 93 94 95 96 97 98 99 100 101 102 103 104 105 106 107 108 109 110 111 112 113 114 115 116 117 118 119 120 121 122 123 124 125 126 127 128 129 130 131 132 133 134 135 136 137 138 139 140 141 142 143 144 145 146 147 148 149 150 151 152 153 154 155 156 157 158 159 160 161 162 163 164 165 166 167 168 169 170 171 172 173 174 175 176 177 178 179 180 181 182 183 184 185 186 187 188 189  191
1 2 3 4 5 6 7 8 9 10 11 12 13 14 15 16 17 18 19 20 21 22 23 24 25 26 27 28 29 30 31 32 33 34 35 36 37 38 39 40 41 42 43 44 45 46 47 48 49 50 51 52 53 54 55 56 57 58 59 60 61 62 63 64 65 66 67 68 69 70 71 72 73 74 75 76 77 78 79 80 81 82 83 84 85 86 87 88 89 90 91 92 93 94 95 96 97 98 99 100 101 102 103 104 105 106 107 108 109 110 111 112 113 114 115 116 117 118 119 120 121 122 123 124 125 126 127 128 129 130 131 132 133 134 135 136 137 138 139 140 141 142 143 144 145 146 147 148 149 150 151 152 153 154 155 156 157 158 159 160 161 162 163 164 165 166 167 168 169 170 171 172 173 174 175 176 177 178 179 180 181 182 183 184 185 186 187 188 189 190
$end

$molecule
read
$end

--------------------------------------------------------------

   22   -2202.1968201243      7.69E-09 Convergence criterion met
 Total energy in the final basis set = -2202.19682012
   16   -2202.2731843200      8.69E-09 Convergence criterion met
 Total energy in the final basis set = -2202.27318432
   13   -2202.2753570616      6.46E-09 Convergence criterion met
 Total energy in the final basis set = -2202.27535706
   13   -2202.2783550419      5.40E-09 Convergence criterion met
 Total energy in the final basis set = -2202.27835504
   13   -2202.2818765096      5.98E-09 Convergence criterion met
 Total energy in the final basis set = -2202.28187651
   13   -2202.2831914322      5.53E-09 Convergence criterion met
 Total energy in the final basis set = -2202.28319143
   13   -2202.2836931215      5.48E-09 Convergence criterion met
   13   -2202.2837996411      5.22E-09 Convergence criterion met
 Total energy in the final basis set = -2202.28379964
   13   -2202.2838206922      5.29E-09 Convergence criterion met
 Total energy in the final basis set = -2202.28382069
   13   -2202.2838296889      5.28E-09 Convergence criterion met
 Total energy in the final basis set = -2202.28382969
   13   -2202.2838377926      5.29E-09 Convergence criterion met
 Total energy in the final basis set = -2202.28383779
   13   -2202.2838382248      5.28E-09 Convergence criterion met
 Total energy in the final basis set = -2202.28383822
   13   -2202.2838349190      5.28E-09 Convergence criterion met
 Total energy in the final basis set = -2202.28383492

             Standard Nuclear Orientation (Angstroms)
    I     Atom           X                Y                Z
 ----------------------------------------------------------------
    1      C       0.0015338752    -0.4129784941     0.0781615066
    2      C       0.0140721551    -0.3807870984     1.4785300299
    3      H       0.9592165424    -0.3938901139     2.0102601771
    4      C      -1.1778121354    -0.3300155866     2.1832325517
    5      C      -2.4035964946    -0.2951836547     1.4816431558
    6      C      -2.4283583869    -0.3212184173     0.0999450025
    7      H      -3.3757268526    -0.2929342053    -0.4274974099
    8      C      -1.2331756692    -0.3870007526    -0.6174292992
    9      C      -3.4933614607    -0.2382168823     2.4494197464
   10      C      -4.8608224433    -0.1880512148     2.3630878475
   11      H      -5.3752228477    -0.1810344578     1.4097240668
   12      C      -2.8884798116    -0.2435140212     3.7183612910
   13      C      -3.5979155980    -0.2023525296     4.9134290876
   14      C      -1.4843779065    -0.2976233476     3.6167516668
   15      C      -0.7532533601    -0.3109278161     4.7752529195
   16      H       0.3287452926    -0.3523020198     4.7692156451
   17      C      -1.4451204340    -0.2698023615     6.0112186341
   18      H      -0.8650510643    -0.2809947192     6.9246130312
   19      C      -2.8181433674    -0.2171080960     6.0948541682
   20      H      -3.3002871706    -0.1874372457     7.0642374139
   21      C      -5.6086180453    -0.1449381394     3.5634095817
   22      H      -6.6883837433    -0.1056453474     3.4995285476
   23      C      -5.0101705260    -0.1516276729     4.8033072949
   24      H      -5.6220936101    -0.1179862862     5.6964316813
   25      B       1.3377282286    -0.4638523009    -0.7223069389
   26      C       1.3080129424    -0.5568881480    -2.2763249899
   27      C       2.5027132849    -0.6588596974    -3.0002735162
   28      H       3.4506271017    -0.6739028045    -2.4740799628
   29      C       2.4704155363    -0.7393074638    -4.3830871435
   30      C       1.2276973918    -0.7123418896    -5.0548878960
   31      C       0.0431933120    -0.6134508972    -4.3520338658
   32      H      -0.9026088516    -0.5955657296    -4.8821391601
   33      C       0.0670825672    -0.5395748448    -2.9595028695
   34      C       1.4699089460    -0.8041125965    -6.4910552350
   35      C       0.6746847786    -0.8236843292    -7.6084289660
   36      H      -0.4049788965    -0.7628992166    -7.5446390907
   37      C       2.8643891779    -0.8861534594    -6.6456602829
   38      C       3.5006595457    -0.9885914140    -7.8793379389
   39      C       3.5234092034    -0.8520395631    -5.4010036171
   40      C       4.8922592429    -0.9254783545    -5.3960860259
   41      H       5.4635629806    -0.9058186721    -4.4765426751
   42      C       1.2952366565    -0.9267235317    -8.8763064087
   43      H       0.6694147262    -0.9420312576    -9.7593459968
   44      C       2.6615655732    -1.0075877349    -9.0213369225
   45      H       3.0958457962    -1.0852173646   -10.0107433079
   46      C       5.5712542057    -1.0301520238    -6.6356434608
   47      H       6.6518252583    -1.0876084482    -6.6256972184
   48      C       4.9134996033    -1.0619790631    -7.8442182793
   49      H       5.4763778364    -1.1435250816    -8.7661360726
   50      B      -1.2705206583    -0.4390937919    -2.1719975927
   51      C       2.7108021364    -0.4416156759     0.0327003453
   52      C       3.4321841725     0.7397912702     0.2004052539
   53      C       4.6470032578     0.7389744319     0.8883545309
   54      H       5.1789719098     1.6757072217     1.0008154292
   55      C       5.1536194461    -0.4454074930     1.4054855374
   56      O       6.3158193687    -0.5481876837     2.0831819483
   57      C       4.4440772519    -1.6330614011     1.2245159408
   58      H       4.8528528127    -2.5573022349     1.6174679652
   59      C       3.2361433732    -1.6383440085     0.5490272934
   60      C       7.0650426164     0.6236741877     2.3114414617
   61      H       7.9399690289     0.3264882071     2.8852096758
   62      H       7.3997911973     1.0872335826     1.3788117960
   63      H       6.5036269279     1.3650083132     2.8874699996
   64      C       2.4875970552    -2.9290055441     0.3557673846
   65      H       3.0479721793    -3.7826299916     0.7357022306
   66      H       2.2799425846    -3.1159006161    -0.7006410648
   67      H       1.5241120410    -2.9132770061     0.8698337571
   68      C       2.8948163438     2.0495208067    -0.3183302224
   69      H       2.3217026353     1.8865716745    -1.2357241843
   70      H       3.7267685513     2.7003042938    -0.5987704820
   71      C       2.0162805350     2.7711405346     0.7022310734
   72      H       1.1373155919     2.1794288670     0.9592679472
   73      H       1.6680537960     3.7266297072     0.3080195276
   74      H       2.5652950426     2.9682639435     1.6238107369
   75      C      -2.6365174817    -0.3791243642    -2.9502600333
   76      C      -3.2918285830    -1.5402154224    -3.3567587818
   77      C      -4.4906927203    -1.4720106286    -4.0701351226
   78      H      -4.9679396250    -2.3972914629    -4.3705972368
   79      C      -5.0456763547    -0.2417672427    -4.3868278523
   80      O      -6.1962229194    -0.0754667947    -5.0721867920
   81      C      -4.3934471984     0.9257124079    -3.9878173560
   82      H      -4.8264259576     1.8860507620    -4.2442400885
   83      C      -3.2065792838     0.8640474327    -3.2789818735
   84      C      -6.9040856352    -1.2231661543    -5.4847226106
   85      H      -7.7970985482    -0.8704273568    -5.9958554075
   86      H      -7.2081424298    -1.8457638394    -4.6383627088
   87      H      -6.3243337858    -1.8378118447    -6.1794458994
   88      C      -2.5143236135     2.1336045144    -2.8700133980
   89      H      -3.0627510844     3.0167528604    -3.1958380310
   90      H      -1.5105542169     2.1937434916    -3.2975826641
   91      H      -2.4035843586     2.1955202354    -1.7852738288
   92      C      -2.7554810387    -2.9050099091    -3.0053811336
   93      H      -1.6880648052    -2.8482227303    -2.7741023349
   94      H      -2.8364532151    -3.5650109152    -3.8732997643
   95      C      -3.4945499819    -3.5326373529    -1.8257695886
   96      H      -3.4032754350    -2.9156313815    -0.9312272860
   97      H      -4.5573090748    -3.6471450655    -2.0432508606
   98      H      -3.0930441671    -4.5196558122    -1.5940845858
 ----------------------------------------------------------------

   13   -2202.2838324283      5.32E-09 Convergence criterion met
 Total energy in the final basis set = -2202.28383243
 Final energy is   -2202.28383242831
 **  OPTIMIZATION CONVERGED  **

                    Orbital Energies (a.u.)
 --------------------------------------------------------------

 Alpha MOs
 -- Occupied --
-19.527 -19.527 -10.505 -10.505 -10.483 -10.482 -10.467 -10.467
-10.466 -10.466 -10.465 -10.465 -10.465 -10.464 -10.464 -10.464
-10.464 -10.464 -10.461 -10.461 -10.461 -10.461 -10.461 -10.461
-10.458 -10.458 -10.458 -10.458 -10.457 -10.457 -10.455 -10.455
-10.455 -10.454 -10.453 -10.453 -10.449 -10.449 -10.437 -10.437
-10.436 -10.436 -10.436 -10.435 -10.435 -10.435 -10.433 -10.433
-10.427 -10.427 -10.422 -10.421 -10.419 -10.418  -6.951  -6.951
 -1.182  -1.182  -1.018  -1.018  -0.965  -0.961  -0.957  -0.956
 -0.934  -0.933  -0.911  -0.902  -0.885  -0.884  -0.863  -0.856
 -0.856  -0.852  -0.847  -0.846  -0.824  -0.818  -0.817  -0.814
 -0.813  -0.806  -0.776  -0.774  -0.765  -0.764  -0.736  -0.729
 -0.727  -0.721  -0.710  -0.710  -0.689  -0.683  -0.680  -0.666
 -0.660  -0.649  -0.648  -0.647  -0.639  -0.638  -0.595  -0.594
 -0.590  -0.587  -0.585  -0.584  -0.583  -0.575  -0.574  -0.562
 -0.562  -0.545  -0.543  -0.537  -0.533  -0.533  -0.528  -0.523
 -0.514  -0.509  -0.503  -0.500  -0.498  -0.496  -0.495  -0.494
 -0.493  -0.490  -0.487  -0.487  -0.485  -0.481  -0.478  -0.474
 -0.474  -0.473  -0.470  -0.466  -0.465  -0.464  -0.462  -0.454
 -0.449  -0.445  -0.441  -0.439  -0.437  -0.429  -0.429  -0.427
 -0.425  -0.424  -0.420  -0.415  -0.414  -0.411  -0.407  -0.406
 -0.398  -0.396  -0.396  -0.394  -0.392  -0.391  -0.387  -0.385
 -0.381  -0.374  -0.369  -0.367  -0.364  -0.359  -0.357  -0.354
 -0.343  -0.341  -0.321  -0.316  -0.297  -0.296  -0.284  -0.279
 -0.279  -0.264  -0.260  -0.258  -0.254  -0.252

 Beta MOs
 -- Occupied --
-19.527 -19.527 -10.505 -10.505 -10.483 -10.482 -10.467 -10.467
-10.466 -10.466 -10.465 -10.465 -10.465 -10.464 -10.464 -10.464
-10.464 -10.464 -10.461 -10.461 -10.461 -10.461 -10.461 -10.461
-10.458 -10.458 -10.458 -10.458 -10.457 -10.457 -10.455 -10.455
-10.455 -10.454 -10.453 -10.453 -10.449 -10.449 -10.437 -10.437
-10.436 -10.436 -10.436 -10.435 -10.435 -10.435 -10.433 -10.433
-10.427 -10.427 -10.422 -10.421 -10.419 -10.418  -6.951  -6.951
 -1.182  -1.182  -1.018  -1.018  -0.965  -0.961  -0.957  -0.956
 -0.934  -0.933  -0.911  -0.902  -0.885  -0.884  -0.863  -0.856
 -0.856  -0.852  -0.847  -0.846  -0.824  -0.818  -0.817  -0.814
 -0.813  -0.806  -0.776  -0.774  -0.765  -0.764  -0.736  -0.729
 -0.727  -0.721  -0.710  -0.710  -0.689  -0.683  -0.680  -0.666
 -0.660  -0.649  -0.648  -0.647  -0.639  -0.638  -0.595  -0.594
 -0.590  -0.587  -0.585  -0.584  -0.583  -0.575  -0.574  -0.562
 -0.562  -0.545  -0.543  -0.537  -0.533  -0.533  -0.528  -0.523
 -0.514  -0.509  -0.503  -0.500  -0.498  -0.496  -0.495  -0.494
 -0.493  -0.490  -0.487  -0.487  -0.485  -0.481  -0.478  -0.474
 -0.474  -0.473  -0.470  -0.466  -0.465  -0.464  -0.462  -0.454
 -0.449  -0.445  -0.441  -0.439  -0.437  -0.429  -0.429  -0.427
 -0.425  -0.424  -0.420  -0.415  -0.414  -0.411  -0.407  -0.406
 -0.398  -0.396  -0.396  -0.394  -0.392  -0.391  -0.387  -0.385
 -0.381  -0.374  -0.369  -0.367  -0.364  -0.359  -0.357  -0.354
 -0.343  -0.341  -0.321  -0.316  -0.297  -0.296  -0.284  -0.279
 -0.279  -0.264  -0.260  -0.258  -0.254  -0.252

          Ground-State Mulliken Net Atomic Charges

     Atom                 Charge (a.u.)    Spin (a.u.)
  --------------------------------------------------------
      1 C                    -0.153385      -0.000000
      2 C                    -0.401795       0.000000
      3 H                     0.251400      -0.000000
      4 C                     0.093513       0.000000
      5 C                     0.071762       0.000000
      6 C                    -0.395468      -0.000000
      7 H                     0.248624       0.000000
      8 C                    -0.152245       0.000000
      9 C                     0.177551      -0.000000
     10 C                    -0.389547       0.000000
     11 H                     0.252508      -0.000000
     12 C                    -0.066122      -0.000000
     13 C                     0.222835       0.000000
     14 C                     0.178964       0.000000
     15 C                    -0.398116       0.000000
     16 H                     0.252488       0.000000
     17 C                    -0.231634      -0.000000
     18 H                     0.257260       0.000000
     19 C                    -0.350892      -0.000000
     20 H                     0.254710       0.000000
     21 C                    -0.234124      -0.000000
     22 H                     0.257758      -0.000000
     23 C                    -0.346903       0.000000
     24 H                     0.254361      -0.000000
     25 B                     0.676608       0.000000
     26 C                    -0.157052       0.000000
     27 C                    -0.394587      -0.000000
     28 H                     0.247393       0.000000
     29 C                     0.094019       0.000000
     30 C                     0.068054      -0.000000
     31 C                    -0.385633       0.000000
     32 H                     0.246941       0.000000
     33 C                    -0.158104      -0.000000
     34 C                     0.177702      -0.000000
     35 C                    -0.388980       0.000000
     36 H                     0.252080      -0.000000
     37 C                    -0.065824       0.000000
     38 C                     0.220876       0.000000
     39 C                     0.178536       0.000000
     40 C                    -0.398843      -0.000000
     41 H                     0.252277       0.000000
     42 C                    -0.234370      -0.000000
     43 H                     0.257620       0.000000
     44 C                    -0.345857      -0.000000
     45 H                     0.254343       0.000000
     46 C                    -0.231407      -0.000000
     47 H                     0.257058      -0.000000
     48 C                    -0.350493      -0.000000
     49 H                     0.254790      -0.000000
     50 B                     0.677812       0.000000
     51 C                    -0.220194      -0.000000
     52 C                     0.069624       0.000000
     53 C                    -0.449286       0.000000
     54 H                     0.254321       0.000000
     55 C                     0.389388      -0.000000
     56 O                    -0.469857      -0.000000
     57 C                    -0.409479       0.000000
     58 H                     0.240422       0.000000
     59 C                     0.051224      -0.000000
     60 C                    -0.428548       0.000000
     61 H                     0.253458      -0.000000
     62 H                     0.220126      -0.000000
     63 H                     0.220097      -0.000000
     64 C                    -0.774126      -0.000000
     65 H                     0.253237      -0.000000
     66 H                     0.249218      -0.000000
     67 H                     0.249543      -0.000000
     68 C                    -0.553157      -0.000000
     69 H                     0.252818       0.000000
     70 H                     0.241541       0.000000
     71 C                    -0.657944      -0.000000
     72 H                     0.238855      -0.000000
     73 H                     0.227839       0.000000
     74 H                     0.221480      -0.000000
     75 C                    -0.228311       0.000000
     76 C                     0.069078      -0.000000
     77 C                    -0.443321      -0.000000
     78 H                     0.254821      -0.000000
     79 C                     0.389416      -0.000000
     80 O                    -0.470029      -0.000000
     81 C                    -0.409010       0.000000
     82 H                     0.240671       0.000000
     83 C                     0.050973      -0.000000
     84 C                    -0.428554      -0.000000
     85 H                     0.253648       0.000000
     86 H                     0.220229       0.000000
     87 H                     0.220149      -0.000000
     88 C                    -0.773681       0.000000
     89 H                     0.253321       0.000000
     90 H                     0.248661       0.000000
     91 H                     0.248759       0.000000
     92 C                    -0.551018      -0.000000
     93 H                     0.253861      -0.000000
     94 H                     0.241793       0.000000
     95 C                    -0.653077      -0.000000
     96 H                     0.232740       0.000000
     97 H                     0.221446       0.000000
     98 H                     0.228371       0.000000
  --------------------------------------------------------
  Sum of atomic charges =    -0.000000

                    Cartesian Multipole Moments
 -----------------------------------------------------------------
    Charge (ESU x 10^10)
                -0.0000
    Dipole Moment (Debye)
         X      -0.2288      Y      -0.1554      Z      -0.1529
       Tot       0.3160
    Quadrupole Moments (Debye-Ang)
        XX    -263.7015     XY      20.4539     YY    -321.1538
        XZ      -3.5731     YZ      15.0297     ZZ    -261.3261

 Total job time:  38554.82s(wall), 106358.83s(cpu)
        *  Thank you very much for using Q-Chem.  Have a nice day.  *
