 Q-Chem 5.0, Q-Chem, Inc., Pleasanton, CA (2017)
 Q-Chem 5.0.1 for Intel X86 EM64T Linux

User input:
--------------------------------------------------------------
$rem
threads 8
jobtype	sp
method PBEh-3c
basis def2-mSVP
mem_static	1024
mem_total	8000
sym_ignore	true
unrestricted true
scf_convergence	9
solvent_method	pcm
$end

$molecule
read incoords.mol
$end

$solvent
dielectric	2.03
$end

$pcm
theory iefpcm
$end
--------------------------------------------------------------

   17   -2202.2574021033      5.06E-10 Convergence criterion met
 Total energy in the final basis set = -2202.25740210
 Total job time:  2275.09s(wall), 6691.28s(cpu)
        *  Thank you very much for using Q-Chem.  Have a nice day.  *
 Q-Chem 5.0, Q-Chem, Inc., Pleasanton, CA (2017)
 Q-Chem 5.0.1 for Intel X86 EM64T Linux

User input:
--------------------------------------------------------------

$rem
threads 8
jobtype opt
method PBEh-3c
basis def2-mSVP
scf_guess	read
mem_static      1024
mem_total       8000
sym_ignore      true
unrestricted true
mom_start       1
scf_algorithm	diis
scf_max_cycles	250
solvent_method	pcm
geom_opt_tol_energy 25
geom_opt_tol_gradient 75
$end

$solvent
dielectric      2.03
$end
$pcm
theory iefpcm
$end

$occupied
1 2 3 4 5 6 7 8 9 10 11 12 13 14 15 16 17 18 19 20 21 22 23 24 25 26 27 28 29 30 31 32 33 34 35 36 37 38 39 40 41 42 43 44 45 46 47 48 49 50 51 52 53 54 55 56 57 58 59 60 61 62 63 64 65 66 67 68 69 70 71 72 73 74 75 76 77 78 79 80 81 82 83 84 85 86 87 88 89 90 91 92 93 94 95 96 97 98 99 100 101 102 103 104 105 106 107 108 109 110 111 112 113 114 115 116 117 118 119 120 121 122 123 124 125 126 127 128 129 130 131 132 133 134 135 136 137 138 139 140 141 142 143 144 145 146 147 148 149 150 151 152 153 154 155 156 157 158 159 160 161 162 163 164 165 166 167 168 169 170 171 172 173 174 175 176 177 178 179 180 181 182 183 184 185 186 187 188 189  191
1 2 3 4 5 6 7 8 9 10 11 12 13 14 15 16 17 18 19 20 21 22 23 24 25 26 27 28 29 30 31 32 33 34 35 36 37 38 39 40 41 42 43 44 45 46 47 48 49 50 51 52 53 54 55 56 57 58 59 60 61 62 63 64 65 66 67 68 69 70 71 72 73 74 75 76 77 78 79 80 81 82 83 84 85 86 87 88 89 90 91 92 93 94 95 96 97 98 99 100 101 102 103 104 105 106 107 108 109 110 111 112 113 114 115 116 117 118 119 120 121 122 123 124 125 126 127 128 129 130 131 132 133 134 135 136 137 138 139 140 141 142 143 144 145 146 147 148 149 150 151 152 153 154 155 156 157 158 159 160 161 162 163 164 165 166 167 168 169 170 171 172 173 174 175 176 177 178 179 180 181 182 183 184 185 186 187 188 189 190
$end

$molecule
read
$end

--------------------------------------------------------------

   21   -2202.1732945182      7.50E-09 Convergence criterion met
 Total energy in the final basis set = -2202.17329452
   17   -2202.1748695100      8.39E-09 Convergence criterion met
 Total energy in the final basis set = -2202.17486951
   17   -2202.1749611973      7.58E-09 Convergence criterion met
 Total energy in the final basis set = -2202.17496120
   16   -2202.1752524794      9.80E-09 Convergence criterion met
 Total energy in the final basis set = -2202.17525248
   16   -2202.1753734441      8.50E-09 Convergence criterion met
 Total energy in the final basis set = -2202.17537344
   16   -2202.1755019653      8.88E-09 Convergence criterion met
 Total energy in the final basis set = -2202.17550197
   16   -2202.1754792195      7.73E-09 Convergence criterion met
 Total energy in the final basis set = -2202.17547922
   16   -2202.1754774811      8.07E-09 Convergence criterion met
 Total energy in the final basis set = -2202.17547748
   16   -2202.1754893954      7.91E-09 Convergence criterion met
 Total energy in the final basis set = -2202.17548940
   16   -2202.1754912779      7.46E-09 Convergence criterion met
 Total energy in the final basis set = -2202.17549128
   16   -2202.1754921333      7.60E-09 Convergence criterion met
 Total energy in the final basis set = -2202.17549213

             Standard Nuclear Orientation (Angstroms)
    I     Atom           X                Y                Z
 ----------------------------------------------------------------
    1      C       0.0328650612    -0.4003062552     0.0705358957
    2      C       0.0366413016    -0.3559298297     1.4871790678
    3      H       0.9799033812    -0.3664620565     2.0271244118
    4      C      -1.1409219719    -0.2978622470     2.1901746181
    5      C      -2.3806944332    -0.2768610678     1.4857961316
    6      C      -2.4057106480    -0.3225431285     0.1134450900
    7      H      -3.3548419254    -0.3110897698    -0.4132492849
    8      C      -1.2138255877    -0.3884457010    -0.6281540965
    9      C      -3.4613737791    -0.2097671484     2.4578625699
   10      C      -4.8311961591    -0.1644452009     2.3809388361
   11      H      -5.3498264322    -0.1736663503     1.4300367454
   12      C      -2.8521579694    -0.1936710054     3.7276237680
   13      C      -3.5582658915    -0.1353044244     4.9253158716
   14      C      -1.4467429163    -0.2457263454     3.6226672555
   15      C      -0.7153470807    -0.2388689262     4.7824959578
   16      H       0.3669538134    -0.2778074221     4.7757666740
   17      C      -1.4032633798    -0.1801056697     6.0176444575
   18      H      -0.8219454631    -0.1755221503     6.9308520469
   19      C      -2.7758744972    -0.1293656259     6.1041294384
   20      H      -3.2556819810    -0.0856498192     7.0742737204
   21      C      -5.5721225431    -0.1045854621     3.5828989799
   22      H      -6.6526463159    -0.0691420129     3.5228317520
   23      C      -4.9711687135    -0.0899347342     4.8209082670
   24      H      -5.5798980702    -0.0437911674     5.7156655674
   25      B       1.3256756887    -0.4661642524    -0.7389453948
   26      C       1.3151462076    -0.5621055973    -2.2635099538
   27      C       2.5121720301    -0.6646497224    -3.0143138330
   28      H       3.4712072035    -0.6898581024    -2.5036584257
   29      C       2.4745101047    -0.7337810959    -4.3848439312
   30      C       1.2173568808    -0.6928554172    -5.0560705316
   31      C       0.0462157107    -0.5984903851    -4.3470274443
   32      H      -0.9039329193    -0.5709607529    -4.8703985615
   33      C       0.0593777000    -0.5393769150    -2.9437801124
   34      C       1.4566968628    -0.7724226304    -6.4900993070
   35      C       0.6597423103    -0.7774064833    -7.6082350051
   36      H      -0.4190399516    -0.7086119285    -7.5400129352
   37      C       2.8522243927    -0.8642295872    -6.6536119829
   38      C       3.4824767409    -0.9636519150    -7.8918998787
   39      C       3.5185216448    -0.8461522369    -5.4109227030
   40      C       4.8876213734    -0.9340257858    -5.4175430028
   41      H       5.4650083978    -0.9292587018    -4.5013417552
   42      C       1.2750711065    -0.8758934899    -8.8773369643
   43      H       0.6453847124    -0.8794552800    -9.7582397172
   44      C       2.6391843313    -0.9673450269    -9.0310170755
   45      H       3.0683286264    -1.0416227490   -10.0229319961
   46      C       5.5580527736    -1.0356254832    -6.6597933308
   47      H       6.6384294831    -1.1049332431    -6.6575406174
   48      C       4.8939477803    -1.0512684117    -7.8647843034
   49      H       5.4512401296    -1.1318276351    -8.7903081746
   50      B      -1.2650031488    -0.4505306719    -2.1652866644
   51      C       2.7083782031    -0.4659093079     0.0054981700
   52      C       3.4540625936     0.7504082553     0.1987991848
   53      C       4.6120883892     0.7400376116     0.9288320446
   54      H       5.1597766265     1.6616625301     1.0762537789
   55      C       5.0832756727    -0.4749167753     1.4699589329
   56      O       6.1679582467    -0.5834333595     2.1890323934
   57      C       4.3891120292    -1.6935851154     1.2399242970
   58      H       4.8009284756    -2.6043004279     1.6572676151
   59      C       3.2383014301    -1.7017751638     0.5112588593
   60      C       6.9609795623     0.5602693116     2.5006378443
   61      H       7.7770330988     0.1962484364     3.1163317219
   62      H       7.3645688432     1.0143937186     1.5952885480
   63      H       6.3831886305     1.2956150167     3.0610148211
   64      C       2.4971901850    -2.9704034423     0.2427576137
   65      H       3.0328600084    -3.8384476882     0.6234630404
   66      H       2.3354226273    -3.1015108528    -0.8284174793
   67      H       1.5076707613    -2.9440755718     0.7022083738
   68      C       2.9409354332     2.0350589368    -0.3745576525
   69      H       2.4622357812     1.8419522732    -1.3360802151
   70      H       3.7825029708     2.7045092490    -0.5650648320
   71      C       1.9408405383     2.7238978770     0.5574263120
   72      H       1.0567582416     2.1095161521     0.7191327171
   73      H       1.6131287415     3.6645362023     0.1162829446
   74      H       2.3876444218     2.9428023782     1.5277148411
   75      C      -2.6444118080    -0.4013501709    -2.9406895618
   76      C      -3.2780804017    -1.5573166245    -3.3991678050
   77      C      -4.4860429128    -1.4893755245    -4.0978473320
   78      H      -4.9400585338    -2.4135887676    -4.4358891210
   79      C      -5.0783267725    -0.2635810611    -4.3535424713
   80      O      -6.2436380722    -0.0982193712    -5.0210027212
   81      C      -4.4519573435     0.8992957863    -3.9108720518
   82      H      -4.9132957237     1.8571463654    -4.1227274358
   83      C      -3.2558688821     0.8363534316    -3.2161969634
   84      C      -6.9169125470    -1.2428136007    -5.4776921309
   85      H      -7.8257436919    -0.8967368060    -5.9661616696
   86      H      -7.1959832852    -1.9146682786    -4.6596350323
   87      H      -6.3270858057    -1.8102535885    -6.2049025320
   88      C      -2.5994895961     2.1107990619    -2.7646488313
   89      H      -3.1625017686     2.9887470279    -3.0814523187
   90      H      -1.5891067247     2.1988998978    -3.1696886619
   91      H      -2.5082350937     2.1473276271    -1.6775562183
   92      C      -2.7099491627    -2.9251952719    -3.1172761345
   93      H      -1.6226797231    -2.8713329308    -3.0265677920
   94      H      -2.9109877962    -3.5863204162    -3.9651167886
   95      C      -3.2942877009    -3.5413225407    -1.8481797191
   96      H      -3.0693818762    -2.9261237404    -0.9767732847
   97      H      -4.3791583991    -3.6342172029    -1.9182661559
   98      H      -2.8839010937    -4.5362778704    -1.6695097348
 ----------------------------------------------------------------

   16   -2202.1754927260      7.68E-09 Convergence criterion met
 Total energy in the final basis set = -2202.17549273
 Final energy is   -2202.17549272596
 **  OPTIMIZATION CONVERGED  **

                    Orbital Energies (a.u.)
 --------------------------------------------------------------

 Alpha MOs
 -- Occupied --
-19.609 -19.512 -10.589 -10.534 -10.513 -10.507 -10.495 -10.493
-10.493 -10.485 -10.476 -10.457 -10.450 -10.450 -10.449 -10.449
-10.448 -10.448 -10.447 -10.447 -10.446 -10.446 -10.446 -10.445
-10.445 -10.444 -10.444 -10.444 -10.444 -10.443 -10.443 -10.441
-10.441 -10.438 -10.438 -10.435 -10.435 -10.433 -10.433 -10.432
-10.432 -10.431 -10.428 -10.427 -10.417 -10.417 -10.414 -10.414
-10.414 -10.408 -10.406 -10.404 -10.404 -10.395  -6.907  -6.899
 -1.262  -1.168  -1.006  -0.998  -0.998  -0.942  -0.939  -0.936
 -0.929  -0.918  -0.918  -0.904  -0.887  -0.879  -0.866  -0.858
 -0.841  -0.836  -0.835  -0.832  -0.831  -0.818  -0.804  -0.802
 -0.800  -0.794  -0.794  -0.783  -0.758  -0.746  -0.742  -0.717
 -0.714  -0.711  -0.703  -0.702  -0.692  -0.678  -0.672  -0.662
 -0.662  -0.647  -0.637  -0.637  -0.628  -0.627  -0.619  -0.614
 -0.596  -0.586  -0.578  -0.577  -0.573  -0.569  -0.566  -0.560
 -0.558  -0.554  -0.544  -0.538  -0.527  -0.524  -0.522  -0.521
 -0.517  -0.510  -0.509  -0.502  -0.501  -0.498  -0.490  -0.485
 -0.482  -0.481  -0.477  -0.475  -0.473  -0.473  -0.472  -0.469
 -0.468  -0.465  -0.465  -0.463  -0.459  -0.458  -0.454  -0.452
 -0.450  -0.449  -0.446  -0.440  -0.438  -0.428  -0.427  -0.422
 -0.417  -0.416  -0.410  -0.409  -0.407  -0.406  -0.401  -0.399
 -0.396  -0.392  -0.385  -0.382  -0.382  -0.382  -0.379  -0.377
 -0.371  -0.369  -0.357  -0.356  -0.353  -0.348  -0.342  -0.332
 -0.330  -0.320  -0.319  -0.306  -0.299  -0.284  -0.282  -0.269
 -0.258  -0.251  -0.241  -0.237  -0.232  -0.151

 Beta MOs
 -- Occupied --
-19.614 -19.512 -10.593 -10.534 -10.513 -10.506 -10.500 -10.495
-10.495 -10.485 -10.476 -10.457 -10.451 -10.451 -10.449 -10.449
-10.448 -10.448 -10.447 -10.447 -10.446 -10.446 -10.446 -10.445
-10.445 -10.444 -10.444 -10.443 -10.443 -10.443 -10.443 -10.441
-10.441 -10.438 -10.438 -10.434 -10.433 -10.433 -10.433 -10.432
-10.432 -10.431 -10.429 -10.428 -10.417 -10.417 -10.415 -10.415
-10.414 -10.408 -10.406 -10.403 -10.403 -10.396  -6.903  -6.896
 -1.273  -1.168  -1.015  -0.998  -0.997  -0.941  -0.938  -0.935
 -0.931  -0.917  -0.917  -0.913  -0.886  -0.879  -0.865  -0.860
 -0.841  -0.835  -0.834  -0.831  -0.830  -0.826  -0.807  -0.801
 -0.799  -0.794  -0.794  -0.782  -0.758  -0.746  -0.746  -0.716
 -0.713  -0.710  -0.705  -0.702  -0.691  -0.680  -0.672  -0.662
 -0.660  -0.645  -0.640  -0.637  -0.628  -0.627  -0.619  -0.616
 -0.606  -0.596  -0.577  -0.576  -0.571  -0.569  -0.567  -0.561
 -0.558  -0.554  -0.543  -0.540  -0.530  -0.525  -0.521  -0.521
 -0.517  -0.512  -0.509  -0.508  -0.502  -0.500  -0.490  -0.484
 -0.482  -0.481  -0.481  -0.477  -0.475  -0.473  -0.472  -0.467
 -0.467  -0.466  -0.466  -0.465  -0.462  -0.458  -0.455  -0.452
 -0.450  -0.449  -0.446  -0.442  -0.438  -0.429  -0.427  -0.422
 -0.416  -0.415  -0.411  -0.409  -0.408  -0.407  -0.405  -0.400
 -0.398  -0.396  -0.391  -0.382  -0.380  -0.379  -0.379  -0.377
 -0.373  -0.368  -0.358  -0.355  -0.351  -0.346  -0.343  -0.335
 -0.331  -0.327  -0.319  -0.305  -0.299  -0.295  -0.280  -0.280
 -0.259  -0.258  -0.244  -0.238  -0.232  -0.231

          Ground-State Mulliken Net Atomic Charges

     Atom                 Charge (a.u.)    Spin (a.u.)
  --------------------------------------------------------
      1 C                    -0.130506      -0.047073
      2 C                    -0.413590       0.015349
      3 H                     0.191344      -0.000645
      4 C                     0.091931       0.005736
      5 C                     0.070152       0.117976
      6 C                    -0.406770      -0.077886
      7 H                     0.232457       0.003236
      8 C                    -0.137225       0.085772
      9 C                     0.187481      -0.063183
     10 C                    -0.395181       0.090142
     11 H                     0.229289      -0.005288
     12 C                    -0.074546       0.022705
     13 C                     0.241525      -0.035656
     14 C                     0.190428      -0.035006
     15 C                    -0.404583       0.055092
     16 H                     0.211552      -0.003284
     17 C                    -0.213952      -0.038967
     18 H                     0.227219       0.001965
     19 C                    -0.353805       0.051716
     20 H                     0.225862      -0.003001
     21 C                    -0.215652      -0.054607
     22 H                     0.231856       0.002635
     23 C                    -0.351432       0.081464
     24 H                     0.224628      -0.004859
     25 B                     0.529826       0.411816
     26 C                    -0.130425      -0.052797
     27 C                    -0.408490       0.016137
     28 H                     0.188829      -0.000631
     29 C                     0.091785       0.005049
     30 C                     0.068193       0.115179
     31 C                    -0.392958      -0.075573
     32 H                     0.229452       0.003116
     33 C                    -0.150089       0.083675
     34 C                     0.188164      -0.061681
     35 C                    -0.394303       0.088069
     36 H                     0.229124      -0.005168
     37 C                    -0.074220       0.022108
     38 C                     0.239578      -0.034779
     39 C                     0.190501      -0.034071
     40 C                    -0.405490       0.053643
     41 H                     0.212056      -0.003192
     42 C                    -0.215918      -0.053235
     43 H                     0.231699       0.002568
     44 C                    -0.350169       0.079288
     45 H                     0.224692      -0.004726
     46 C                    -0.213774      -0.037949
     47 H                     0.227335       0.001913
     48 C                    -0.353110       0.050204
     49 H                     0.226024      -0.002910
     50 B                     0.573608       0.254819
     51 C                    -0.121048      -0.544051
     52 C                     0.112005      -0.017779
     53 C                    -0.417908      -0.029714
     54 H                     0.276786       0.004025
     55 C                     0.464087      -0.223818
     56 O                    -0.393343      -0.134433
     57 C                    -0.365157      -0.097272
     58 H                     0.277552       0.007364
     59 C                     0.073455       0.077505
     60 C                    -0.442604       0.013660
     61 H                     0.281732       0.000035
     62 H                     0.250608      -0.009011
     63 H                     0.250895      -0.008827
     64 C                    -0.755078      -0.002248
     65 H                     0.247858       0.003288
     66 H                     0.280863      -0.001560
     67 H                     0.282710      -0.001342
     68 C                    -0.551862       0.008745
     69 H                     0.295542      -0.004188
     70 H                     0.242620       0.000499
     71 C                    -0.661540      -0.007389
     72 H                     0.277190      -0.000411
     73 H                     0.242899      -0.001271
     74 H                     0.212512       0.000284
     75 C                    -0.201095      -0.025061
     76 C                     0.063787       0.003404
     77 C                    -0.432797      -0.001016
     78 H                     0.227149       0.000306
     79 C                     0.389641       0.000558
     80 O                    -0.464506      -0.000067
     81 C                    -0.393436      -0.000923
     82 H                     0.221124       0.000354
     83 C                     0.046542       0.003683
     84 C                    -0.413230       0.000002
     85 H                     0.241149       0.000006
     86 H                     0.208165      -0.000001
     87 H                     0.207933       0.000003
     88 C                    -0.758260       0.000437
     89 H                     0.231689       0.001356
     90 H                     0.244010      -0.000791
     91 H                     0.245492      -0.000535
     92 C                    -0.540743       0.003050
     93 H                     0.255991      -0.001871
     94 H                     0.221161       0.000279
     95 C                    -0.648724      -0.000234
     96 H                     0.243887      -0.000193
     97 H                     0.210619      -0.000048
     98 H                     0.213274       0.000006
  --------------------------------------------------------
  Sum of atomic charges =    -0.000000

                    Cartesian Multipole Moments
 -----------------------------------------------------------------
    Charge (ESU x 10^10)
                -0.0000
    Dipole Moment (Debye)
         X      14.1366      Y       0.6889      Z       7.8541
       Tot      16.1866
    Quadrupole Moments (Debye-Ang)
        XX    -229.6809     XY      15.1008     YY    -320.4635
        XZ      35.7265     YZ       7.3453     ZZ    -320.7871

 Total job time:  28061.69s(wall), 83326.89s(cpu)
        *  Thank you very much for using Q-Chem.  Have a nice day.  *
