 Q-Chem 5.0, Q-Chem, Inc., Pleasanton, CA (2017)
 Q-Chem 5.0.1 for Intel X86 EM64T Linux

User input:
--------------------------------------------------------------
$rem
threads 8
jobtype	sp
method PBEh-3c
basis def2-mSVP
mem_static	1024
mem_total	8000
sym_ignore	true
unrestricted true
scf_convergence	9
solvent_method	pcm
$end

$molecule
read moms1opt_tol.mol
$end

$solvent
dielectric	8.93
$end

$pcm
theory iefpcm
$end
--------------------------------------------------------------

   17   -2202.2726060400      2.90E-10 Convergence criterion met
 Total energy in the final basis set = -2202.27260604
 Total job time:  2152.62s(wall), 6368.17s(cpu)
        *  Thank you very much for using Q-Chem.  Have a nice day.  *
 Q-Chem 5.0, Q-Chem, Inc., Pleasanton, CA (2017)
 Q-Chem 5.0.1 for Intel X86 EM64T Linux

User input:
--------------------------------------------------------------

$rem
threads 8
jobtype opt
method PBEh-3c
basis def2-mSVP
scf_guess	read
mem_static      1024
mem_total       8000
sym_ignore      true
unrestricted true
mom_start       1
scf_algorithm	diis
scf_max_cycles	250
solvent_method	pcm
geom_opt_tol_energy 25
geom_opt_tol_gradient 75
$end

$solvent
dielectric      8.93
$end
$pcm
theory iefpcm
$end

$occupied
1 2 3 4 5 6 7 8 9 10 11 12 13 14 15 16 17 18 19 20 21 22 23 24 25 26 27 28 29 30 31 32 33 34 35 36 37 38 39 40 41 42 43 44 45 46 47 48 49 50 51 52 53 54 55 56 57 58 59 60 61 62 63 64 65 66 67 68 69 70 71 72 73 74 75 76 77 78 79 80 81 82 83 84 85 86 87 88 89 90 91 92 93 94 95 96 97 98 99 100 101 102 103 104 105 106 107 108 109 110 111 112 113 114 115 116 117 118 119 120 121 122 123 124 125 126 127 128 129 130 131 132 133 134 135 136 137 138 139 140 141 142 143 144 145 146 147 148 149 150 151 152 153 154 155 156 157 158 159 160 161 162 163 164 165 166 167 168 169 170 171 172 173 174 175 176 177 178 179 180 181 182 183 184 185 186 187 188 189  191
1 2 3 4 5 6 7 8 9 10 11 12 13 14 15 16 17 18 19 20 21 22 23 24 25 26 27 28 29 30 31 32 33 34 35 36 37 38 39 40 41 42 43 44 45 46 47 48 49 50 51 52 53 54 55 56 57 58 59 60 61 62 63 64 65 66 67 68 69 70 71 72 73 74 75 76 77 78 79 80 81 82 83 84 85 86 87 88 89 90 91 92 93 94 95 96 97 98 99 100 101 102 103 104 105 106 107 108 109 110 111 112 113 114 115 116 117 118 119 120 121 122 123 124 125 126 127 128 129 130 131 132 133 134 135 136 137 138 139 140 141 142 143 144 145 146 147 148 149 150 151 152 153 154 155 156 157 158 159 160 161 162 163 164 165 166 167 168 169 170 171 172 173 174 175 176 177 178 179 180 181 182 183 184 185 186 187 188 189 190
$end

$molecule
read
$end

--------------------------------------------------------------

   22   -2202.1990070694      9.63E-09 Convergence criterion met
 Total energy in the final basis set = -2202.19900707
   16   -2202.2731045627      9.26E-09 Convergence criterion met
 Total energy in the final basis set = -2202.27310456
   13   -2202.2704238757      5.40E-09 Convergence criterion met
 Total energy in the final basis set = -2202.27042388
   13   -2202.2770130529      4.16E-09 Convergence criterion met
 Total energy in the final basis set = -2202.27701305
   13   -2202.2818387475      5.91E-09 Convergence criterion met
 Total energy in the final basis set = -2202.28183875
   13   -2202.2837516027      5.83E-09 Convergence criterion met
 Total energy in the final basis set = -2202.28375160
   13   -2202.2838656289      5.32E-09 Convergence criterion met
 Total energy in the final basis set = -2202.28386563
   13   -2202.2836346865      5.27E-09 Convergence criterion met
 Total energy in the final basis set = -2202.28363469
   13   -2202.2836990118      5.30E-09 Convergence criterion met
 Total energy in the final basis set = -2202.28369901
   13   -2202.2837473840      5.29E-09 Convergence criterion met
 Total energy in the final basis set = -2202.28374738
   13   -2202.2837409851      5.32E-09 Convergence criterion met
 Total energy in the final basis set = -2202.28374099
   13   -2202.2835928467      5.49E-09 Convergence criterion met
 Total energy in the final basis set = -2202.28359285
   13   -2202.2836541629      5.35E-09 Convergence criterion met
 Total energy in the final basis set = -2202.28365416
   13   -2202.2836365756      5.30E-09 Convergence criterion met
 Total energy in the final basis set = -2202.28363658

                    Orbital Energies (a.u.)
 --------------------------------------------------------------

 Alpha MOs
 -- Occupied --
-19.527 -19.527 -10.505 -10.505 -10.483 -10.482 -10.467 -10.467
-10.466 -10.466 -10.465 -10.465 -10.465 -10.464 -10.464 -10.464
-10.464 -10.464 -10.462 -10.461 -10.461 -10.461 -10.461 -10.461
-10.458 -10.458 -10.458 -10.458 -10.457 -10.456 -10.456 -10.455
-10.455 -10.454 -10.453 -10.453 -10.449 -10.449 -10.437 -10.437
-10.436 -10.436 -10.436 -10.435 -10.435 -10.435 -10.433 -10.433
-10.427 -10.427 -10.422 -10.421 -10.420 -10.418  -6.951  -6.951
 -1.183  -1.182  -1.018  -1.018  -0.965  -0.961  -0.957  -0.956
 -0.934  -0.933  -0.911  -0.902  -0.885  -0.884  -0.863  -0.856
 -0.856  -0.852  -0.847  -0.846  -0.824  -0.818  -0.817  -0.814
 -0.813  -0.806  -0.776  -0.774  -0.765  -0.764  -0.736  -0.729
 -0.727  -0.721  -0.710  -0.709  -0.689  -0.683  -0.680  -0.666
 -0.660  -0.649  -0.648  -0.647  -0.639  -0.638  -0.595  -0.594
 -0.590  -0.587  -0.585  -0.584  -0.583  -0.575  -0.574  -0.562
 -0.562  -0.545  -0.543  -0.537  -0.533  -0.533  -0.528  -0.523
 -0.514  -0.509  -0.503  -0.501  -0.498  -0.496  -0.495  -0.494
 -0.493  -0.491  -0.487  -0.487  -0.485  -0.481  -0.478  -0.474
 -0.474  -0.473  -0.470  -0.466  -0.465  -0.465  -0.462  -0.454
 -0.449  -0.445  -0.442  -0.439  -0.437  -0.429  -0.429  -0.427
 -0.425  -0.424  -0.420  -0.415  -0.414  -0.411  -0.407  -0.406
 -0.398  -0.396  -0.396  -0.394  -0.392  -0.391  -0.387  -0.385
 -0.381  -0.374  -0.369  -0.367  -0.365  -0.359  -0.357  -0.354
 -0.343  -0.341  -0.321  -0.316  -0.297  -0.296  -0.283  -0.279
 -0.279  -0.264  -0.260  -0.258  -0.254  -0.251

 Beta MOs
 -- Occupied --
-19.527 -19.527 -10.505 -10.505 -10.483 -10.482 -10.467 -10.467
-10.466 -10.466 -10.465 -10.465 -10.465 -10.464 -10.464 -10.464
-10.464 -10.464 -10.462 -10.461 -10.461 -10.461 -10.461 -10.461
-10.458 -10.458 -10.458 -10.458 -10.457 -10.456 -10.456 -10.455
-10.455 -10.454 -10.453 -10.453 -10.449 -10.449 -10.437 -10.437
-10.436 -10.436 -10.436 -10.435 -10.435 -10.435 -10.433 -10.433
-10.427 -10.427 -10.422 -10.421 -10.420 -10.418  -6.951  -6.951
 -1.183  -1.182  -1.018  -1.018  -0.965  -0.961  -0.957  -0.956
 -0.934  -0.933  -0.911  -0.902  -0.885  -0.884  -0.863  -0.856
 -0.856  -0.852  -0.847  -0.846  -0.824  -0.818  -0.817  -0.814
 -0.813  -0.806  -0.776  -0.774  -0.765  -0.764  -0.736  -0.729
 -0.727  -0.721  -0.710  -0.709  -0.689  -0.683  -0.680  -0.666
 -0.660  -0.649  -0.648  -0.647  -0.639  -0.638  -0.595  -0.594
 -0.590  -0.587  -0.585  -0.584  -0.583  -0.575  -0.574  -0.562
 -0.562  -0.545  -0.543  -0.537  -0.533  -0.533  -0.528  -0.523
 -0.514  -0.509  -0.503  -0.501  -0.498  -0.496  -0.495  -0.494
 -0.493  -0.491  -0.487  -0.487  -0.485  -0.481  -0.478  -0.474
 -0.474  -0.473  -0.470  -0.466  -0.465  -0.465  -0.462  -0.454
 -0.449  -0.445  -0.442  -0.439  -0.437  -0.429  -0.429  -0.427
 -0.425  -0.424  -0.420  -0.415  -0.414  -0.411  -0.407  -0.406
 -0.398  -0.396  -0.396  -0.394  -0.392  -0.391  -0.387  -0.385
 -0.381  -0.374  -0.369  -0.367  -0.365  -0.359  -0.357  -0.354
 -0.343  -0.341  -0.321  -0.316  -0.297  -0.296  -0.283  -0.279
 -0.279  -0.264  -0.260  -0.258  -0.254  -0.251

          Ground-State Mulliken Net Atomic Charges

     Atom                 Charge (a.u.)    Spin (a.u.)
  --------------------------------------------------------
      1 C                    -0.150149      -0.000000
      2 C                    -0.403144      -0.000000
      3 H                     0.249979       0.000000
      4 C                     0.093084       0.000000
      5 C                     0.070577       0.000000
      6 C                    -0.394392      -0.000000
      7 H                     0.248127       0.000000
      8 C                    -0.153343      -0.000000
      9 C                     0.179164      -0.000000
     10 C                    -0.397567       0.000000
     11 H                     0.252599      -0.000000
     12 C                    -0.066859       0.000000
     13 C                     0.221610      -0.000000
     14 C                     0.178046      -0.000000
     15 C                    -0.388557       0.000000
     16 H                     0.252612      -0.000000
     17 C                    -0.231926      -0.000000
     18 H                     0.257349       0.000000
     19 C                    -0.350470       0.000000
     20 H                     0.254731      -0.000000
     21 C                    -0.346340       0.000000
     22 H                     0.254326      -0.000000
     23 C                    -0.234611      -0.000000
     24 H                     0.257778       0.000000
     25 B                     0.677759      -0.000000
     26 C                    -0.158402      -0.000000
     27 C                    -0.387384      -0.000000
     28 H                     0.245958       0.000000
     29 C                     0.069429       0.000000
     30 C                     0.091254       0.000000
     31 C                    -0.393849      -0.000000
     32 H                     0.247324      -0.000000
     33 C                    -0.154685      -0.000000
     34 C                     0.179605      -0.000000
     35 C                    -0.397681       0.000000
     36 H                     0.252449      -0.000000
     37 C                    -0.067263       0.000000
     38 C                     0.219845      -0.000000
     39 C                     0.178336      -0.000000
     40 C                    -0.388987       0.000000
     41 H                     0.251881      -0.000000
     42 C                    -0.231928      -0.000000
     43 H                     0.257082       0.000000
     44 C                    -0.349909       0.000000
     45 H                     0.254686      -0.000000
     46 C                    -0.345686       0.000000
     47 H                     0.254267      -0.000000
     48 C                    -0.234365      -0.000000
     49 H                     0.257583       0.000000
     50 B                     0.669123      -0.000000
     51 C                    -0.226015       0.000000
     52 C                     0.045372      -0.000000
     53 C                    -0.410567       0.000000
     54 H                     0.240966       0.000000
     55 C                     0.390421       0.000000
     56 O                    -0.469678       0.000000
     57 C                    -0.441425      -0.000000
     58 H                     0.255081       0.000000
     59 C                     0.073312      -0.000000
     60 C                    -0.428812       0.000000
     61 H                     0.253756      -0.000000
     62 H                     0.220093      -0.000000
     63 H                     0.220230      -0.000000
     64 C                    -0.774335       0.000000
     65 H                     0.254230      -0.000000
     66 H                     0.249300       0.000000
     67 H                     0.249638       0.000000
     68 C                    -0.548706      -0.000000
     69 H                     0.252311       0.000000
     70 H                     0.240901      -0.000000
     71 C                    -0.652481      -0.000000
     72 H                     0.231879       0.000000
     73 H                     0.228649      -0.000000
     74 H                     0.221314       0.000000
     75 C                    -0.219603      -0.000000
     76 C                     0.063931       0.000000
     77 C                    -0.451247      -0.000000
     78 H                     0.254686      -0.000000
     79 C                     0.389557      -0.000000
     80 O                    -0.469943       0.000000
     81 C                    -0.407165       0.000000
     82 H                     0.240371       0.000000
     83 C                     0.058723       0.000000
     84 C                    -0.428641      -0.000000
     85 H                     0.253466       0.000000
     86 H                     0.220189       0.000000
     87 H                     0.220043       0.000000
     88 C                    -0.772282      -0.000000
     89 H                     0.252669      -0.000000
     90 H                     0.248619       0.000000
     91 H                     0.248280       0.000000
     92 C                    -0.555901      -0.000000
     93 H                     0.256031       0.000000
     94 H                     0.242655       0.000000
     95 C                    -0.656462      -0.000000
     96 H                     0.238498       0.000000
     97 H                     0.227301      -0.000000
     98 H                     0.221723       0.000000
  --------------------------------------------------------
  Sum of atomic charges =    -0.000000

                    Cartesian Multipole Moments
 -----------------------------------------------------------------
    Charge (ESU x 10^10)
                -0.0000
    Dipole Moment (Debye)
         X      -0.4434      Y      -0.2128      Z      -0.4171
       Tot       0.6449
    Quadrupole Moments (Debye-Ang)
        XX    -265.9365     XY      21.6925     YY    -320.6450
        XZ      -2.6082     YZ      11.6923     ZZ    -259.3458

             Standard Nuclear Orientation (Angstroms)
    I     Atom           X                Y                Z
 ----------------------------------------------------------------
    1      C       0.1114182935    -0.1224925420     0.1092695803
    2      C       0.1283181038    -0.1891612343     1.5085266466
    3      H       1.0755630748    -0.1817222272     2.0369168883
    4      C      -1.0620310630    -0.2601580138     2.2147690455
    5      C      -2.2901003470    -0.2421263042     1.5154876822
    6      C      -2.3190804486    -0.1570871837     0.1366119305
    7      H      -3.2686131737    -0.1306010151    -0.3872232185
    8      C      -1.1249007568    -0.1067059132    -0.5828691830
    9      C      -1.3666423888    -0.3493112313     3.6473010615
   10      C      -0.6344121051    -0.4040240946     4.8042349719
   11      H       0.4482640243    -0.3837608825     4.7991399545
   12      C      -2.7722397453    -0.3823141016     3.7479230075
   13      C      -3.4811314037    -0.4667959266     4.9408781762
   14      C      -3.3799719069    -0.3193111733     2.4812295569
   15      C      -4.7482731940    -0.3406299462     2.3944923601
   16      H      -5.2637090256    -0.2942863801     1.4426534955
   17      C      -1.3267019685    -0.4903152415     6.0377080964
   18      H      -0.7462234185    -0.5335143942     6.9498874247
   19      C      -2.7004157964    -0.5217817839     6.1205625050
   20      H      -3.1824829129    -0.5886015382     7.0881461660
   21      C      -4.8943156985    -0.4871745212     4.8310071031
   22      H      -5.5054821385    -0.5515504867     5.7229589132
   23      C      -5.4948231291    -0.4252287487     3.5934971387
   24      H      -6.5752602518    -0.4418627226     3.5306395089
   25      B      -1.1670166113    -0.0205941640    -2.1358283667
   26      C       0.1670508840    -0.0785457791    -2.9331244903
   27      C       0.1420396187    -0.1011621174    -4.3278664923
   28      H      -0.8041860523    -0.0644904732    -4.8561091994
   29      C       1.3253529600    -0.1753765178    -5.0360027321
   30      C       2.5684881329    -0.2124755616    -4.3654349117
   31      C       2.6025339159    -0.1641579392    -2.9818444899
   32      H       3.5524970084    -0.1736084449    -2.4595473874
   33      C       1.4082428046    -0.1027226892    -2.2535202055
   34      C       3.6234676890    -0.2919674016    -5.3832676065
   35      C       4.9926122702    -0.3601753084    -5.3766762848
   36      H       5.5620720213    -0.3619369381    -4.4556401063
   37      C       2.9646541036    -0.2976192365    -6.6291647003
   38      C       3.6037187719    -0.3671277800    -7.8636084147
   39      C       1.5684713536    -0.2273558542    -6.4754104069
   40      C       0.7755175086    -0.2244329691    -7.5949892837
   41      H      -0.3047641740    -0.1719192040    -7.5329989269
   42      C       5.6734744645    -0.4312523162    -6.6176586665
   43      H       6.7542438826    -0.4849780841    -6.6080881175
   44      C       5.0170376308    -0.4356415060    -7.8274166900
   45      H       5.5816836354    -0.4924241148    -8.7501268503
   46      C       2.7668436775    -0.3628906565    -9.0075687378
   47      H       3.2033336890    -0.4146072606    -9.9976882713
   48      C       1.3997841075    -0.2929795528    -8.8636141366
   49      H       0.7759738494    -0.2904643194    -9.7482421797
   50      B       1.4403432373    -0.0344074942    -0.6978661666
   51      C      -2.5336266004     0.1544967821    -2.8937778103
   52      C      -3.0775835362     1.4439975683    -3.0434126445
   53      C      -4.2692195352     1.6275929434    -3.7227614478
   54      H      -4.6815352962     2.6233696637    -3.8410883226
   55      C      -4.9520333731     0.5404426130    -4.2698243691
   56      O      -6.1039400154     0.8223410626    -4.9136658679
   57      C      -4.4227005971    -0.7331521990    -4.1313032443
   58      H      -4.9240268922    -1.5982608637    -4.5486051343
   59      C      -3.2195442641    -0.9253063237    -3.4479034027
   60      C      -6.8261477554    -0.2403594411    -5.4937653212
   61      H      -7.7075818044     0.1986537166    -5.9558557056
   62      H      -7.1504795044    -0.9734417986    -4.7494599533
   63      H      -6.2490076450    -0.7585993897    -6.2650742969
   64      C      -2.3578957068     2.6327549684    -2.4701499337
   65      H      -2.8660019490     3.5658713685    -2.7110087413
   66      H      -1.3378499285     2.7063209403    -2.8549128648
   67      H      -2.2853295313     2.5682641293    -1.3824012263
   68      C      -2.7192626841    -2.3385366581    -3.2886523680
   69      H      -1.6484819116    -2.3449336299    -3.0670711944
   70      H      -2.8290221566    -2.8764081032    -4.2344498794
   71      C      -3.4658327003    -3.0965515053    -2.1930093820
   72      H      -3.3508977218    -2.6054907114    -1.2260767674
   73      H      -3.0893302401    -4.1155017045    -2.0971884890
   74      H      -4.5329422155    -3.1538327579    -2.4119394740
   75      C       2.8125702367     0.1425087984     0.0364712622
   76      C       3.3706404014     1.4106606902     0.1934146706
   77      C       4.6053427540     1.5694908582     0.8243644653
   78      H       5.0119300241     2.5683320092     0.9261408771
   79      C       5.2920952926     0.4597265299     1.2981040074
   80      O       6.4918557278     0.5118626534     1.9137741525
   81      C       4.7402670790    -0.8115778364     1.1371830536
   82      H       5.2879945047    -1.6745885476     1.4990565859
   83      C       3.5144673592    -0.9756777646     0.5143722735
   84      C       7.0950081015     1.7721212406     2.0988963784
   85      H       8.0375982853     1.5936282179     2.6114805865
   86      H       6.4814648135     2.4354394482     2.7154300050
   87      H       7.3026871751     2.2722291930     1.1485577380
   88      C       2.9430868242    -2.3541372181     0.3244800536
   89      H       3.6055722445    -3.1248565589     0.7169714505
   90      H       1.9783876833    -2.4633823748     0.8252575128
   91      H       2.7756998675    -2.5720477216    -0.7332675173
   92      C       2.6301008196     2.6373380602    -0.2767108996
   93      H       2.0156617459     2.3963989370    -1.1496449943
   94      H       3.3444766513     3.3913661143    -0.6169676649
   95      C       1.7419854344     3.2390299441     0.8102397283
   96      H       0.9933510550     2.5228016290     1.1497147521
   97      H       1.2160980620     4.1190647756     0.4381710344
   98      H       2.3303674174     3.5416514369     1.6772788095
 ----------------------------------------------------------------
