 Q-Chem 5.0, Q-Chem, Inc., Pleasanton, CA (2017)
 Q-Chem 5.0.1 for Intel X86 EM64T Linux

User input:
--------------------------------------------------------------
$rem
threads 8
jobtype opt
method PBEh-3c
basis def2-mSVP
mem_static      1024
mem_total       8000
sym_ignore      true
unrestricted true
scf_algorithm   diis
scf_max_cycles  250
solvent_method  pcm
geom_opt_tol_energy 25
geom_opt_tol_gradient 75
$end

$pcm
theory  iefpcm
$end

$solvent
dielectric      2.03
$end

$molecule
read uincoords.mol
$end

--------------------------------------------------------------

   22   -2202.1733516361      8.54E-09 Convergence criterion met
 Total energy in the final basis set = -2202.17335164
   18   -2202.1749412448      7.56E-09 Convergence criterion met
 Total energy in the final basis set = -2202.17494124
   17   -2202.1750847380      8.78E-09 Convergence criterion met
 Total energy in the final basis set = -2202.17508474
   16   -2202.1753654638      9.22E-09 Convergence criterion met
 Total energy in the final basis set = -2202.17536546
   16   -2202.1754708530      6.91E-09 Convergence criterion met
 Total energy in the final basis set = -2202.17547085
   16   -2202.1755915257      6.89E-09 Convergence criterion met
 Total energy in the final basis set = -2202.17559153
   16   -2202.1755710109      7.54E-09 Convergence criterion met
 Total energy in the final basis set = -2202.17557101
   16   -2202.1755684083      7.55E-09 Convergence criterion met
 Total energy in the final basis set = -2202.17556841
   16   -2202.1755800981      8.35E-09 Convergence criterion met
 Total energy in the final basis set = -2202.17558010
   16   -2202.1755829712      8.12E-09 Convergence criterion met
 Total energy in the final basis set = -2202.17558297
   16   -2202.1755842159      8.18E-09 Convergence criterion met
 Total energy in the final basis set = -2202.17558422

             Standard Nuclear Orientation (Angstroms)
    I     Atom           X                Y                Z
 ----------------------------------------------------------------
    1      C       0.0303313148    -0.4094714447     0.0745743052
    2      C       0.0325205898    -0.3642682744     1.4912784820
    3      H       0.9749360875    -0.3745050175     2.0326547818
    4      C      -1.1458213316    -0.3055093273     2.1928642894
    5      C      -2.3847537668    -0.2827991347     1.4871403448
    6      C      -2.4081608198    -0.3273870976     0.1147933463
    7      H      -3.3565942583    -0.3139244699    -0.4130976235
    8      C      -1.2154621623    -0.3942249723    -0.6255084594
    9      C      -3.4664691588    -0.2146858481     2.4579969917
   10      C      -4.8361315684    -0.1675389338     2.3795144843
   11      H      -5.3536735691    -0.1756664169     1.4280114630
   12      C      -2.8586548446    -0.1998509160     3.7284371470
   13      C      -3.5660400227    -0.1410571745     4.9253518116
   14      C      -1.4531979645    -0.2536216767     3.6250634934
   15      C      -0.7231043997    -0.2481254997     4.7857028795
   16      H       0.3591539344    -0.2883771922     4.7801948484
   17      C      -1.4123429161    -0.1890014521     6.0201051995
   18      H      -0.8320416821    -0.1855091408     6.9339601498
   19      C      -2.7849804471    -0.1365662515     6.1050533902
   20      H      -3.2658288453    -0.0926052861     7.0746700647
   21      C      -5.5783437075    -0.1071751661     3.5806567746
   22      H      -6.6587480138    -0.0702654756     3.5193882098
   23      C      -4.9787595119    -0.0938100790     4.8193464161
   24      H      -5.5884403051    -0.0472319534     5.7134325962
   25      B       1.3243585807    -0.4705673551    -0.7339199294
   26      C       1.3150693076    -0.5594019690    -2.2590353404
   27      C       2.5126235978    -0.6607722332    -3.0094512386
   28      H       3.4713911417    -0.6878361299    -2.4984781038
   29      C       2.4757011431    -0.7274531679    -4.3800604474
   30      C       1.2189027387    -0.6868192242    -5.0519955508
   31      C       0.0473893700    -0.5949372458    -4.3434318970
   32      H      -0.9025668839    -0.5681152854    -4.8671818707
   33      C       0.0597237377    -0.5377679618    -2.9400149263
   34      C       1.4591508034    -0.7644331482    -6.4859879370
   35      C       0.6628606824    -0.7688627536    -7.6045812353
   36      H      -0.4160244429    -0.7011541530    -7.5369092700
   37      C       2.8548586462    -0.8547990051    -6.6487706908
   38      C       3.4859187060    -0.9523571544    -7.8867955624
   39      C       3.5204230260    -0.8376305512    -5.4056733391
   40      C       4.8895756028    -0.9245239718    -5.4115713060
   41      H       5.4663990079    -0.9204910251    -4.4950125479
   42      C       1.2790229471    -0.8653967923    -8.8734332778
   43      H       0.6498563641    -0.8685595562    -9.7547077707
   44      C       2.6432998248    -0.9555182402    -9.0264067461
   45      H       3.0730838050    -1.0283942374   -10.0181476305
   46      C       5.5608190827    -1.0242124225    -6.6535446201
   47      H       6.6412403356    -1.0927840638    -6.6507306607
   48      C       4.8974377416    -1.0389530721    -7.8589400899
   49      H       5.4553318885    -1.1180932851    -8.7842222456
   50      B      -1.2653894593    -0.4524045219    -2.1627150307
   51      C       2.7051887789    -0.4692782708     0.0118393749
   52      C       3.4620144197     0.7437464896     0.1825632957
   53      C       4.6235374177     0.7350819288     0.9071228371
   54      H       5.1784346241     1.6547669408     1.0387399779
   55      C       5.0874145618    -0.4748826405     1.4653112569
   56      O       6.1754737875    -0.5812515571     2.1799898455
   57      C       4.3805273302    -1.6904677338     1.2602835890
   58      H       4.7875145056    -2.5981387983     1.6888556622
   59      C       3.2245713015    -1.7003111346     0.5397892143
   60      C       6.9791658584     0.5607147291     2.4691423819
   61      H       7.7961862273     0.1998585048     3.0854371891
   62      H       7.3807936332     0.9980847028     1.5546777003
   63      H       6.4105806995     1.3090450563     3.0217236435
   64      C       2.4708984368    -2.9669942664     0.2977471362
   65      H       3.0044988073    -3.8334146065     0.6849956812
   66      H       2.2961181288    -3.1122662318    -0.7695703099
   67      H       1.4869763706    -2.9272478056     0.7679248645
   68      C       2.9539761340     2.0248194698    -0.4031927908
   69      H       2.4767461961     1.8255344466    -1.3641031584
   70      H       3.7976000605     2.6906658184    -0.5970991818
   71      C       1.9533867890     2.7229605138     0.5213738525
   72      H       1.0678542472     2.1114431184     0.6864850851
   73      H       1.6281342764     3.6606547457     0.0722467189
   74      H       2.3988952896     2.9485904095     1.4906899866
   75      C      -2.6441275049    -0.4023488270    -2.9392145071
   76      C      -3.2774099575    -1.5579096210    -3.3992706090
   77      C      -4.4848275385    -1.4893490755    -4.0988109351
   78      H      -4.9385169994    -2.4132411368    -4.4381667242
   79      C      -5.0770168719    -0.2633281905    -4.3536904000
   80      O      -6.2418694825    -0.0973872619    -5.0217791365
   81      C      -4.4510075754     0.8991593830    -3.9094778595
   82      H      -4.9122579613     1.8571867619    -4.1207202006
   83      C      -3.2553752775     0.8356071524    -3.2140721877
   84      C      -6.9147497089    -1.2415586581    -5.4801198670
   85      H      -7.8232657451    -0.8950366334    -5.9688574400
   86      H      -7.1943336928    -1.9142738180    -4.6629489822
   87      H      -6.3243753143    -1.8081999630    -6.2075059664
   88      C      -2.5992851069     2.1096375036    -2.7609544915
   89      H      -3.1623637878     2.9878630751    -3.0768633255
   90      H      -1.5888373617     2.1983113955    -3.1657002194
   91      H      -2.5082514137     2.1449514635    -1.6738024408
   92      C      -2.7092761975    -2.9259970587    -3.1184136183
   93      H      -1.6221073134    -2.8719654837    -3.0265393219
   94      H      -2.9092816909    -3.5861397942    -3.9672615136
   95      C      -3.2947744109    -3.5438108267    -1.8506738334
   96      H      -3.0708588866    -2.9296660511    -0.9782750469
   97      H      -4.3795553397    -3.6368208887    -1.9219750796
   98      H      -2.8843819003    -4.5389118943    -1.6728347207
 ----------------------------------------------------------------

   16   -2202.1755852343      8.45E-09 Convergence criterion met
 Total energy in the final basis set = -2202.17558523
 Final energy is   -2202.17558523426
 **  OPTIMIZATION CONVERGED  **

                    Orbital Energies (a.u.)
 --------------------------------------------------------------

 Alpha MOs
 -- Occupied --
-19.613 -19.512 -10.592 -10.533 -10.513 -10.506 -10.500 -10.495
-10.494 -10.486 -10.476 -10.456 -10.450 -10.450 -10.450 -10.449
-10.448 -10.448 -10.447 -10.447 -10.446 -10.446 -10.446 -10.445
-10.445 -10.444 -10.444 -10.444 -10.444 -10.443 -10.443 -10.441
-10.441 -10.439 -10.438 -10.435 -10.435 -10.434 -10.433 -10.432
-10.432 -10.431 -10.429 -10.428 -10.417 -10.417 -10.415 -10.415
-10.414 -10.408 -10.406 -10.405 -10.404 -10.396  -6.907  -6.899
 -1.272  -1.168  -1.015  -0.998  -0.998  -0.942  -0.939  -0.936
 -0.931  -0.918  -0.918  -0.913  -0.887  -0.880  -0.866  -0.860
 -0.842  -0.836  -0.835  -0.832  -0.831  -0.826  -0.807  -0.803
 -0.800  -0.795  -0.794  -0.784  -0.758  -0.746  -0.746  -0.717
 -0.714  -0.711  -0.705  -0.703  -0.692  -0.680  -0.673  -0.663
 -0.663  -0.647  -0.640  -0.638  -0.628  -0.627  -0.619  -0.617
 -0.606  -0.598  -0.579  -0.577  -0.573  -0.569  -0.567  -0.561
 -0.559  -0.556  -0.544  -0.540  -0.530  -0.525  -0.522  -0.521
 -0.518  -0.512  -0.510  -0.508  -0.503  -0.501  -0.491  -0.485
 -0.483  -0.481  -0.481  -0.478  -0.475  -0.474  -0.473  -0.469
 -0.468  -0.467  -0.466  -0.465  -0.462  -0.459  -0.456  -0.453
 -0.451  -0.449  -0.446  -0.442  -0.439  -0.430  -0.428  -0.422
 -0.418  -0.417  -0.411  -0.411  -0.409  -0.407  -0.406  -0.401
 -0.400  -0.397  -0.392  -0.383  -0.382  -0.382  -0.380  -0.378
 -0.373  -0.369  -0.360  -0.357  -0.356  -0.349  -0.344  -0.335
 -0.332  -0.328  -0.320  -0.307  -0.305  -0.300  -0.284  -0.282
 -0.269  -0.258  -0.252  -0.241  -0.238  -0.233  -0.151

 Beta MOs
 -- Occupied --
-19.608 -19.512 -10.589 -10.534 -10.512 -10.506 -10.495 -10.493
-10.493 -10.486 -10.476 -10.456 -10.451 -10.451 -10.449 -10.449
-10.448 -10.448 -10.447 -10.447 -10.446 -10.446 -10.446 -10.445
-10.445 -10.444 -10.444 -10.443 -10.443 -10.443 -10.443 -10.441
-10.441 -10.438 -10.438 -10.433 -10.433 -10.433 -10.433 -10.432
-10.432 -10.431 -10.429 -10.428 -10.417 -10.417 -10.415 -10.415
-10.414 -10.408 -10.406 -10.403 -10.403 -10.396  -6.904  -6.896
 -1.262  -1.168  -1.005  -0.998  -0.997  -0.941  -0.938  -0.935
 -0.928  -0.917  -0.917  -0.903  -0.886  -0.879  -0.865  -0.858
 -0.840  -0.835  -0.834  -0.831  -0.830  -0.817  -0.803  -0.801
 -0.798  -0.794  -0.793  -0.782  -0.758  -0.746  -0.741  -0.715
 -0.712  -0.709  -0.702  -0.701  -0.691  -0.678  -0.672  -0.662
 -0.659  -0.645  -0.637  -0.636  -0.627  -0.627  -0.619  -0.613
 -0.593  -0.585  -0.577  -0.576  -0.571  -0.569  -0.566  -0.560
 -0.557  -0.552  -0.543  -0.538  -0.527  -0.524  -0.521  -0.521
 -0.516  -0.510  -0.509  -0.502  -0.500  -0.497  -0.489  -0.484
 -0.482  -0.481  -0.477  -0.475  -0.473  -0.472  -0.471  -0.467
 -0.467  -0.465  -0.464  -0.462  -0.459  -0.458  -0.454  -0.452
 -0.449  -0.449  -0.446  -0.438  -0.437  -0.428  -0.426  -0.421
 -0.415  -0.414  -0.409  -0.408  -0.407  -0.404  -0.400  -0.398
 -0.396  -0.391  -0.385  -0.382  -0.380  -0.379  -0.379  -0.377
 -0.371  -0.368  -0.355  -0.353  -0.350  -0.345  -0.342  -0.331
 -0.329  -0.319  -0.316  -0.300  -0.295  -0.280  -0.280  -0.259
 -0.258  -0.244  -0.238  -0.232  -0.231

          Ground-State Mulliken Net Atomic Charges

     Atom                 Charge (a.u.)    Spin (a.u.)
  --------------------------------------------------------
      1 C                    -0.131094       0.001866
      2 C                    -0.413997       0.022127
      3 H                     0.191645      -0.003693
      4 C                     0.092023       0.005178
      5 C                     0.070047       0.117053
      6 C                    -0.406450      -0.070917
      7 H                     0.232537       0.002979
      8 C                    -0.137866       0.082103
      9 C                     0.187513      -0.062791
     10 C                    -0.395132       0.089919
     11 H                     0.229335      -0.005279
     12 C                    -0.074498       0.022575
     13 C                     0.241523      -0.035696
     14 C                     0.190447      -0.034202
     15 C                    -0.404535       0.055350
     16 H                     0.211722      -0.003285
     17 C                    -0.213963      -0.039089
     18 H                     0.227309       0.001977
     19 C                    -0.353760       0.051996
     20 H                     0.225909      -0.003018
     21 C                    -0.215667      -0.054507
     22 H                     0.231907       0.002629
     23 C                    -0.351362       0.081546
     24 H                     0.224686      -0.004854
     25 B                     0.532034       0.373522
     26 C                    -0.131599       0.003924
     27 C                    -0.408129       0.022716
     28 H                     0.189123      -0.003740
     29 C                     0.091703       0.004723
     30 C                     0.068402       0.113928
     31 C                    -0.393115      -0.068618
     32 H                     0.229472       0.003062
     33 C                    -0.149410       0.081464
     34 C                     0.188175      -0.061185
     35 C                    -0.394308       0.087361
     36 H                     0.229138      -0.005128
     37 C                    -0.074235       0.021925
     38 C                     0.239576      -0.034607
     39 C                     0.190552      -0.033242
     40 C                    -0.405442       0.053691
     41 H                     0.212076      -0.003190
     42 C                    -0.215919      -0.052828
     43 H                     0.231722       0.002549
     44 C                    -0.350149       0.078744
     45 H                     0.224714      -0.004685
     46 C                    -0.213774      -0.037884
     47 H                     0.227350       0.001917
     48 C                    -0.353083       0.050198
     49 H                     0.226044      -0.002911
     50 B                     0.572927       0.257684
     51 C                    -0.121094       0.503048
     52 C                     0.111451       0.023855
     53 C                    -0.417744       0.026935
     54 H                     0.276605      -0.003060
     55 C                     0.463695       0.225729
     56 O                    -0.393718       0.134061
     57 C                    -0.364826       0.094347
     58 H                     0.277351      -0.006183
     59 C                     0.072829      -0.068587
     60 C                    -0.442526      -0.013631
     61 H                     0.281550      -0.000011
     62 H                     0.250445       0.009001
     63 H                     0.250673       0.008833
     64 C                    -0.754775       0.005257
     65 H                     0.247803       0.001279
     66 H                     0.280861      -0.001493
     67 H                     0.282541      -0.000411
     68 C                    -0.551607      -0.001087
     69 H                     0.295874      -0.000593
     70 H                     0.242370       0.001125
     71 C                    -0.661442       0.006978
     72 H                     0.276701      -0.001171
     73 H                     0.242889       0.001228
     74 H                     0.212787      -0.000411
     75 C                    -0.201139      -0.024423
     76 C                     0.063854       0.004259
     77 C                    -0.432791      -0.001389
     78 H                     0.227176       0.000317
     79 C                     0.389656       0.001709
     80 O                    -0.464489       0.000359
     81 C                    -0.393378      -0.001178
     82 H                     0.221146       0.000360
     83 C                     0.046619       0.004154
     84 C                    -0.413243      -0.000046
     85 H                     0.241167       0.000005
     86 H                     0.208178       0.000031
     87 H                     0.207947       0.000035
     88 C                    -0.758209       0.000371
     89 H                     0.231699       0.001355
     90 H                     0.244014      -0.000776
     91 H                     0.245458      -0.000504
     92 C                    -0.540752       0.002967
     93 H                     0.256003      -0.001858
     94 H                     0.221195       0.000288
     95 C                    -0.648727      -0.000195
     96 H                     0.243887      -0.000196
     97 H                     0.210618      -0.000053
     98 H                     0.213295       0.000013
  --------------------------------------------------------
  Sum of atomic charges =    -0.000000

                    Cartesian Multipole Moments
 -----------------------------------------------------------------
    Charge (ESU x 10^10)
                -0.0000
    Dipole Moment (Debye)
         X      14.0938      Y       0.6869      Z       7.7955
       Tot      16.1207
    Quadrupole Moments (Debye-Ang)
        XX    -229.5820     XY      15.1675     YY    -320.5555
        XZ      35.3316     YZ       7.1187     ZZ    -320.7666

 Total job time:  27699.01s(wall), 81756.20s(cpu)
        *  Thank you very much for using Q-Chem.  Have a nice day.  *
