 Q-Chem 5.0, Q-Chem, Inc., Pleasanton, CA (2017)
 Q-Chem 5.0.1 for Intel X86 EM64T Linux

User input:
--------------------------------------------------------------
$rem
threads 8
jobtype opt
method PBEh-3c
basis def2-mSVP
mem_static      1024
mem_total       8000
sym_ignore      true
unrestricted true
scf_algorithm	diis
scf_max_cycles	250
solvent_method  pcm
geom_opt_tol_energy 25
geom_opt_tol_gradient 75
$end

$pcm
theory  iefpcm
$end
$solvent
dielectric      4.33
$end

$molecule
read utLEincoords.mol
$end
--------------------------------------------------------------

   26   -2202.1953533060      8.62E-09 Convergence criterion met
 Total energy in the final basis set = -2202.19535331
   17   -2202.1995665797      7.95E-09 Convergence criterion met
 Total energy in the final basis set = -2202.19956658
   17   -2202.2007715306      7.20E-09 Convergence criterion met
 Total energy in the final basis set = -2202.20077153
   16   -2202.2004769100      7.76E-09 Convergence criterion met
 Total energy in the final basis set = -2202.20047691
   15   -2202.2009149449      7.80E-09 Convergence criterion met
 Total energy in the final basis set = -2202.20091494
   15   -2202.2009361431      6.36E-09 Convergence criterion met
 Total energy in the final basis set = -2202.20093614
   14   -2202.2009256115      8.52E-09 Convergence criterion met
 Total energy in the final basis set = -2202.20092561
   14   -2202.2009221632      9.47E-09 Convergence criterion met
 Total energy in the final basis set = -2202.20092216
   14   -2202.2009204926      9.67E-09 Convergence criterion met
 Total energy in the final basis set = -2202.20092049
   14   -2202.2009152839      9.69E-09 Convergence criterion met
 Total energy in the final basis set = -2202.20091528
   14   -2202.2009113515      9.61E-09 Convergence criterion met
 Total energy in the final basis set = -2202.20091135
   14   -2202.2009101085      9.44E-09 Convergence criterion met
 Total energy in the final basis set = -2202.20091011

             Standard Nuclear Orientation (Angstroms)
    I     Atom           X                Y                Z
 ----------------------------------------------------------------
    1      C       0.0157750695    -0.3873494467     0.0348145944
    2      C       0.0145923363    -0.3960019773     1.4427454132
    3      H       0.9576758834    -0.4173363040     1.9777619987
    4      C      -1.1737927691    -0.3746387643     2.1373733488
    5      C      -2.4047026403    -0.3320084853     1.4283502635
    6      C      -2.4225529068    -0.3205393317     0.0527650416
    7      H      -3.3675910547    -0.2907563852    -0.4788875160
    8      C      -1.2204139065    -0.3528243129    -0.6727376107
    9      C      -3.4940534035    -0.3109162037     2.3996554541
   10      C      -4.8622704974    -0.2688228575     2.3199822394
   11      H      -5.3800792039    -0.2399990185     1.3689628661
   12      C      -5.6064781999    -0.2629135594     3.5232958976
   13      H      -6.6866272290    -0.2295158786     3.4628855789
   14      C      -5.0066606437    -0.2983960660     4.7616057745
   15      H      -5.6163167666    -0.2929031442     5.6569357364
   16      C      -2.8882064308    -0.3450410451     3.6685780663
   17      C      -3.5950540356    -0.3416183394     4.8664536085
   18      C      -1.4837875379    -0.3841996268     3.5681924461
   19      C      -0.7511773715    -0.4229980788     4.7249436359
   20      H       0.3310675234    -0.4551895388     4.7155910362
   21      C      -1.4414251500    -0.4212570385     5.9614188880
   22      H      -0.8609851563    -0.4525266408     6.8741563439
   23      C      -2.8143949094    -0.3819634913     6.0461039974
   24      H      -3.2966956422    -0.3822551771     7.0158533378
   25      B      -1.2699907694    -0.3508950938    -2.2217137583
   26      B       1.3595357013    -0.4151306091    -0.7269156218
   27      C       1.3472541501    -0.4638526561    -2.2644809190
   28      C       2.5452320499    -0.5641905873    -2.9619739751
   29      H       3.4805243773    -0.6119167771    -2.4159449313
   30      C       2.5489894626    -0.5975953400    -4.3457256518
   31      C       3.5913109081    -0.6922390697    -5.3118544926
   32      C       4.9761043515    -0.7954882687    -5.2673663137
   33      H       5.5135787720    -0.8186443208    -4.3285544216
   34      C       5.6744148887    -0.8724704975    -6.4808215133
   35      H       6.7532727429    -0.9531166109    -6.4520374248
   36      C       5.0436336814    -0.8515380139    -7.7154135317
   37      H       5.6338194873    -0.9155024487    -8.6210716195
   38      C       2.9573665627    -0.6718635287    -6.5809191879
   39      C       3.6340688857    -0.7488645008    -7.7972489563
   40      C       1.5441134144    -0.5677626818    -6.4720440452
   41      C       0.7820500425    -0.5390487654    -7.6374861010
   42      H      -0.2970201391    -0.4605206455    -7.6076455641
   43      C       1.4490509053    -0.6150089713    -8.8658094940
   44      H       0.8641874692    -0.5930747019    -9.7763943370
   45      C       2.8295484743    -0.7174493466    -8.9637140817
   46      H       3.2936694074    -0.7738109318    -9.9405560840
   47      C       1.2532725996    -0.5196955302    -5.0867987772
   48      C       0.0558406936    -0.4308620416    -4.3872425516
   49      H      -0.8823856838    -0.3835697787    -4.9295588636
   50      C       0.0550313161    -0.4144359714    -3.0025559991
   51      C       2.7295529308    -0.4270297411     0.0434671889
   52      C       3.4646992328     0.7413353853     0.2464709399
   53      C       4.6769653300     0.7104408176     0.9385565791
   54      H       5.2184130680     1.6383442259     1.0767258875
   55      C       5.1694991230    -0.4911545421     1.4277752504
   56      O       6.3298685000    -0.6235938878     2.1047865575
   57      C       4.4470237966    -1.6651337198     1.2163627399
   58      H       4.8445070845    -2.6023972988     1.5892813336
   59      C       3.2425976393    -1.6403366109     0.5347990022
   60      C       7.0967948811     0.5310418758     2.3503521133
   61      H       7.9717620971     0.2099932795     2.9113043330
   62      H       7.4320233951     1.0088523009     1.4247740892
   63      H       6.5517765658     1.2695473142     2.9459244027
   64      C       2.4864602404    -2.9210052909     0.3078141228
   65      H       3.0341253751    -3.7854724540     0.6821113419
   66      H       1.5144673093    -2.9055333193     0.8051995591
   67      H       2.2934332710    -3.0870576974    -0.7545282737
   68      C       2.9461350258     2.0712035164    -0.2385272589
   69      H       2.3887975624     1.9415468707    -1.1703135177
   70      H       3.7871322346     2.7257327512    -0.4816841237
   71      C       2.0518772771     2.7622074921     0.7889352412
   72      H       1.1662344215     2.1656033422     1.0090849179
   73      H       1.7141748570     3.7322282876     0.4218049714
   74      H       2.5840470026     2.9246701160     1.7270659349
   75      C      -2.6447934788    -0.2643331918    -2.9894523307
   76      C      -3.2901262711    -1.4012638180    -3.4773734869
   77      C      -4.5095343658    -1.3001875388    -4.1513837051
   78      H      -4.9767115410    -2.2081586808    -4.5142001209
   79      C      -5.0994594161    -0.0618064397    -4.3491153779
   80      O      -6.2743401655     0.1330255180    -4.9852251596
   81      C      -4.4580998318     1.0820776400    -3.8750647336
   82      H      -4.9178301442     2.0499379997    -4.0400150994
   83      C      -3.2506903653     0.9880920941    -3.2045459744
   84      C      -6.9750058019    -0.9935247604    -5.4575683590
   85      H      -7.8908009816    -0.6223022048    -5.9124524205
   86      H      -7.2403238956    -1.6824429521    -4.6500857158
   87      H      -6.4093161716    -1.5453951527    -6.2142430519
   88      C      -2.5820056867     2.2400464601    -2.7095661186
   89      H      -3.1411190026     3.1328102369    -2.9880572263
   90      H      -1.5738791327     2.3414132991    -3.1175912780
   91      H      -2.4854261795     2.2371785148    -1.6219990285
   92      C      -2.7293464336    -2.7823433479    -3.2497294808
   93      H      -1.6443190747    -2.7386097146    -3.1264422209
   94      H      -2.9059695056    -3.3990044116    -4.1352883531
   95      C      -3.3485263008    -3.4638076679    -2.0313061483
   96      H      -3.1518957792    -2.8959093736    -1.1215403219
   97      H      -2.9400614038    -4.4656564883    -1.8936638443
   98      H      -4.4302554959    -3.5549568531    -2.1384172793
 ----------------------------------------------------------------

   14   -2202.2009121685      9.57E-09 Convergence criterion met
 Total energy in the final basis set = -2202.20091217
 Final energy is   -2202.20091216851
 **  OPTIMIZATION CONVERGED  **

                    Orbital Energies (a.u.)
 --------------------------------------------------------------

 Alpha MOs
 -- Occupied --
-19.525 -19.525 -10.502 -10.502 -10.485 -10.485 -10.483 -10.483
-10.470 -10.468 -10.467 -10.467 -10.465 -10.465 -10.464 -10.463
-10.463 -10.463 -10.462 -10.462 -10.462 -10.461 -10.461 -10.460
-10.459 -10.459 -10.459 -10.459 -10.458 -10.456 -10.456 -10.452
-10.451 -10.451 -10.451 -10.450 -10.450 -10.449 -10.449 -10.447
-10.435 -10.435 -10.432 -10.432 -10.432 -10.432 -10.430 -10.430
-10.424 -10.423 -10.419 -10.418 -10.415 -10.414  -6.935  -6.933
 -1.181  -1.181  -1.027  -1.015  -0.968  -0.959  -0.953  -0.952
 -0.937  -0.931  -0.914  -0.901  -0.881  -0.881  -0.871  -0.857
 -0.853  -0.852  -0.850  -0.845  -0.825  -0.820  -0.814  -0.814
 -0.811  -0.806  -0.773  -0.772  -0.762  -0.761  -0.743  -0.736
 -0.726  -0.721  -0.707  -0.707  -0.691  -0.688  -0.680  -0.669
 -0.657  -0.647  -0.647  -0.644  -0.636  -0.635  -0.602  -0.593
 -0.592  -0.588  -0.584  -0.582  -0.582  -0.576  -0.576  -0.560
 -0.559  -0.545  -0.543  -0.536  -0.532  -0.532  -0.529  -0.523
 -0.519  -0.508  -0.504  -0.504  -0.503  -0.496  -0.495  -0.494
 -0.493  -0.493  -0.489  -0.485  -0.484  -0.483  -0.477  -0.472
 -0.471  -0.470  -0.467  -0.465  -0.462  -0.462  -0.460  -0.456
 -0.446  -0.446  -0.444  -0.440  -0.438  -0.431  -0.429  -0.426
 -0.422  -0.421  -0.419  -0.413  -0.412  -0.409  -0.407  -0.405
 -0.404  -0.400  -0.398  -0.394  -0.394  -0.389  -0.388  -0.383
 -0.380  -0.378  -0.367  -0.367  -0.363  -0.356  -0.354  -0.354
 -0.342  -0.342  -0.338  -0.317  -0.311  -0.297  -0.293  -0.276
 -0.276  -0.275  -0.266  -0.258  -0.251  -0.249  -0.183

 Beta MOs
 -- Occupied --
-19.525 -19.525 -10.502 -10.502 -10.483 -10.483 -10.479 -10.478
-10.471 -10.470 -10.470 -10.466 -10.465 -10.464 -10.463 -10.463
-10.462 -10.462 -10.461 -10.461 -10.461 -10.461 -10.461 -10.460
-10.460 -10.459 -10.459 -10.459 -10.459 -10.457 -10.456 -10.451
-10.451 -10.451 -10.450 -10.449 -10.449 -10.447 -10.447 -10.445
-10.435 -10.434 -10.432 -10.432 -10.432 -10.432 -10.430 -10.430
-10.424 -10.423 -10.419 -10.418 -10.415 -10.414  -6.934  -6.932
 -1.181  -1.181  -1.019  -1.015  -0.961  -0.957  -0.953  -0.952
 -0.933  -0.931  -0.908  -0.899  -0.881  -0.881  -0.868  -0.857
 -0.853  -0.849  -0.848  -0.844  -0.817  -0.816  -0.814  -0.814
 -0.810  -0.796  -0.773  -0.771  -0.762  -0.761  -0.733  -0.733
 -0.725  -0.718  -0.707  -0.707  -0.688  -0.682  -0.678  -0.666
 -0.656  -0.646  -0.645  -0.643  -0.635  -0.635  -0.599  -0.591
 -0.590  -0.586  -0.583  -0.582  -0.581  -0.575  -0.574  -0.559
 -0.558  -0.543  -0.541  -0.534  -0.532  -0.531  -0.528  -0.522
 -0.517  -0.508  -0.503  -0.503  -0.496  -0.495  -0.494  -0.493
 -0.490  -0.489  -0.484  -0.483  -0.482  -0.481  -0.477  -0.472
 -0.471  -0.470  -0.467  -0.464  -0.462  -0.461  -0.459  -0.454
 -0.444  -0.443  -0.441  -0.436  -0.431  -0.428  -0.426  -0.421
 -0.421  -0.419  -0.414  -0.413  -0.412  -0.408  -0.404  -0.403
 -0.399  -0.395  -0.394  -0.394  -0.394  -0.388  -0.383  -0.382
 -0.376  -0.369  -0.366  -0.363  -0.358  -0.355  -0.354  -0.340
 -0.339  -0.336  -0.329  -0.314  -0.297  -0.294  -0.276  -0.275
 -0.267  -0.262  -0.255  -0.250  -0.248

          Ground-State Mulliken Net Atomic Charges

     Atom                 Charge (a.u.)    Spin (a.u.)
  --------------------------------------------------------
      1 C                    -0.142985       0.013701
      2 C                    -0.407234      -0.003755
      3 H                     0.247560      -0.000268
      4 C                     0.098015       0.029618
      5 C                     0.081410       0.036281
      6 C                    -0.403853      -0.010044
      7 H                     0.246037       0.000075
      8 C                    -0.142291       0.017665
      9 C                     0.181858      -0.020227
     10 C                    -0.390451       0.023711
     11 H                     0.245327      -0.001379
     12 C                    -0.228144      -0.016179
     13 H                     0.250109       0.000780
     14 C                    -0.345921       0.023124
     15 H                     0.245893      -0.001331
     16 C                    -0.064759       0.017425
     17 C                     0.229411      -0.013708
     18 C                     0.182902      -0.018540
     19 C                    -0.396329       0.021676
     20 H                     0.245232      -0.001262
     21 C                    -0.226343      -0.015345
     22 H                     0.249826       0.000747
     23 C                    -0.348863       0.021250
     24 H                     0.246051      -0.001218
     25 B                     0.631041       0.161084
     26 B                     0.628588       0.159995
     27 C                    -0.141452       0.387415
     28 C                    -0.369279      -0.274015
     29 H                     0.254626       0.011396
     30 C                     0.079248       0.458026
     31 C                     0.194487      -0.210941
     32 C                    -0.385942       0.295245
     33 H                     0.246272      -0.017355
     34 C                    -0.223838      -0.202125
     35 H                     0.251863       0.009660
     36 C                    -0.352644       0.314094
     37 H                     0.247751      -0.018253
     38 C                    -0.066768       0.278802
     39 C                     0.233819      -0.195829
     40 C                     0.188146      -0.203158
     41 C                    -0.377514       0.307015
     42 H                     0.246839      -0.018109
     43 C                    -0.224746      -0.206622
     44 H                     0.253146       0.009752
     45 C                    -0.348199       0.335851
     46 H                     0.248739      -0.019512
     47 C                     0.071883       0.455352
     48 C                    -0.368102      -0.254305
     49 H                     0.252340       0.010364
     50 C                    -0.142302       0.342324
     51 C                    -0.217297      -0.016655
     52 C                     0.072065       0.002283
     53 C                    -0.445349      -0.000512
     54 H                     0.244958       0.000187
     55 C                     0.390382       0.000328
     56 O                    -0.467239       0.000072
     57 C                    -0.403311      -0.000272
     58 H                     0.234639       0.000263
     59 C                     0.051630       0.001980
     60 C                    -0.423646      -0.000011
     61 H                     0.250316       0.000003
     62 H                     0.215774       0.000007
     63 H                     0.216357       0.000006
     64 C                    -0.765911       0.000653
     65 H                     0.246197       0.000728
     66 H                     0.248950      -0.000253
     67 H                     0.245277      -0.000612
     68 C                    -0.547103       0.004166
     69 H                     0.250607      -0.001852
     70 H                     0.234420       0.000223
     71 C                    -0.655858      -0.000087
     72 H                     0.242242      -0.000195
     73 H                     0.224204       0.000000
     74 H                     0.218641       0.000090
     75 C                    -0.218645      -0.016768
     76 C                     0.066606       0.002530
     77 C                    -0.438760      -0.000593
     78 H                     0.245112       0.000213
     79 C                     0.390709       0.000482
     80 O                    -0.467367       0.000094
     81 C                    -0.402885      -0.000460
     82 H                     0.234904       0.000234
     83 C                     0.047937       0.002132
     84 C                    -0.423694      -0.000015
     85 H                     0.250493       0.000003
     86 H                     0.216464       0.000008
     87 H                     0.215818       0.000009
     88 C                    -0.765317       0.000577
     89 H                     0.246360       0.000729
     90 H                     0.244803      -0.000552
     91 H                     0.248539      -0.000256
     92 C                    -0.545185       0.003832
     93 H                     0.251327      -0.001697
     94 H                     0.233850       0.000074
     95 C                    -0.652089      -0.000115
     96 H                     0.237272      -0.000096
     97 H                     0.224613       0.000000
     98 H                     0.217726       0.000148
  --------------------------------------------------------
  Sum of atomic charges =    -0.000000

                    Cartesian Multipole Moments
 -----------------------------------------------------------------
    Charge (ESU x 10^10)
                -0.0000
    Dipole Moment (Debye)
         X       0.9010      Y      -0.2425      Z      -2.0009
       Tot       2.2077
    Quadrupole Moments (Debye-Ang)
        XX    -270.0142     XY      18.3254     YY    -324.1704
        XZ      -8.0843     YZ      13.8859     ZZ    -257.4257

 Total job time:  28020.82s(wall), 83321.52s(cpu)
        *  Thank you very much for using Q-Chem.  Have a nice day.  *
