 Q-Chem 5.0, Q-Chem, Inc., Pleasanton, CA (2017)
 Q-Chem 5.0.1 for Intel X86 EM64T Linux

User input:
--------------------------------------------------------------
$rem
threads 8
jobtype opt
method PBEh-3c
basis def2-mSVP
mem_static      1024
mem_total       8000
sym_ignore      true
unrestricted true
scf_algorithm	diis
scf_max_cycles	250
solvent_method  pcm
geom_opt_tol_energy 25
geom_opt_tol_gradient 75
$end

$pcm
theory  iefpcm
$end

$solvent
dielectric      2.38
$end

$molecule
read utLEincoords.mol
$end
--------------------------------------------------------------

   26   -2202.1886875128      9.17E-09 Convergence criterion met
 Total energy in the final basis set = -2202.18868751
   17   -2202.1928837878      7.37E-09 Convergence criterion met
 Total energy in the final basis set = -2202.19288379
   17   -2202.1941051905      6.88E-09 Convergence criterion met
 Total energy in the final basis set = -2202.19410519
   16   -2202.1937572245      8.31E-09 Convergence criterion met
 Total energy in the final basis set = -2202.19375722
   15   -2202.1942611791      7.99E-09 Convergence criterion met
 Total energy in the final basis set = -2202.19426118
   14   -2202.1942799714      7.70E-09 Convergence criterion met
 Total energy in the final basis set = -2202.19427997
   13   -2202.1942701405      7.91E-09 Convergence criterion met
 Total energy in the final basis set = -2202.19427014
   13   -2202.1942692189      8.68E-09 Convergence criterion met
 Total energy in the final basis set = -2202.19426922

             Standard Nuclear Orientation (Angstroms)
    I     Atom           X                Y                Z
 ----------------------------------------------------------------
    1      C       0.0138043624    -0.3868585116     0.0357564227
    2      C       0.0130066523    -0.3917844246     1.4433859574
    3      H       0.9568882041    -0.4114053442     1.9771684093
    4      C      -1.1752095415    -0.3685238127     2.1379791718
    5      C      -2.4060111405    -0.3283293702     1.4292012531
    6      C      -2.4241340656    -0.3206818873     0.0537444736
    7      H      -3.3686156168    -0.2928306500    -0.4791211409
    8      C      -1.2222502980    -0.3540560740    -0.6715331358
    9      C      -3.4950058819    -0.3040998912     2.4006517648
   10      C      -4.8628823841    -0.2614970132     2.3212832599
   11      H      -5.3807235141    -0.2354675743     1.3702477233
   12      C      -5.6068592338    -0.2513060649     3.5243423949
   13      H      -6.6869840771    -0.2176197323     3.4640899370
   14      C      -5.0069663001    -0.2826938282     4.7623055169
   15      H      -5.6167274698    -0.2738094790     5.6575115893
   16      C      -2.8892233846    -0.3340923080     3.6694976004
   17      C      -3.5956717642    -0.3260125602     4.8672680333
   18      C      -1.4850243934    -0.3734860986     3.5687331559
   19      C      -0.7524555832    -0.4077161320     4.7252524885
   20      H       0.3297517895    -0.4396760095     4.7155986336
   21      C      -1.4421016866    -0.4013613165     5.9616878468
   22      H      -0.8615402829    -0.4290747273     6.8744341325
   23      C      -2.8146769736    -0.3618125589     6.0464842854
   24      H      -3.2964439839    -0.3584152796     7.0164766837
   25      B      -1.2719032192    -0.3541168877    -2.2203356382
   26      B       1.3572412141    -0.4166155666    -0.7262193429
   27      C       1.3451773538    -0.4640638543    -2.2639772410
   28      C       2.5427233221    -0.5629109440    -2.9611464170
   29      H       3.4772401112    -0.6119467084    -2.4138264912
   30      C       2.5467148779    -0.5926576307    -4.3454318344
   31      C       3.5886217257    -0.6836107411    -5.3113057512
   32      C       4.9736678165    -0.7867618846    -5.2671118064
   33      H       5.5107968627    -0.8133834984    -4.3282580045
   34      C       5.6719748805    -0.8592941930    -6.4800338541
   35      H       6.7508258964    -0.9398956413    -6.4515047284
   36      C       5.0415010503    -0.8341758995    -7.7146741556
   37      H       5.6323613101    -0.8948989793    -8.6200926808
   38      C       2.9552029007    -0.6590471910    -6.5805057493
   39      C       3.6323278210    -0.7316340799    -7.7969476447
   40      C       1.5421418896    -0.5558612716    -6.4713669910
   41      C       0.7806280221    -0.5233463179    -7.6371565999
   42      H      -0.2984202295    -0.4451434509    -7.6074493567
   43      C       1.4476816234    -0.5947979909    -8.8651023160
   44      H       0.8631643696    -0.5697895464    -9.7758137223
   45      C       2.8280985991    -0.6964842230    -8.9630449266
   46      H       3.2920757325    -0.7492998606    -9.9401265079
   47      C       1.2510632885    -0.5127913592    -5.0863241867
   48      C       0.0535910462    -0.4270862241    -4.3861202471
   49      H      -0.8857245890    -0.3792284755    -4.9265514648
   50      C       0.0532283308    -0.4145834266    -3.0017553263
   51      C       2.7270117009    -0.4322006289     0.0439439708
   52      C       3.4668042284     0.7331028120     0.2459512358
   53      C       4.6787731864     0.6970509854     0.9377904471
   54      H       5.2240286990     1.6227961810     1.0753961963
   55      C       5.1661229334    -0.5060766463     1.4276751923
   56      O       6.3261202031    -0.6435113412     2.1045161996
   57      C       4.4387469986    -1.6767764175     1.2174286968
   58      H       4.8335131754    -2.6147183200     1.5909866425
   59      C       3.2347354265    -1.6473022476     0.5362871689
   60      C       7.0998909405     0.5051836404     2.3444884874
   61      H       7.9755805945     0.1799912536     2.9021254356
   62      H       7.4346705574     0.9802873408     1.4169827790
   63      H       6.5628358807     1.2486430760     2.9417303755
   64      C       2.4717004145    -2.9243269430     0.3116293377
   65      H       3.0213459918    -3.7926958655     0.6737980927
   66      H       1.5064650708    -2.9085657714     0.8219423370
   67      H       2.2642030801    -3.0842452520    -0.7488534169
   68      C       2.9532454031     2.0645692558    -0.2398285960
   69      H       2.3978990800     1.9367898820    -1.1730588644
   70      H       3.7967187550     2.7165400755    -0.4817566332
   71      C       2.0589471692     2.7582468413     0.7857060038
   72      H       1.1701796678     2.1654229717     1.0027704491
   73      H       1.7262019094     3.7301499670     0.4190691884
   74      H       2.5889673453     2.9169893483     1.7256351403
   75      C      -2.6465407642    -0.2718781773    -2.9882662479
   76      C      -3.2871699180    -1.4105687572    -3.4776537066
   77      C      -4.5062830585    -1.3128952741    -4.1521402619
   78      H      -4.9699380719    -2.2223251921    -4.5157821773
   79      C      -5.1003884273    -0.0766820927    -4.3491347382
   80      O      -6.2756822233     0.1150699204    -4.9855679553
   81      C      -4.4635728404     1.0686917219    -3.8737902083
   82      H      -4.9273313821     2.0343445902    -4.0391590810
   83      C      -3.2567102584     0.9784900058    -3.2027117360
   84      C      -6.9666937070    -1.0107309645    -5.4676124742
   85      H      -7.8814616725    -0.6418196303    -5.9266657934
   86      H      -7.2347848205    -1.7058879023    -4.6659672104
   87      H      -6.3940343639    -1.5566298235    -6.2238431232
   88      C      -2.5919376547     2.2320546448    -2.7067382917
   89      H      -3.1533883571     3.1233933361    -2.9850458917
   90      H      -1.5841182386     2.3366094878    -3.1145992789
   91      H      -2.4956236049     2.2291520190    -1.6192035190
   92      C      -2.7213689994    -2.7896096708    -3.2503118865
   93      H      -1.6353697943    -2.7430054492    -3.1370013558
   94      H      -2.9037149577    -3.4093276097    -4.1326647517
   95      C      -3.3281327599    -3.4685965432    -2.0243662621
   96      H      -3.1215658282    -2.8993729367    -1.1177899694
   97      H      -2.9189785300    -4.4704378790    -1.8887499029
   98      H      -4.4110127142    -3.5589517467    -2.1196847947
 ----------------------------------------------------------------

   13   -2202.1942691206      9.76E-09 Convergence criterion met
 Total energy in the final basis set = -2202.19426912
 Final energy is   -2202.19426912063
 **  OPTIMIZATION CONVERGED  **

                    Orbital Energies (a.u.)
 --------------------------------------------------------------

 Alpha MOs
 -- Occupied --
-19.524 -19.523 -10.500 -10.500 -10.484 -10.484 -10.484 -10.483
-10.469 -10.468 -10.466 -10.465 -10.465 -10.464 -10.463 -10.463
-10.462 -10.461 -10.461 -10.460 -10.460 -10.460 -10.459 -10.459
-10.459 -10.458 -10.458 -10.458 -10.457 -10.456 -10.456 -10.450
-10.449 -10.449 -10.449 -10.448 -10.448 -10.447 -10.447 -10.445
-10.433 -10.433 -10.431 -10.431 -10.431 -10.430 -10.427 -10.427
-10.422 -10.422 -10.418 -10.417 -10.413 -10.411  -6.933  -6.931
 -1.180  -1.180  -1.026  -1.014  -0.967  -0.958  -0.951  -0.951
 -0.937  -0.930  -0.912  -0.899  -0.880  -0.879  -0.870  -0.856
 -0.852  -0.851  -0.848  -0.844  -0.824  -0.819  -0.813  -0.813
 -0.809  -0.805  -0.772  -0.771  -0.760  -0.760  -0.742  -0.735
 -0.725  -0.719  -0.706  -0.705  -0.690  -0.687  -0.679  -0.668
 -0.656  -0.646  -0.646  -0.643  -0.634  -0.634  -0.601  -0.592
 -0.592  -0.588  -0.583  -0.582  -0.581  -0.575  -0.575  -0.558
 -0.558  -0.544  -0.542  -0.535  -0.531  -0.531  -0.528  -0.522
 -0.518  -0.507  -0.503  -0.503  -0.501  -0.495  -0.494  -0.493
 -0.493  -0.492  -0.488  -0.483  -0.483  -0.483  -0.476  -0.471
 -0.471  -0.469  -0.466  -0.464  -0.462  -0.460  -0.458  -0.456
 -0.445  -0.444  -0.444  -0.439  -0.437  -0.430  -0.428  -0.425
 -0.421  -0.420  -0.418  -0.412  -0.411  -0.408  -0.406  -0.404
 -0.403  -0.400  -0.397  -0.393  -0.393  -0.388  -0.386  -0.382
 -0.379  -0.377  -0.366  -0.365  -0.362  -0.355  -0.352  -0.352
 -0.341  -0.340  -0.336  -0.315  -0.311  -0.295  -0.291  -0.275
 -0.273  -0.273  -0.264  -0.256  -0.248  -0.247  -0.182

 Beta MOs
 -- Occupied --
-19.523 -19.523 -10.500 -10.500 -10.484 -10.484 -10.477 -10.477
-10.470 -10.469 -10.468 -10.465 -10.463 -10.462 -10.462 -10.462
-10.461 -10.461 -10.460 -10.460 -10.460 -10.459 -10.459 -10.459
-10.459 -10.458 -10.458 -10.458 -10.458 -10.456 -10.456 -10.449
-10.449 -10.449 -10.448 -10.447 -10.447 -10.445 -10.445 -10.444
-10.433 -10.432 -10.431 -10.431 -10.431 -10.430 -10.427 -10.427
-10.422 -10.422 -10.418 -10.417 -10.413 -10.412  -6.932  -6.930
 -1.180  -1.180  -1.018  -1.013  -0.959  -0.956  -0.951  -0.950
 -0.933  -0.930  -0.906  -0.898  -0.880  -0.879  -0.867  -0.855
 -0.851  -0.848  -0.848  -0.843  -0.816  -0.815  -0.813  -0.813
 -0.809  -0.794  -0.772  -0.770  -0.760  -0.760  -0.733  -0.732
 -0.724  -0.717  -0.705  -0.705  -0.687  -0.681  -0.677  -0.665
 -0.655  -0.645  -0.643  -0.642  -0.634  -0.633  -0.598  -0.590
 -0.589  -0.586  -0.582  -0.581  -0.580  -0.574  -0.573  -0.558
 -0.557  -0.542  -0.540  -0.533  -0.531  -0.531  -0.527  -0.521
 -0.516  -0.507  -0.502  -0.502  -0.495  -0.494  -0.493  -0.492
 -0.489  -0.487  -0.482  -0.481  -0.481  -0.479  -0.476  -0.471
 -0.470  -0.468  -0.465  -0.464  -0.461  -0.460  -0.458  -0.453
 -0.443  -0.443  -0.440  -0.435  -0.430  -0.427  -0.424  -0.420
 -0.419  -0.417  -0.412  -0.412  -0.410  -0.407  -0.403  -0.402
 -0.398  -0.395  -0.393  -0.393  -0.392  -0.387  -0.382  -0.381
 -0.374  -0.367  -0.365  -0.362  -0.356  -0.353  -0.352  -0.339
 -0.338  -0.335  -0.328  -0.312  -0.296  -0.292  -0.273  -0.273
 -0.265  -0.260  -0.254  -0.248  -0.246

          Ground-State Mulliken Net Atomic Charges

     Atom                 Charge (a.u.)    Spin (a.u.)
  --------------------------------------------------------
      1 C                    -0.142381       0.014189
      2 C                    -0.407036      -0.004047
      3 H                     0.244871      -0.000245
      4 C                     0.103207       0.029641
      5 C                     0.086512       0.035923
      6 C                    -0.403678      -0.009964
      7 H                     0.243522       0.000079
      8 C                    -0.141303       0.017821
      9 C                     0.186807      -0.019942
     10 C                    -0.387434       0.023214
     11 H                     0.237270      -0.001358
     12 C                    -0.220582      -0.015884
     13 H                     0.241768       0.000771
     14 C                    -0.342363       0.022677
     15 H                     0.236551      -0.001315
     16 C                    -0.063652       0.017498
     17 C                     0.238246      -0.013531
     18 C                     0.187933      -0.018342
     19 C                    -0.393449       0.021282
     20 H                     0.237138      -0.001246
     21 C                    -0.218699      -0.015093
     22 H                     0.241499       0.000740
     23 C                    -0.345406       0.020902
     24 H                     0.236719      -0.001207
     25 B                     0.634263       0.157143
     26 B                     0.631705       0.155874
     27 C                    -0.142185       0.386861
     28 C                    -0.368015      -0.274543
     29 H                     0.251633       0.011457
     30 C                     0.082054       0.458864
     31 C                     0.197941      -0.210627
     32 C                    -0.382610       0.297967
     33 H                     0.238097      -0.017617
     34 C                    -0.216390      -0.203346
     35 H                     0.243510       0.009771
     36 C                    -0.349745       0.317451
     37 H                     0.238358      -0.018590
     38 C                    -0.067275       0.279277
     39 C                     0.242153      -0.197310
     40 C                     0.191515      -0.203590
     41 C                    -0.374502       0.309131
     42 H                     0.238426      -0.018337
     43 C                    -0.217488      -0.207625
     44 H                     0.244613       0.009864
     45 C                    -0.345521       0.337715
     46 H                     0.239227      -0.019772
     47 C                     0.074829       0.456513
     48 C                    -0.366812      -0.256190
     49 H                     0.248981       0.010497
     50 C                    -0.142607       0.344833
     51 C                    -0.217918      -0.016261
     52 C                     0.076387       0.002279
     53 C                    -0.440504      -0.000521
     54 H                     0.235902       0.000184
     55 C                     0.394019       0.000349
     56 O                    -0.462992       0.000078
     57 C                    -0.396215      -0.000273
     58 H                     0.229532       0.000258
     59 C                     0.054636       0.001932
     60 C                    -0.417723      -0.000012
     61 H                     0.246614       0.000003
     62 H                     0.211218       0.000007
     63 H                     0.211960       0.000007
     64 C                    -0.762653       0.000725
     65 H                     0.242104       0.000702
     66 H                     0.248661      -0.000242
     67 H                     0.244038      -0.000625
     68 C                    -0.546498       0.004090
     69 H                     0.250304      -0.001788
     70 H                     0.230145       0.000219
     71 C                    -0.652252      -0.000080
     72 H                     0.244419      -0.000192
     73 H                     0.221447       0.000000
     74 H                     0.216585       0.000087
     75 C                    -0.219203      -0.016377
     76 C                     0.070389       0.002491
     77 C                    -0.434269      -0.000580
     78 H                     0.236007       0.000208
     79 C                     0.394375       0.000476
     80 O                    -0.463089       0.000094
     81 C                    -0.395552      -0.000447
     82 H                     0.229790       0.000232
     83 C                     0.051622       0.002072
     84 C                    -0.417762      -0.000015
     85 H                     0.246820       0.000003
     86 H                     0.212035       0.000008
     87 H                     0.211239       0.000009
     88 C                    -0.762128       0.000587
     89 H                     0.242226       0.000711
     90 H                     0.243331      -0.000537
     91 H                     0.248431      -0.000249
     92 C                    -0.544893       0.003783
     93 H                     0.251112      -0.001646
     94 H                     0.229851       0.000078
     95 C                    -0.648436      -0.000108
     96 H                     0.239453      -0.000099
     97 H                     0.221947      -0.000000
     98 H                     0.215269       0.000143
  --------------------------------------------------------
  Sum of atomic charges =    -0.000000

                    Cartesian Multipole Moments
 -----------------------------------------------------------------
    Charge (ESU x 10^10)
                -0.0000
    Dipole Moment (Debye)
         X       0.7539      Y      -0.1959      Z      -1.6719
       Tot       1.8445
    Quadrupole Moments (Debye-Ang)
        XX    -273.7714     XY      17.0801     YY    -324.9575
        XZ      -6.6148     YZ      12.7545     ZZ    -263.5428

 Total job time:  19594.10s(wall), 58700.54s(cpu)
        *  Thank you very much for using Q-Chem.  Have a nice day.  *
