 Q-Chem 5.0, Q-Chem, Inc., Pleasanton, CA (2017)
 Q-Chem 5.0.1 for Intel X86 EM64T Linux

User input:
--------------------------------------------------------------
$rem
threads 8
jobtype opt
method PBEh-3c
basis def2-mSVP
mem_static      1024
mem_total       8000
sym_ignore      true
unrestricted true
scf_algorithm   diis
scf_max_cycles  250
solvent_method  pcm
geom_opt_tol_energy 25
geom_opt_tol_gradient 75
$end

$pcm
theory  iefpcm
$end

$solvent
dielectric      2.03
$end

$molecule
read utLEincoords.mol
$end

--------------------------------------------------------------

   26   -2202.1865660343      9.42E-09 Convergence criterion met
 Total energy in the final basis set = -2202.18656603
   17   -2202.1907598448      6.96E-09 Convergence criterion met
 Total energy in the final basis set = -2202.19075984
   17   -2202.1919870000      6.59E-09 Convergence criterion met
 Total energy in the final basis set = -2202.19198700
   16   -2202.1916246547      8.35E-09 Convergence criterion met
 Total energy in the final basis set = -2202.19162465
   15   -2202.1921466233      7.96E-09 Convergence criterion met
 Total energy in the final basis set = -2202.19214662
   14   -2202.1921648119      7.07E-09 Convergence criterion met
 Total energy in the final basis set = -2202.19216481
   13   -2202.1921552103      6.67E-09 Convergence criterion met
 Total energy in the final basis set = -2202.19215521
   13   -2202.1921548262      7.40E-09 Convergence criterion met
 Total energy in the final basis set = -2202.19215483

             Standard Nuclear Orientation (Angstroms)
    I     Atom           X                Y                Z
 ----------------------------------------------------------------
    1      C       0.0135946884    -0.3869822253     0.0358298336
    2      C       0.0128647911    -0.3914533115     1.4433830047
    3      H       0.9569989666    -0.4106395200     1.9767617539
    4      C      -1.1753255067    -0.3681432043     2.1379282616
    5      C      -2.4060593034    -0.3284560549     1.4291806261
    6      C      -2.4242160493    -0.3212425221     0.0537722304
    7      H      -3.3684912814    -0.2937222593    -0.4795076160
    8      C      -1.2223682173    -0.3545471989    -0.6714188258
    9      C      -3.4950123140    -0.3039977368     2.4006329370
   10      C      -4.8627917830    -0.2616317392     2.3212976606
   11      H      -5.3805817997    -0.2360849094     1.3702388387
   12      C      -5.6067793326    -0.2510107881     3.5242349516
   13      H      -6.6869004501    -0.2175096592     3.4639903484
   14      C      -5.0069319419    -0.2817009779     4.7621037763
   15      H      -5.6167687925    -0.2724737345     5.6572424860
   16      C      -2.8893204392    -0.3332999724     3.6694684934
   17      C      -3.5957314313    -0.3247377100     4.8671649144
   18      C      -1.4851788861    -0.3725079839     3.5686501138
   19      C      -0.7527100915    -0.4060257577     4.7251277941
   20      H       0.3294866898    -0.4378194806     4.7154310454
   21      C      -1.4422522042    -0.3991611730     5.9615085452
   22      H      -0.8617114321    -0.4263089199     6.8742721382
   23      C      -2.8147147154    -0.3597914222     6.0462749762
   24      H      -3.2963942867    -0.3559784065     7.0163003475
   25      B      -1.2720179477    -0.3546902604    -2.2201789904
   26      B       1.3569809047    -0.4168256175    -0.7261390338
   27      C       1.3449981591    -0.4643988771    -2.2639301122
   28      C       2.5424410929    -0.5632963488    -2.9609325563
   29      H       3.4766706579    -0.6124311114    -2.4131011158
   30      C       2.5465382307    -0.5927685376    -4.3453158412
   31      C       3.5883118629    -0.6835953350    -5.3110806651
   32      C       4.9733744768    -0.7870532449    -5.2669208648
   33      H       5.5104300674    -0.8141558298    -4.3280608946
   34      C       5.6716680661    -0.8592577038    -6.4796530733
   35      H       6.7504924567    -0.9400936894    -6.4511233419
   36      C       5.0412962079    -0.8335722412    -7.7142958984
   37      H       5.6323041854    -0.8940784197    -8.6196215734
   38      C       2.9550531408    -0.6584684156    -6.5803211502
   39      C       3.6322645629    -0.7307504458    -7.7967472845
   40      C       1.5420907342    -0.5550531462    -6.4712007592
   41      C       0.7807542823    -0.5219594607    -7.6370826539
   42      H      -0.2982587807    -0.4434956904    -7.6074518309
   43      C       1.4477900822    -0.5930957447    -8.8648863772
   44      H       0.8633678882    -0.5676246068    -9.7756356570
   45      C       2.8281335452    -0.6950404056    -8.9627573933
   46      H       3.2920912016    -0.7475930512    -9.9398535871
   47      C       1.2509106332    -0.5124353897    -5.0862383046
   48      C       0.0534478064    -0.4268756352    -4.3859724061
   49      H      -0.8861667626    -0.3787048779    -4.9258842702
   50      C       0.0531344505    -0.4148647045    -3.0016940975
   51      C       2.7266932767    -0.4325005836     0.0439007284
   52      C       3.4666084005     0.7326514748     0.2457150548
   53      C       4.6785356065     0.6963159298     0.9374494083
   54      H       5.2239246128     1.6219977886     1.0749184861
   55      C       5.1656483729    -0.5067819252     1.4273775438
   56      O       6.3256609661    -0.6445239539     2.1041558973
   57      C       4.4381271246    -1.6772780644     1.2172902415
   58      H       4.8330837102    -2.6150088323     1.5910003754
   59      C       3.2342006134    -1.6476473013     0.5363065360
   60      C       7.0994000373     0.5034232309     2.3438964122
   61      H       7.9751263741     0.1780551433     2.9014378409
   62      H       7.4344390865     0.9786890668     1.4164422448
   63      H       6.5628843765     1.2473000110     2.9412938314
   64      C       2.4708294289    -2.9244315687     0.3115205315
   65      H       3.0199467227    -3.7929427335     0.6741341473
   66      H       1.5052749642    -2.9083143507     0.8211919231
   67      H       2.2640002682    -3.0845367451    -0.7490565696
   68      C       2.9531393890     2.0641044987    -0.2401583715
   69      H       2.3982684588     1.9363324582    -1.1736725256
   70      H       3.7966800773     2.7160840965    -0.4819557612
   71      C       2.0584266003     2.7577396324     0.7850036978
   72      H       1.1693101933     2.1652134726     1.0012887752
   73      H       1.7262253728     3.7299246604     0.4186335788
   74      H       2.5878435662     2.9158257128     1.7253603146
   75      C      -2.6465483877    -0.2725931276    -2.9880874303
   76      C      -3.2866951063    -1.4111681934    -3.4781294452
   77      C      -4.5058242584    -1.3134144918    -4.1524074704
   78      H      -4.9690976794    -2.2228247191    -4.5165701278
   79      C      -5.1003564827    -0.0773734061    -4.3485627525
   80      O      -6.2757447057     0.1145032139    -4.9848141963
   81      C      -4.4639967428     1.0678323782    -3.8725771008
   82      H      -4.9283666323     2.0331882067    -4.0375638630
   83      C      -3.2571706992     0.9776745320    -3.2017358727
   84      C      -6.9660356924    -1.0105923505    -5.4675736681
   85      H      -7.8809106941    -0.6416510392    -5.9264677095
   86      H      -7.2342352410    -1.7067141133    -4.6666586219
   87      H      -6.3933822180    -1.5559925900    -6.2243253354
   88      C      -2.5925872949     2.2310639830    -2.7051312569
   89      H      -3.1542756056     3.1224534509    -2.9827705577
   90      H      -1.5849529082     2.3361368632    -3.1132859190
   91      H      -2.4959533707     2.2276095520    -1.6176401043
   92      C      -2.7203992134    -2.7900992123    -3.2514780659
   93      H      -1.6342052646    -2.7433837155    -3.1401056895
   94      H      -2.9039910247    -3.4099426831    -4.1335155927
   95      C      -3.3249833738    -3.4689535474    -2.0244113069
   96      H      -3.1162416830    -2.8999978776    -1.1182047575
   97      H      -2.9161701773    -4.4710447651    -1.8896406857
   98      H      -4.4081083218    -3.5586082286    -2.1174369936
 ----------------------------------------------------------------

   13   -2202.1921549230      8.41E-09 Convergence criterion met
 Total energy in the final basis set = -2202.19215492
 Final energy is   -2202.19215492304
 **  OPTIMIZATION CONVERGED  **

                    Orbital Energies (a.u.)
 --------------------------------------------------------------

 Alpha MOs
 -- Occupied --
-19.523 -19.523 -10.499 -10.499 -10.484 -10.484 -10.483 -10.483
-10.469 -10.467 -10.466 -10.465 -10.464 -10.464 -10.463 -10.463
-10.461 -10.461 -10.460 -10.460 -10.460 -10.459 -10.459 -10.458
-10.458 -10.458 -10.458 -10.458 -10.457 -10.456 -10.456 -10.450
-10.449 -10.448 -10.448 -10.448 -10.447 -10.447 -10.446 -10.445
-10.433 -10.432 -10.431 -10.431 -10.430 -10.430 -10.427 -10.427
-10.422 -10.422 -10.418 -10.417 -10.412 -10.411  -6.933  -6.931
 -1.179  -1.179  -1.025  -1.013  -0.966  -0.957  -0.951  -0.950
 -0.936  -0.930  -0.912  -0.899  -0.880  -0.879  -0.870  -0.855
 -0.852  -0.851  -0.848  -0.843  -0.823  -0.819  -0.813  -0.813
 -0.809  -0.804  -0.772  -0.771  -0.760  -0.760  -0.742  -0.735
 -0.725  -0.719  -0.705  -0.705  -0.690  -0.687  -0.678  -0.667
 -0.656  -0.646  -0.645  -0.642  -0.634  -0.633  -0.601  -0.592
 -0.591  -0.588  -0.583  -0.581  -0.581  -0.575  -0.575  -0.558
 -0.557  -0.544  -0.542  -0.535  -0.531  -0.531  -0.528  -0.522
 -0.518  -0.507  -0.503  -0.503  -0.501  -0.495  -0.494  -0.493
 -0.493  -0.491  -0.487  -0.483  -0.482  -0.482  -0.476  -0.471
 -0.470  -0.468  -0.465  -0.464  -0.461  -0.460  -0.458  -0.456
 -0.444  -0.444  -0.443  -0.439  -0.437  -0.430  -0.427  -0.425
 -0.421  -0.419  -0.417  -0.412  -0.410  -0.408  -0.405  -0.404
 -0.403  -0.400  -0.397  -0.393  -0.392  -0.387  -0.386  -0.381
 -0.378  -0.376  -0.365  -0.365  -0.361  -0.354  -0.352  -0.351
 -0.340  -0.339  -0.336  -0.315  -0.310  -0.295  -0.291  -0.275
 -0.273  -0.272  -0.263  -0.256  -0.248  -0.246  -0.181

 Beta MOs
 -- Occupied --
-19.523 -19.523 -10.499 -10.499 -10.484 -10.484 -10.477 -10.476
-10.470 -10.469 -10.468 -10.464 -10.463 -10.462 -10.462 -10.462
-10.461 -10.460 -10.460 -10.460 -10.460 -10.459 -10.459 -10.459
-10.459 -10.458 -10.458 -10.458 -10.457 -10.456 -10.456 -10.449
-10.448 -10.448 -10.447 -10.447 -10.446 -10.445 -10.444 -10.443
-10.432 -10.432 -10.431 -10.431 -10.430 -10.430 -10.427 -10.427
-10.422 -10.422 -10.418 -10.417 -10.413 -10.411  -6.932  -6.930
 -1.179  -1.179  -1.018  -1.013  -0.959  -0.955  -0.951  -0.950
 -0.933  -0.930  -0.906  -0.898  -0.879  -0.879  -0.866  -0.855
 -0.851  -0.848  -0.847  -0.843  -0.816  -0.815  -0.812  -0.812
 -0.809  -0.794  -0.772  -0.770  -0.760  -0.760  -0.733  -0.732
 -0.724  -0.717  -0.705  -0.705  -0.687  -0.681  -0.676  -0.665
 -0.655  -0.645  -0.643  -0.641  -0.633  -0.633  -0.598  -0.589
 -0.589  -0.586  -0.582  -0.581  -0.580  -0.574  -0.573  -0.557
 -0.557  -0.541  -0.540  -0.533  -0.531  -0.531  -0.527  -0.521
 -0.516  -0.506  -0.502  -0.501  -0.494  -0.493  -0.493  -0.492
 -0.489  -0.487  -0.482  -0.481  -0.481  -0.479  -0.476  -0.471
 -0.470  -0.468  -0.465  -0.464  -0.461  -0.460  -0.457  -0.453
 -0.443  -0.443  -0.440  -0.435  -0.429  -0.426  -0.424  -0.420
 -0.419  -0.417  -0.412  -0.412  -0.410  -0.406  -0.403  -0.402
 -0.398  -0.394  -0.393  -0.393  -0.392  -0.387  -0.381  -0.381
 -0.374  -0.367  -0.364  -0.361  -0.356  -0.353  -0.352  -0.338
 -0.337  -0.334  -0.327  -0.312  -0.296  -0.292  -0.273  -0.272
 -0.265  -0.260  -0.253  -0.248  -0.246

          Ground-State Mulliken Net Atomic Charges

     Atom                 Charge (a.u.)    Spin (a.u.)
  --------------------------------------------------------
      1 C                    -0.142217       0.014333
      2 C                    -0.406903      -0.004129
      3 H                     0.243991      -0.000238
      4 C                     0.104784       0.029645
      5 C                     0.088053       0.035836
      6 C                    -0.403574      -0.009959
      7 H                     0.242665       0.000081
      8 C                    -0.141014       0.017878
      9 C                     0.188294      -0.019869
     10 C                    -0.386399       0.023083
     11 H                     0.234648      -0.001352
     12 C                    -0.218135      -0.015806
     13 H                     0.239106       0.000769
     14 C                    -0.341120       0.022559
     15 H                     0.233616      -0.001311
     16 C                    -0.063382       0.017520
     17 C                     0.240908      -0.013484
     18 C                     0.189442      -0.018289
     19 C                    -0.392459       0.021175
     20 H                     0.234512      -0.001242
     21 C                    -0.216221      -0.015026
     22 H                     0.238844       0.000738
     23 C                    -0.344195       0.020808
     24 H                     0.233784      -0.001204
     25 B                     0.635155       0.156070
     26 B                     0.632552       0.154739
     27 C                    -0.142377       0.386776
     28 C                    -0.367581      -0.274708
     29 H                     0.250658       0.011475
     30 C                     0.082927       0.459091
     31 C                     0.199036      -0.210500
     32 C                    -0.381481       0.298676
     33 H                     0.235443      -0.017691
     34 C                    -0.213971      -0.203646
     35 H                     0.240829       0.009802
     36 C                    -0.348678       0.318311
     37 H                     0.235393      -0.018684
     38 C                    -0.067441       0.279340
     39 C                     0.244647      -0.197689
     40 C                     0.192560      -0.203662
     41 C                    -0.373422       0.309669
     42 H                     0.235712      -0.018402
     43 C                    -0.215128      -0.207862
     44 H                     0.241881       0.009896
     45 C                    -0.344508       0.338174
     46 H                     0.236224      -0.019846
     47 C                     0.075737       0.456818
     48 C                    -0.366360      -0.256714
     49 H                     0.247896       0.010535
     50 C                    -0.142719       0.345564
     51 C                    -0.218225      -0.016146
     52 C                     0.077658       0.002267
     53 C                    -0.438898      -0.000518
     54 H                     0.233148       0.000184
     55 C                     0.395170       0.000347
     56 O                    -0.461576       0.000077
     57 C                    -0.393866      -0.000271
     58 H                     0.227891       0.000257
     59 C                     0.055678       0.001914
     60 C                    -0.415764      -0.000012
     61 H                     0.245336       0.000003
     62 H                     0.209763       0.000007
     63 H                     0.210544       0.000007
     64 C                    -0.761578       0.000727
     65 H                     0.240852       0.000698
     66 H                     0.248467      -0.000241
     67 H                     0.243509      -0.000619
     68 C                    -0.546276       0.004079
     69 H                     0.250116      -0.001776
     70 H                     0.228919       0.000218
     71 C                    -0.651067      -0.000079
     72 H                     0.244924      -0.000190
     73 H                     0.220575       0.000000
     74 H                     0.216014       0.000087
     75 C                    -0.219437      -0.016276
     76 C                     0.071558       0.002488
     77 C                    -0.432692      -0.000580
     78 H                     0.233249       0.000207
     79 C                     0.395532       0.000480
     80 O                    -0.461665       0.000095
     81 C                    -0.393165      -0.000446
     82 H                     0.228149       0.000231
     83 C                     0.052748       0.002059
     84 C                    -0.415797      -0.000015
     85 H                     0.245547       0.000003
     86 H                     0.210608       0.000008
     87 H                     0.209772       0.000009
     88 C                    -0.761057       0.000590
     89 H                     0.240974       0.000707
     90 H                     0.242798      -0.000533
     91 H                     0.248263      -0.000247
     92 C                    -0.544722       0.003771
     93 H                     0.250927      -0.001631
     94 H                     0.228683       0.000078
     95 C                    -0.647212      -0.000106
     96 H                     0.239906      -0.000099
     97 H                     0.221101      -0.000000
     98 H                     0.214602       0.000142
  --------------------------------------------------------
  Sum of atomic charges =    -0.000000

                    Cartesian Multipole Moments
 -----------------------------------------------------------------
    Charge (ESU x 10^10)
                -0.0000
    Dipole Moment (Debye)
         X       0.7081      Y      -0.1857      Z      -1.5772
       Tot       1.7388
    Quadrupole Moments (Debye-Ang)
        XX    -274.8831     XY      16.7022     YY    -325.1864
        XZ      -6.1802     YZ      12.4307     ZZ    -265.3597

 Total job time:  19326.18s(wall), 57780.84s(cpu)
        *  Thank you very much for using Q-Chem.  Have a nice day.  *
