 Q-Chem 5.0, Q-Chem, Inc., Pleasanton, CA (2017)
 Q-Chem 5.0.1 for Intel X86 EM64T Linux

User input:
--------------------------------------------------------------
$rem
threads 8
jobtype	sp
method PBEh-3c
basis def2-mSVP
mem_static	1024
mem_total	8000
sym_ignore	true
unrestricted true
scf_convergence	9
solvent_method	pcm
$end

$molecule
read incoords.mol
$end

$solvent
dielectric	1.0001
$end

$pcm
theory iefpcm
$end
--------------------------------------------------------------

   17   -2202.2461950814      6.78E-10 Convergence criterion met
 Total energy in the final basis set = -2202.24619508
 Total job time:  2579.93s(wall), 7113.76s(cpu)
        *  Thank you very much for using Q-Chem.  Have a nice day.  *
 Q-Chem 5.0, Q-Chem, Inc., Pleasanton, CA (2017)
 Q-Chem 5.0.1 for Intel X86 EM64T Linux

User input:
--------------------------------------------------------------

$rem
threads 8
jobtype opt
method PBEh-3c
basis def2-mSVP
scf_guess	read
mem_static      1024
mem_total       8000
sym_ignore      true
unrestricted true
mom_start       1
scf_algorithm	diis
scf_max_cycles	250
solvent_method	pcm
geom_opt_tol_energy 25
geom_opt_tol_gradient 75
$end

$solvent
dielectric      1.0001
$end

$pcm
theory iefpcm
$end

$occupied
1 2 3 4 5 6 7 8 9 10 11 12 13 14 15 16 17 18 19 20 21 22 23 24 25 26 27 28 29 30 31 32 33 34 35 36 37 38 39 40 41 42 43 44 45 46 47 48 49 50 51 52 53 54 55 56 57 58 59 60 61 62 63 64 65 66 67 68 69 70 71 72 73 74 75 76 77 78 79 80 81 82 83 84 85 86 87 88 89 90 91 92 93 94 95 96 97 98 99 100 101 102 103 104 105 106 107 108 109 110 111 112 113 114 115 116 117 118 119 120 121 122 123 124 125 126 127 128 129 130 131 132 133 134 135 136 137 138 139 140 141 142 143 144 145 146 147 148 149 150 151 152 153 154 155 156 157 158 159 160 161 162 163 164 165 166 167 168 169 170 171 172 173 174 175 176 177 178 179 180 181 182 183 184 185 186 187 188 189  191
1 2 3 4 5 6 7 8 9 10 11 12 13 14 15 16 17 18 19 20 21 22 23 24 25 26 27 28 29 30 31 32 33 34 35 36 37 38 39 40 41 42 43 44 45 46 47 48 49 50 51 52 53 54 55 56 57 58 59 60 61 62 63 64 65 66 67 68 69 70 71 72 73 74 75 76 77 78 79 80 81 82 83 84 85 86 87 88 89 90 91 92 93 94 95 96 97 98 99 100 101 102 103 104 105 106 107 108 109 110 111 112 113 114 115 116 117 118 119 120 121 122 123 124 125 126 127 128 129 130 131 132 133 134 135 136 137 138 139 140 141 142 143 144 145 146 147 148 149 150 151 152 153 154 155 156 157 158 159 160 161 162 163 164 165 166 167 168 169 170 171 172 173 174 175 176 177 178 179 180 181 182 183 184 185 186 187 188 189 190
$end

$molecule
read
$end

--------------------------------------------------------------

   25   -2202.1555473449      9.81E-09 Convergence criterion met
 Total energy in the final basis set = -2202.15554734
   21   -2202.1570897677      9.21E-09 Convergence criterion met
 Total energy in the final basis set = -2202.15708977
   21   -2202.1571492636      7.46E-09 Convergence criterion met
 Total energy in the final basis set = -2202.15714926
   20   -2202.1574219560      6.14E-09 Convergence criterion met
 Total energy in the final basis set = -2202.15742196
   17   -2202.1575920396      6.41E-09 Convergence criterion met
 Total energy in the final basis set = -2202.15759204
   17   -2202.1577296928      6.45E-09 Convergence criterion met
 Total energy in the final basis set = -2202.15772969
   16   -2202.1577006872      5.96E-09 Convergence criterion met
 Total energy in the final basis set = -2202.15770069
   14   -2202.1576944075      9.99E-09 Convergence criterion met
 Total energy in the final basis set = -2202.15769441
   15   -2202.1577022528      6.83E-09 Convergence criterion met
 Total energy in the final basis set = -2202.15770225
   12   -2202.1577034985      8.55E-09 Convergence criterion met
 Total energy in the final basis set = -2202.15770350
    9   -2202.1577042125      6.59E-09 Convergence criterion met
 Total energy in the final basis set = -2202.15770421

             Standard Nuclear Orientation (Angstroms)
    I     Atom           X                Y                Z
 ----------------------------------------------------------------
    1      C       0.0303933898    -0.3929169124     0.0740991839
    2      C       0.0337911901    -0.3436307664     1.4908806745
    3      H       0.9769769207    -0.3464935939     2.0315834620
    4      C      -1.1439841114    -0.2878864803     2.1927381315
    5      C      -2.3829095277    -0.2742407423     1.4883115197
    6      C      -2.4067649078    -0.3241949799     0.1162188329
    7      H      -3.3542620575    -0.3187291083    -0.4135315030
    8      C      -1.2145490494    -0.3883588800    -0.6238652935
    9      C      -3.4638132246    -0.2064519371     2.4596952110
   10      C      -4.8330680756    -0.1661542270     2.3824575344
   11      H      -5.3510361505    -0.1816204476     1.4314295018
   12      C      -2.8554469654    -0.1820994338     3.7292862430
   13      C      -3.5617846959    -0.1206317887     4.9261223115
   14      C      -1.4503356126    -0.2295684233     3.6249173046
   15      C      -0.7197314353    -0.2144165631     4.7843434466
   16      H       0.3626604700    -0.2493496555     4.7776564219
   17      C      -1.4074560586    -0.1524693054     6.0188024092
   18      H      -0.8266358405    -0.1414072141     6.9321720057
   19      C      -2.7796925586    -0.1063191762     6.1043172832
   20      H      -3.2596946797    -0.0597588811     7.0741464904
   21      C      -5.5745622508    -0.1033774043     3.5834560593
   22      H      -6.6550867891    -0.0719733199     3.5230157767
   23      C      -4.9743357181    -0.0808138734     4.8208817595
   24      H      -5.5836160238    -0.0326083979     5.7150305872
   25      B       1.3226821331    -0.4531118342    -0.7364766633
   26      C       1.3153724901    -0.5488074604    -2.2615901319
   27      C       2.5125192469    -0.6479789015    -3.0136606869
   28      H       3.4726236200    -0.6706395535    -2.5045079556
   29      C       2.4731050875    -0.7142141165    -4.3834344114
   30      C       1.2154977608    -0.6761466866    -5.0525719191
   31      C       0.0449288145    -0.5888473106    -4.3416235425
   32      H      -0.9073501836    -0.5634806409    -4.8610930025
   33      C       0.0597020727    -0.5350975307    -2.9390915455
   34      C       1.4532506100    -0.7503625266    -6.4865395445
   35      C       0.6552852312    -0.7547975172    -7.6032432880
   36      H      -0.4234846669    -0.6902150917    -7.5329681143
   37      C       2.8485866307    -0.8362306615    -6.6525918585
   38      C       3.4773030578    -0.9292242057    -7.8916423537
   39      C       3.5162653209    -0.8190497061    -5.4112599119
   40      C       4.8849346615    -0.9014482222    -5.4200801357
   41      H       5.4632658983    -0.8973958031    -4.5045414737
   42      C       1.2687954580    -0.8468495209    -8.8731149522
   43      H       0.6380423940    -0.8500233050    -9.7531285458
   44      C       2.6324148486    -0.9325470153    -9.0289777047
   45      H       3.0600458614    -1.0018107546   -10.0218009444
   46      C       5.5542448368    -0.9964295426    -6.6628665967
   47      H       6.6348071574    -1.0614652761    -6.6625252968
   48      C       4.8885638559    -1.0110531636    -7.8662642373
   49      H       5.4450633689    -1.0865360081    -8.7925982583
   50      B      -1.2660974745    -0.4553679463    -2.1611569454
   51      C       2.7021915662    -0.4698130462     0.0036384236
   52      C       3.4716413324     0.7335437054     0.1849582536
   53      C       4.6246273493     0.7097086149     0.9259151946
   54      H       5.1853280319     1.6243991598     1.0678443640
   55      C       5.0690784280    -0.5051368611     1.4824430256
   56      O       6.1520882402    -0.6260704844     2.2129052051
   57      C       4.3561855776    -1.7116093791     1.2619870145
   58      H       4.7499066676    -2.6242536303     1.6919720801
   59      C       3.2095207673    -1.7091747858     0.5253648488
   60      C       6.9581287216     0.5053289951     2.5092903801
   61      H       7.7673407014     0.1402054534     3.1341575050
   62      H       7.3756391148     0.9435063651     1.6014986703
   63      H       6.3940702977     1.2616084817     3.0573470113
   64      C       2.4476136290    -2.9668943885     0.2655715788
   65      H       2.9707507877    -3.8425099054     0.6469593027
   66      H       2.2772399294    -3.0970456411    -0.8042741245
   67      H       1.4606704046    -2.9208363642     0.7290133475
   68      C       2.9839344144     2.0178833941    -0.4086019228
   69      H       2.5265891454     1.8191599109    -1.3796558360
   70      H       3.8345806861     2.6806161904    -0.5837039707
   71      C       1.9642755719     2.7190279566     0.4934109487
   72      H       1.0731597889     2.1105069411     0.6366475632
   73      H       1.6535883518     3.6580413299     0.0369611972
   74      H       2.3870855226     2.9432817541     1.4731488259
   75      C      -2.6435566184    -0.4138256758    -2.9364135687
   76      C      -3.2695995158    -1.5733631763    -3.3961649626
   77      C      -4.4760701706    -1.5108676921    -4.0960300114
   78      H      -4.9245480532    -2.4373170568    -4.4350693451
   79      C      -5.0739006188    -0.2879390726    -4.3517220403
   80      O      -6.2385681731    -0.1276045425    -5.0203564782
   81      C      -4.4547168237     0.8780244638    -3.9081461369
   82      H      -4.9219705916     1.8321562273    -4.1218853943
   83      C      -3.2602281805     0.8212835587    -3.2124489152
   84      C      -6.9037686762    -1.2716938487    -5.4797371371
   85      H      -7.8132028843    -0.9290528370    -5.9698809448
   86      H      -7.1826399161    -1.9477995600    -4.6644336362
   87      H      -6.3106168144    -1.8364353187    -6.2071365928
   88      C      -2.6085276105     2.0977296788    -2.7606115289
   89      H      -3.1734642185     2.9737087677    -3.0791542126
   90      H      -1.5980010019     2.1881570271    -3.1646975530
   91      H      -2.5193894403     2.1355296404    -1.6734405161
   92      C      -2.6935966373    -2.9372504661    -3.1123962912
   93      H      -1.6057276314    -2.8782620751    -3.0316695542
   94      H      -2.8981592362    -3.6029906011    -3.9558056745
   95      C      -3.2653387661    -3.5495500273    -1.8358477695
   96      H      -3.0338405745    -2.9311464419    -0.9686214055
   97      H      -4.3505586249    -3.6438439194    -1.8959094470
   98      H      -2.8524378105    -4.5434503515    -1.6571235569
 ----------------------------------------------------------------

    8   -2202.1577046071      8.06E-09 Convergence criterion met
 Total energy in the final basis set = -2202.15770461
 Final energy is   -2202.15770460710
 **  OPTIMIZATION CONVERGED  **

                    Orbital Energies (a.u.)
 --------------------------------------------------------------

 Alpha MOs
 -- Occupied --
-19.617 -19.507 -10.596 -10.552 -10.520 -10.514 -10.504 -10.501
-10.498 -10.480 -10.475 -10.464 -10.452 -10.446 -10.446 -10.446
-10.446 -10.444 -10.444 -10.444 -10.444 -10.443 -10.443 -10.441
-10.441 -10.440 -10.440 -10.440 -10.440 -10.439 -10.438 -10.438
-10.437 -10.437 -10.435 -10.435 -10.430 -10.430 -10.427 -10.427
-10.427 -10.425 -10.424 -10.423 -10.413 -10.412 -10.412 -10.411
-10.407 -10.403 -10.401 -10.401 -10.400 -10.390  -6.905  -6.895
 -1.271  -1.164  -1.014  -0.994  -0.993  -0.938  -0.936  -0.935
 -0.930  -0.914  -0.914  -0.913  -0.884  -0.875  -0.867  -0.860
 -0.837  -0.832  -0.831  -0.828  -0.827  -0.825  -0.810  -0.798
 -0.796  -0.791  -0.791  -0.779  -0.754  -0.749  -0.741  -0.717
 -0.712  -0.707  -0.706  -0.699  -0.687  -0.686  -0.669  -0.660
 -0.659  -0.647  -0.643  -0.634  -0.624  -0.624  -0.622  -0.614
 -0.601  -0.599  -0.575  -0.574  -0.569  -0.565  -0.563  -0.559
 -0.555  -0.552  -0.551  -0.539  -0.532  -0.526  -0.523  -0.518
 -0.518  -0.510  -0.508  -0.507  -0.504  -0.500  -0.487  -0.482
 -0.482  -0.479  -0.478  -0.476  -0.473  -0.471  -0.471  -0.469
 -0.465  -0.464  -0.463  -0.462  -0.459  -0.459  -0.455  -0.451
 -0.448  -0.446  -0.445  -0.441  -0.436  -0.425  -0.423  -0.419
 -0.418  -0.414  -0.411  -0.408  -0.405  -0.402  -0.400  -0.395
 -0.393  -0.392  -0.387  -0.379  -0.377  -0.377  -0.376  -0.374
 -0.368  -0.364  -0.354  -0.352  -0.350  -0.344  -0.338  -0.337
 -0.327  -0.316  -0.315  -0.302  -0.295  -0.279  -0.277  -0.264
 -0.252  -0.247  -0.237  -0.232  -0.225  -0.148

 Beta MOs
 -- Occupied --
-19.622 -19.507 -10.600 -10.552 -10.521 -10.514 -10.505 -10.504
-10.502 -10.480 -10.475 -10.464 -10.452 -10.446 -10.446 -10.445
-10.445 -10.444 -10.444 -10.444 -10.444 -10.443 -10.442 -10.441
-10.441 -10.439 -10.439 -10.439 -10.439 -10.439 -10.438 -10.438
-10.437 -10.437 -10.435 -10.435 -10.428 -10.428 -10.427 -10.427
-10.427 -10.425 -10.425 -10.424 -10.414 -10.413 -10.412 -10.411
-10.407 -10.403 -10.401 -10.399 -10.399 -10.390  -6.901  -6.893
 -1.281  -1.164  -1.023  -0.993  -0.993  -0.939  -0.937  -0.934
 -0.930  -0.921  -0.913  -0.913  -0.883  -0.876  -0.869  -0.860
 -0.839  -0.834  -0.831  -0.828  -0.827  -0.827  -0.814  -0.797
 -0.795  -0.791  -0.790  -0.779  -0.754  -0.753  -0.741  -0.719
 -0.712  -0.706  -0.706  -0.699  -0.688  -0.686  -0.668  -0.659
 -0.657  -0.650  -0.642  -0.634  -0.625  -0.624  -0.624  -0.618
 -0.614  -0.600  -0.574  -0.573  -0.567  -0.565  -0.564  -0.560
 -0.555  -0.552  -0.551  -0.539  -0.535  -0.526  -0.524  -0.519
 -0.517  -0.516  -0.509  -0.506  -0.506  -0.498  -0.490  -0.486
 -0.481  -0.480  -0.478  -0.478  -0.476  -0.472  -0.471  -0.469
 -0.467  -0.463  -0.461  -0.461  -0.460  -0.459  -0.454  -0.452
 -0.448  -0.447  -0.446  -0.441  -0.435  -0.428  -0.423  -0.419
 -0.419  -0.416  -0.413  -0.411  -0.407  -0.402  -0.402  -0.397
 -0.395  -0.392  -0.387  -0.379  -0.377  -0.375  -0.375  -0.374
 -0.370  -0.363  -0.356  -0.352  -0.347  -0.342  -0.341  -0.339
 -0.327  -0.326  -0.316  -0.305  -0.295  -0.291  -0.276  -0.275
 -0.254  -0.252  -0.239  -0.233  -0.227  -0.227

          Ground-State Mulliken Net Atomic Charges

     Atom                 Charge (a.u.)    Spin (a.u.)
  --------------------------------------------------------
      1 C                    -0.127885      -0.064869
      2 C                    -0.411281       0.027898
      3 H                     0.176363      -0.001421
      4 C                     0.101521      -0.008042
      5 C                     0.078466       0.127064
      6 C                    -0.403301      -0.084886
      7 H                     0.230116       0.003709
      8 C                    -0.136880       0.092429
      9 C                     0.195971      -0.064574
     10 C                    -0.387451       0.090465
     11 H                     0.216476      -0.005351
     12 C                    -0.072909       0.022146
     13 C                     0.254505      -0.034245
     14 C                     0.198688      -0.031155
     15 C                    -0.396078       0.049019
     16 H                     0.194737      -0.002957
     17 C                    -0.200304      -0.035864
     18 H                     0.212691       0.001846
     19 C                    -0.344974       0.046169
     20 H                     0.211472      -0.002694
     21 C                    -0.202419      -0.054373
     22 H                     0.218527       0.002645
     23 C                    -0.342510       0.081352
     24 H                     0.210367      -0.004906
     25 B                     0.518316       0.430402
     26 C                    -0.126775      -0.077020
     27 C                    -0.403893       0.029466
     28 H                     0.173866      -0.001436
     29 C                     0.101584      -0.008565
     30 C                     0.077007       0.122077
     31 C                    -0.386662      -0.082361
     32 H                     0.226900       0.003554
     33 C                    -0.149512       0.089801
     34 C                     0.196688      -0.062796
     35 C                    -0.386315       0.087887
     36 H                     0.216556      -0.005195
     37 C                    -0.072622       0.020581
     38 C                     0.252784      -0.033104
     39 C                     0.199412      -0.030064
     40 C                    -0.397063       0.048054
     41 H                     0.195319      -0.002894
     42 C                    -0.202574      -0.052721
     43 H                     0.218380       0.002568
     44 C                    -0.341192       0.078190
     45 H                     0.210389      -0.004715
     46 C                    -0.200156      -0.034933
     47 H                     0.212839       0.001793
     48 C                    -0.344481       0.045225
     49 H                     0.211541      -0.002636
     50 B                     0.589418       0.244791
     51 C                    -0.114702      -0.510156
     52 C                     0.117427      -0.053123
     53 C                    -0.418590       0.000745
     54 H                     0.256623       0.002517
     55 C                     0.457920      -0.231367
     56 O                    -0.399208      -0.116855
     57 C                    -0.363365      -0.066157
     58 H                     0.262333       0.005852
     59 C                     0.074480       0.050116
     60 C                    -0.432354       0.012411
     61 H                     0.272574       0.000068
     62 H                     0.238708      -0.008178
     63 H                     0.239157      -0.008051
     64 C                    -0.750374       0.000196
     65 H                     0.237190       0.003386
     66 H                     0.283231      -0.002626
     67 H                     0.286267      -0.002453
     68 C                    -0.550793       0.010766
     69 H                     0.300735      -0.004706
     70 H                     0.231426       0.000555
     71 C                    -0.657367      -0.008955
     72 H                     0.286704      -0.000546
     73 H                     0.239305      -0.001606
     74 H                     0.207537       0.000346
     75 C                    -0.204315      -0.029364
     76 C                     0.071786       0.002409
     77 C                    -0.423575      -0.000836
     78 H                     0.214932       0.000316
     79 C                     0.396728      -0.002517
     80 O                    -0.455842      -0.001677
     81 C                    -0.380075      -0.001409
     82 H                     0.213472       0.000398
     83 C                     0.053962       0.003885
     84 C                    -0.402613       0.000179
     85 H                     0.233752       0.000006
     86 H                     0.201178      -0.000115
     87 H                     0.200834      -0.000112
     88 C                    -0.753200       0.000430
     89 H                     0.226206       0.001320
     90 H                     0.241806      -0.000800
     91 H                     0.244153      -0.000542
     92 C                    -0.540015       0.003051
     93 H                     0.255515      -0.001830
     94 H                     0.216698       0.000246
     95 C                    -0.642361      -0.000327
     96 H                     0.245725      -0.000194
     97 H                     0.208658      -0.000043
     98 H                     0.208063      -0.000008
  --------------------------------------------------------
  Sum of atomic charges =    -0.000000

                    Cartesian Multipole Moments
 -----------------------------------------------------------------
    Charge (ESU x 10^10)
                -0.0000
    Dipole Moment (Debye)
         X      11.6861      Y       0.5610      Z       6.3984
       Tot      13.3349
    Quadrupole Moments (Debye-Ang)
        XX    -242.1175     XY      13.6748     YY    -321.8820
        XZ      32.3382     YZ       6.6664     ZZ    -320.2761

 Total job time:  30332.14s(wall), 82108.07s(cpu)
        *  Thank you very much for using Q-Chem.  Have a nice day.  *
