 Q-Chem 5.0, Q-Chem, Inc., Pleasanton, CA (2017)
 Q-Chem 5.0.1 for Intel X86 EM64T Linux

User input:
--------------------------------------------------------------
$rem
threads 8
jobtype	sp
method PBEh-3c
basis def2-mSVP
mem_static	1024
mem_total	8000
sym_ignore	true
unrestricted true
scf_convergence	9
solvent_method	pcm
$end

$molecule
read incoords.mol
$end

$solvent
dielectric	4.33
$end

$pcm
theory iefpcm
$end
--------------------------------------------------------------

   17   -2202.2665498666      3.76E-10 Convergence criterion met
 Total energy in the final basis set = -2202.26654987
 Total job time:  2273.55s(wall), 6694.68s(cpu)
        *  Thank you very much for using Q-Chem.  Have a nice day.  *
 Q-Chem 5.0, Q-Chem, Inc., Pleasanton, CA (2017)
 Q-Chem 5.0.1 for Intel X86 EM64T Linux

User input:
--------------------------------------------------------------

$rem
threads 8
jobtype opt
method PBEh-3c
basis def2-mSVP
scf_guess	read
mem_static      1024
mem_total       8000
sym_ignore      true
unrestricted true
mom_start       1
scf_algorithm	diis
scf_max_cycles	250
solvent_method	pcm
geom_opt_tol_energy 25
geom_opt_tol_gradient 75
$end

$solvent
dielectric      4.33
$end

$pcm
theory iefpcm
$end

$occupied
1 2 3 4 5 6 7 8 9 10 11 12 13 14 15 16 17 18 19 20 21 22 23 24 25 26 27 28 29 30 31 32 33 34 35 36 37 38 39 40 41 42 43 44 45 46 47 48 49 50 51 52 53 54 55 56 57 58 59 60 61 62 63 64 65 66 67 68 69 70 71 72 73 74 75 76 77 78 79 80 81 82 83 84 85 86 87 88 89 90 91 92 93 94 95 96 97 98 99 100 101 102 103 104 105 106 107 108 109 110 111 112 113 114 115 116 117 118 119 120 121 122 123 124 125 126 127 128 129 130 131 132 133 134 135 136 137 138 139 140 141 142 143 144 145 146 147 148 149 150 151 152 153 154 155 156 157 158 159 160 161 162 163 164 165 166 167 168 169 170 171 172 173 174 175 176 177 178 179 180 181 182 183 184 185 186 187 188 189  191
1 2 3 4 5 6 7 8 9 10 11 12 13 14 15 16 17 18 19 20 21 22 23 24 25 26 27 28 29 30 31 32 33 34 35 36 37 38 39 40 41 42 43 44 45 46 47 48 49 50 51 52 53 54 55 56 57 58 59 60 61 62 63 64 65 66 67 68 69 70 71 72 73 74 75 76 77 78 79 80 81 82 83 84 85 86 87 88 89 90 91 92 93 94 95 96 97 98 99 100 101 102 103 104 105 106 107 108 109 110 111 112 113 114 115 116 117 118 119 120 121 122 123 124 125 126 127 128 129 130 131 132 133 134 135 136 137 138 139 140 141 142 143 144 145 146 147 148 149 150 151 152 153 154 155 156 157 158 159 160 161 162 163 164 165 166 167 168 169 170 171 172 173 174 175 176 177 178 179 180 181 182 183 184 185 186 187 188 189 190
$end

$molecule
read
$end

--------------------------------------------------------------

   21   -2202.1878456673      8.53E-09 Convergence criterion met
 Total energy in the final basis set = -2202.18784567
   18   -2202.2676197525      7.73E-09 Convergence criterion met
 Total energy in the final basis set = -2202.26761975
   13   -2202.2696388356      6.09E-09 Convergence criterion met
 Total energy in the final basis set = -2202.26963884
   13   -2202.2725108065      5.27E-09 Convergence criterion met
 Total energy in the final basis set = -2202.27251081
   13   -2202.2760608633      5.88E-09 Convergence criterion met
 Total energy in the final basis set = -2202.27606086
   13   -2202.2775895478      5.45E-09 Convergence criterion met
 Total energy in the final basis set = -2202.27758955
   13   -2202.2781472421      5.36E-09 Convergence criterion met
   12   -2202.2782609661      9.89E-09 Convergence criterion met
 Total energy in the final basis set = -2202.27826097
   12   -2202.2782830449      9.90E-09 Convergence criterion met
 Total energy in the final basis set = -2202.27828304
   12   -2202.2782922446      9.85E-09 Convergence criterion met
 Total energy in the final basis set = -2202.27829224
   12   -2202.2783011524      9.90E-09 Convergence criterion met
 Total energy in the final basis set = -2202.27830115
   12   -2202.2782988188      9.84E-09 Convergence criterion met
 Total energy in the final basis set = -2202.27829882
   12   -2202.2782937143      9.82E-09 Convergence criterion met
 Total energy in the final basis set = -2202.27829371

             Standard Nuclear Orientation (Angstroms)
    I     Atom           X                Y                Z
 ----------------------------------------------------------------
    1      C      -0.0000274086    -0.4104887093     0.0780685873
    2      C       0.0128186269    -0.3770818798     1.4783232694
    3      H       0.9587466193    -0.3907620811     2.0087149220
    4      C      -1.1786398609    -0.3237059074     2.1830974478
    5      C      -2.4042633242    -0.2878015570     1.4817869812
    6      C      -2.4293509162    -0.3158505915     0.1003928691
    7      H      -3.3763415356    -0.2875206958    -0.4278630565
    8      C      -1.2345300537    -0.3836508270    -0.6172027063
    9      C      -3.4937093594    -0.2275859561     2.4497204613
   10      C      -4.8607625103    -0.1747508622     2.3635941282
   11      H      -5.3751814667    -0.1677140004     1.4102660118
   12      C      -2.8889632087    -0.2323952715     3.7185567204
   13      C      -3.5980783102    -0.1884437804     4.9134328706
   14      C      -1.4851271790    -0.2891400916     3.6166105979
   15      C      -0.7541815941    -0.3024412024     4.7748402346
   16      H       0.3277159193    -0.3458195302     4.7686568935
   17      C      -1.4455569326    -0.2586492279     6.0107488942
   18      H      -0.8654261863    -0.2699231948     6.9240982683
   19      C      -2.8181265529    -0.2032908535     6.0944825104
   20      H      -3.2997637356    -0.1716268963     7.0640513158
   21      C      -5.6084072188    -0.1286729248     3.5636436752
   22      H      -6.6880910385    -0.0872022681     3.4998257252
   23      C      -5.0100106263    -0.1350886486     4.8031849480
   24      H      -5.6220618473    -0.0991027792     5.6961242524
   25      B       1.3357357791    -0.4639515953    -0.7226634143
   26      C       1.3060587638    -0.5547685325    -2.2765131807
   27      C       2.5004869119    -0.6577677499    -3.0005455262
   28      H       3.4476815389    -0.6766604753    -2.4731417894
   29      C       2.4680409195    -0.7345168020    -4.3833462865
   30      C       1.2257090795    -0.7019197070    -5.0550162269
   31      C       0.0414953783    -0.6030264696    -4.3521508417
   32      H      -0.9048155402    -0.5818236388    -4.8812308286
   33      C       0.0653852250    -0.5338478873    -2.9595188873
   34      C       1.4678036914    -0.7905581818    -6.4913789284
   35      C       0.6727796434    -0.8048072842    -7.6085788530
   36      H      -0.4066197303    -0.7401035211    -7.5445795815
   37      C       2.8618026933    -0.8772422170    -6.6463723054
   38      C       3.4975542978    -0.9797751718    -7.8800338615
   39      C       3.5205944465    -0.8485499608    -5.4016107632
   40      C       4.8887900080    -0.9280136797    -5.3969358601
   41      H       5.4599895129    -0.9132445839    -4.4772607148
   42      C       1.2926761420    -0.9074374133    -8.8765728239
   43      H       0.6668241152    -0.9184787623    -9.7596514440
   44      C       2.6583426187    -0.9932535641    -9.0217504470
   45      H       3.0919789442    -1.0705889735   -10.0114574817
   46      C       5.5674674746    -1.0329339252    -6.6364134734
   47      H       6.6477644202    -1.0953008110    -6.6265449763
   48      C       4.9098424538    -1.0592783305    -7.8448027430
   49      H       5.4727322027    -1.1414221560    -8.7666556648
   50      B      -1.2719580716    -0.4367260861    -2.1716198227
   51      C       2.7086706872    -0.4456744470     0.0325884561
   52      C       3.4329002435     0.7335025836     0.2016565628
   53      C       4.6467822490     0.7286088515     0.8909321942
   54      H       5.1811775529     1.6638137429     1.0045677624
   55      C       5.1495731707    -0.4572205750     1.4078424435
   56      O       6.3108091393    -0.5638590045     2.0868999528
   57      C       4.4371670759    -1.6425511729     1.2253352811
   58      H       4.8439377113    -2.5675205430     1.6182859288
   59      C       3.2303267385    -1.6440959189     0.5485611032
   60      C       7.0631786599     0.6041374682     2.3147705598
   61      H       7.9373328446     0.3041401384     2.8883973698
   62      H       7.4000012867     1.0670658112     1.3822823974
   63      H       6.5050473386     1.3479156354     2.8913099377
   64      C       2.4784339090    -2.9323501191     0.3525021388
   65      H       3.0351545993    -3.7879872544     0.7333079518
   66      H       2.2735218424    -3.1178728602    -0.7046467535
   67      H       1.5134181099    -2.9142966694     0.8635579650
   68      C       2.8995047765     2.0447228035    -0.3173021613
   69      H       2.3296786294     1.8837970040    -1.2370544799
   70      H       3.7336172485     2.6941350461    -0.5948975221
   71      C       2.0186424645     2.7668869262     0.7008123804
   72      H       1.1364913216     2.1777305055     0.9522745133
   73      H       1.6752207215     3.7244925645     0.3075264900
   74      H       2.5636620117     2.9596030454     1.6256801255
   75      C      -2.6385226459    -0.3825043648    -2.9492984404
   76      C      -3.2850097517    -1.5462113193    -3.3619746141
   77      C      -4.4842884739    -1.4829809743    -4.0747508134
   78      H      -4.9544292401    -2.4102816419    -4.3801689916
   79      C      -5.0484831338    -0.2554942132    -4.3850053170
   80      O      -6.2004589807    -0.0937925262    -5.0693151194
   81      C      -4.4047265252     0.9143574574    -3.9805265480
   82      H      -4.8452382618     1.8721224100    -4.2331706876
   83      C      -3.2176725625     0.8579568496    -3.2721201681
   84      C      -6.8987592173    -1.2429886409    -5.4885231611
   85      H      -7.7944772729    -0.8940784434    -5.9976981515
   86      H      -7.1988592037    -1.8735560590    -4.6463431773
   87      H      -6.3148732670    -1.8494660961    -6.1873569198
   88      C      -2.5337693839     2.1302786540    -2.8579266708
   89      H      -3.0866805916     3.0112231681    -3.1821696992
   90      H      -1.5296691862     2.1975605332    -3.2835843389
   91      H      -2.4253274030     2.1897464380    -1.7728745044
   92      C      -2.7383661088    -2.9085093892    -3.0169476728
   93      H      -1.6680468891    -2.8471231203    -2.8010561474
   94      H      -2.8283104964    -3.5694365783    -3.8833441678
   95      C      -3.4580100038    -3.5377173977    -1.8263084906
   96      H      -3.3522203336    -2.9217031132    -0.9328700542
   97      H      -4.5242410050    -3.6520714065    -2.0260796752
   98      H      -3.0524028438    -4.5246779164    -1.6016746158
 ----------------------------------------------------------------

   12   -2202.2782912404      9.83E-09 Convergence criterion met
 Total energy in the final basis set = -2202.27829124
 Final energy is   -2202.27829124036
 **  OPTIMIZATION CONVERGED  **

                    Orbital Energies (a.u.)
 --------------------------------------------------------------

 Alpha MOs
 -- Occupied --
-19.526 -19.526 -10.503 -10.503 -10.484 -10.483 -10.465 -10.465
-10.464 -10.464 -10.464 -10.464 -10.463 -10.463 -10.463 -10.462
-10.462 -10.462 -10.461 -10.460 -10.460 -10.460 -10.460 -10.460
-10.457 -10.457 -10.457 -10.457 -10.455 -10.455 -10.453 -10.453
-10.453 -10.452 -10.451 -10.451 -10.447 -10.447 -10.435 -10.435
-10.435 -10.434 -10.434 -10.434 -10.434 -10.433 -10.431 -10.431
-10.425 -10.425 -10.421 -10.419 -10.417 -10.416  -6.949  -6.949
 -1.182  -1.182  -1.017  -1.016  -0.963  -0.959  -0.956  -0.954
 -0.933  -0.932  -0.909  -0.901  -0.884  -0.883  -0.861  -0.855
 -0.854  -0.850  -0.846  -0.845  -0.822  -0.817  -0.816  -0.813
 -0.812  -0.805  -0.775  -0.773  -0.763  -0.763  -0.734  -0.728
 -0.726  -0.720  -0.708  -0.708  -0.688  -0.681  -0.679  -0.665
 -0.659  -0.647  -0.647  -0.645  -0.637  -0.637  -0.593  -0.593
 -0.590  -0.587  -0.584  -0.583  -0.582  -0.574  -0.573  -0.561
 -0.561  -0.544  -0.542  -0.536  -0.532  -0.532  -0.527  -0.522
 -0.513  -0.507  -0.502  -0.499  -0.497  -0.496  -0.494  -0.493
 -0.492  -0.489  -0.485  -0.485  -0.484  -0.480  -0.477  -0.473
 -0.473  -0.472  -0.468  -0.466  -0.464  -0.463  -0.461  -0.453
 -0.448  -0.444  -0.440  -0.438  -0.435  -0.428  -0.427  -0.425
 -0.423  -0.422  -0.419  -0.414  -0.413  -0.410  -0.406  -0.405
 -0.397  -0.395  -0.395  -0.393  -0.391  -0.390  -0.385  -0.384
 -0.379  -0.373  -0.368  -0.366  -0.363  -0.357  -0.355  -0.352
 -0.341  -0.339  -0.319  -0.314  -0.295  -0.295  -0.282  -0.277
 -0.277  -0.262  -0.258  -0.256  -0.252  -0.250

 Beta MOs
 -- Occupied --
-19.526 -19.526 -10.503 -10.503 -10.484 -10.483 -10.465 -10.465
-10.464 -10.464 -10.464 -10.464 -10.463 -10.463 -10.463 -10.462
-10.462 -10.462 -10.461 -10.460 -10.460 -10.460 -10.460 -10.460
-10.457 -10.457 -10.457 -10.457 -10.455 -10.455 -10.453 -10.453
-10.453 -10.452 -10.451 -10.451 -10.447 -10.447 -10.435 -10.435
-10.435 -10.434 -10.434 -10.434 -10.434 -10.433 -10.431 -10.431
-10.425 -10.425 -10.421 -10.419 -10.417 -10.416  -6.949  -6.949
 -1.182  -1.182  -1.017  -1.016  -0.963  -0.959  -0.956  -0.954
 -0.933  -0.932  -0.909  -0.901  -0.884  -0.883  -0.861  -0.855
 -0.854  -0.850  -0.846  -0.845  -0.822  -0.817  -0.816  -0.813
 -0.812  -0.805  -0.775  -0.773  -0.763  -0.763  -0.734  -0.728
 -0.726  -0.720  -0.708  -0.708  -0.688  -0.681  -0.679  -0.665
 -0.659  -0.647  -0.647  -0.645  -0.637  -0.637  -0.593  -0.593
 -0.590  -0.587  -0.584  -0.583  -0.582  -0.574  -0.573  -0.561
 -0.561  -0.544  -0.542  -0.536  -0.532  -0.532  -0.527  -0.522
 -0.513  -0.507  -0.502  -0.499  -0.497  -0.496  -0.494  -0.493
 -0.492  -0.489  -0.485  -0.485  -0.484  -0.480  -0.477  -0.473
 -0.473  -0.472  -0.468  -0.466  -0.464  -0.463  -0.461  -0.453
 -0.448  -0.444  -0.440  -0.438  -0.435  -0.428  -0.427  -0.425
 -0.423  -0.422  -0.419  -0.414  -0.413  -0.410  -0.406  -0.405
 -0.397  -0.395  -0.395  -0.393  -0.391  -0.390  -0.385  -0.384
 -0.379  -0.373  -0.368  -0.366  -0.363  -0.357  -0.355  -0.352
 -0.341  -0.339  -0.319  -0.314  -0.295  -0.295  -0.282  -0.277
 -0.277  -0.262  -0.258  -0.256  -0.252  -0.250

          Ground-State Mulliken Net Atomic Charges

     Atom                 Charge (a.u.)    Spin (a.u.)
  --------------------------------------------------------
      1 C                    -0.153000       0.000000
      2 C                    -0.402147      -0.000000
      3 H                     0.248808      -0.000000
      4 C                     0.098154       0.000000
      5 C                     0.075880      -0.000000
      6 C                    -0.395858       0.000000
      7 H                     0.246113      -0.000000
      8 C                    -0.151035      -0.000000
      9 C                     0.181707      -0.000000
     10 C                    -0.387790       0.000000
     11 H                     0.245924       0.000000
     12 C                    -0.064922       0.000000
     13 C                     0.230342      -0.000000
     14 C                     0.183205      -0.000000
     15 C                    -0.396494       0.000000
     16 H                     0.245951      -0.000000
     17 C                    -0.225666      -0.000000
     18 H                     0.250592       0.000000
     19 C                    -0.348799       0.000000
     20 H                     0.247086      -0.000000
     21 C                    -0.228260      -0.000000
     22 H                     0.251076       0.000000
     23 C                    -0.344671       0.000000
     24 H                     0.246714      -0.000000
     25 B                     0.678111       0.000000
     26 C                    -0.156846       0.000000
     27 C                    -0.393724      -0.000000
     28 H                     0.244659       0.000000
     29 C                     0.098434       0.000000
     30 C                     0.072217      -0.000000
     31 C                    -0.384294       0.000000
     32 H                     0.244024       0.000000
     33 C                    -0.157704      -0.000000
     34 C                     0.182019      -0.000000
     35 C                    -0.387150       0.000000
     36 H                     0.245513      -0.000000
     37 C                    -0.064687       0.000000
     38 C                     0.228382      -0.000000
     39 C                     0.182847       0.000000
     40 C                    -0.397178       0.000000
     41 H                     0.245710       0.000000
     42 C                    -0.228523      -0.000000
     43 H                     0.250854      -0.000000
     44 C                    -0.343632       0.000000
     45 H                     0.246663      -0.000000
     46 C                    -0.225428      -0.000000
     47 H                     0.250339      -0.000000
     48 C                    -0.348408       0.000000
     49 H                     0.247113      -0.000000
     50 B                     0.679145       0.000000
     51 C                    -0.220188       0.000000
     52 C                     0.073436      -0.000000
     53 C                    -0.446110      -0.000000
     54 H                     0.246509      -0.000000
     55 C                     0.392140       0.000000
     56 O                    -0.466755       0.000000
     57 C                    -0.404235      -0.000000
     58 H                     0.236179      -0.000000
     59 C                     0.053675      -0.000000
     60 C                    -0.424082      -0.000000
     61 H                     0.250853       0.000000
     62 H                     0.216555       0.000000
     63 H                     0.216560       0.000000
     64 C                    -0.771956       0.000000
     65 H                     0.249528      -0.000000
     66 H                     0.248937       0.000000
     67 H                     0.249362       0.000000
     68 C                    -0.553273       0.000000
     69 H                     0.253777      -0.000000
     70 H                     0.237629      -0.000000
     71 C                    -0.655371      -0.000000
     72 H                     0.241223       0.000000
     73 H                     0.225641       0.000000
     74 H                     0.219247       0.000000
     75 C                    -0.228234      -0.000000
     76 C                     0.071796      -0.000000
     77 C                    -0.440085       0.000000
     78 H                     0.246859       0.000000
     79 C                     0.392097      -0.000000
     80 O                    -0.466888       0.000000
     81 C                    -0.403494      -0.000000
     82 H                     0.236509      -0.000000
     83 C                     0.053874      -0.000000
     84 C                    -0.424048      -0.000000
     85 H                     0.251113       0.000000
     86 H                     0.216659       0.000000
     87 H                     0.216532       0.000000
     88 C                    -0.771361       0.000000
     89 H                     0.249589      -0.000000
     90 H                     0.248354       0.000000
     91 H                     0.248641      -0.000000
     92 C                    -0.551341       0.000000
     93 H                     0.254933       0.000000
     94 H                     0.238292      -0.000000
     95 C                    -0.650046       0.000000
     96 H                     0.234742       0.000000
     97 H                     0.218465       0.000000
     98 H                     0.226391      -0.000000
  --------------------------------------------------------
  Sum of atomic charges =    -0.000000

                    Cartesian Multipole Moments
 -----------------------------------------------------------------
    Charge (ESU x 10^10)
                -0.0000
    Dipole Moment (Debye)
         X      -0.2014      Y      -0.1409      Z      -0.1418
       Tot       0.2837
    Quadrupole Moments (Debye-Ang)
        XX    -267.2735     XY      19.1399     YY    -321.8838
        XZ      -2.8790     YZ      14.2444     ZZ    -265.4170

 Total job time:  33408.45s(wall), 98563.59s(cpu)
        *  Thank you very much for using Q-Chem.  Have a nice day.  *
