 Q-Chem 5.0, Q-Chem, Inc., Pleasanton, CA (2017)
 Q-Chem 5.0.1 for Intel X86 EM64T Linux

User input:
--------------------------------------------------------------
$rem
threads 8
jobtype	sp
method PBEh-3c
basis def2-mSVP
mem_static	1024
mem_total	8000
sym_ignore	true
unrestricted true
scf_convergence	9
solvent_method	pcm
$end

$molecule
read moms1preopt_CT_eth.mol
$end

$solvent
dielectric	4.33
$end

$pcm
theory iefpcm
$end
--------------------------------------------------------------

   17   -2202.2675008860      3.55E-10 Convergence criterion met
 Total energy in the final basis set = -2202.26750089
 Q-Chem 5.1.1 for Intel X86 EM64T Linux

User input:
--------------------------------------------------------------

$rem
threads 8
jobtype opt
method PBEh-3c
basis def2-mSVP
scf_guess	read
mem_static      1024
mem_total       8000
sym_ignore      true
unrestricted true
mom_start       1
scf_algorithm	diis
scf_max_cycles	250
solvent_method	pcm
geom_opt_tol_energy 25
geom_opt_tol_gradient 75
$end

$solvent
dielectric      4.33
$end

$pcm
theory iefpcm
$end

$occupied
1 2 3 4 5 6 7 8 9 10 11 12 13 14 15 16 17 18 19 20 21 22 23 24 25 26 27 28 29 30 31 32 33 34 35 36 37 38 39 40 41 42 43 44 45 46 47 48 49 50 51 52 53 54 55 56 57 58 59 60 61 62 63 64 65 66 67 68 69 70 71 72 73 74 75 76 77 78 79 80 81 82 83 84 85 86 87 88 89 90 91 92 93 94 95 96 97 98 99 100 101 102 103 104 105 106 107 108 109 110 111 112 113 114 115 116 117 118 119 120 121 122 123 124 125 126 127 128 129 130 131 132 133 134 135 136 137 138 139 140 141 142 143 144 145 146 147 148 149 150 151 152 153 154 155 156 157 158 159 160 161 162 163 164 165 166 167 168 169 170 171 172 173 174 175 176 177 178 179 180 181 182 183 184 185 186 187 188 189  191
1 2 3 4 5 6 7 8 9 10 11 12 13 14 15 16 17 18 19 20 21 22 23 24 25 26 27 28 29 30 31 32 33 34 35 36 37 38 39 40 41 42 43 44 45 46 47 48 49 50 51 52 53 54 55 56 57 58 59 60 61 62 63 64 65 66 67 68 69 70 71 72 73 74 75 76 77 78 79 80 81 82 83 84 85 86 87 88 89 90 91 92 93 94 95 96 97 98 99 100 101 102 103 104 105 106 107 108 109 110 111 112 113 114 115 116 117 118 119 120 121 122 123 124 125 126 127 128 129 130 131 132 133 134 135 136 137 138 139 140 141 142 143 144 145 146 147 148 149 150 151 152 153 154 155 156 157 158 159 160 161 162 163 164 165 166 167 168 169 170 171 172 173 174 175 176 177 178 179 180 181 182 183 184 185 186 187 188 189 190
$end

$molecule
read
$end

--------------------------------------------------------------

 Total job time:  2431.48s(wall), 6985.30s(cpu)
        *  Thank you very much for using Q-Chem.  Have a nice day.  *
 Q-Chem 5.0, Q-Chem, Inc., Pleasanton, CA (2017)
 Q-Chem 5.0.1 for Intel X86 EM64T Linux

User input:
--------------------------------------------------------------

$rem
threads 8
jobtype opt
method PBEh-3c
basis def2-mSVP
scf_guess	read
mem_static      1024
mem_total       8000
sym_ignore      true
unrestricted true
mom_start       1
scf_algorithm	diis
scf_max_cycles	250
solvent_method	pcm
geom_opt_tol_energy 25
geom_opt_tol_gradient 75
$end

$solvent
dielectric      4.33
$end

$pcm
theory iefpcm
$end

$occupied
1 2 3 4 5 6 7 8 9 10 11 12 13 14 15 16 17 18 19 20 21 22 23 24 25 26 27 28 29 30 31 32 33 34 35 36 37 38 39 40 41 42 43 44 45 46 47 48 49 50 51 52 53 54 55 56 57 58 59 60 61 62 63 64 65 66 67 68 69 70 71 72 73 74 75 76 77 78 79 80 81 82 83 84 85 86 87 88 89 90 91 92 93 94 95 96 97 98 99 100 101 102 103 104 105 106 107 108 109 110 111 112 113 114 115 116 117 118 119 120 121 122 123 124 125 126 127 128 129 130 131 132 133 134 135 136 137 138 139 140 141 142 143 144 145 146 147 148 149 150 151 152 153 154 155 156 157 158 159 160 161 162 163 164 165 166 167 168 169 170 171 172 173 174 175 176 177 178 179 180 181 182 183 184 185 186 187 188 189  191
1 2 3 4 5 6 7 8 9 10 11 12 13 14 15 16 17 18 19 20 21 22 23 24 25 26 27 28 29 30 31 32 33 34 35 36 37 38 39 40 41 42 43 44 45 46 47 48 49 50 51 52 53 54 55 56 57 58 59 60 61 62 63 64 65 66 67 68 69 70 71 72 73 74 75 76 77 78 79 80 81 82 83 84 85 86 87 88 89 90 91 92 93 94 95 96 97 98 99 100 101 102 103 104 105 106 107 108 109 110 111 112 113 114 115 116 117 118 119 120 121 122 123 124 125 126 127 128 129 130 131 132 133 134 135 136 137 138 139 140 141 142 143 144 145 146 147 148 149 150 151 152 153 154 155 156 157 158 159 160 161 162 163 164 165 166 167 168 169 170 171 172 173 174 175 176 177 178 179 180 181 182 183 184 185 186 187 188 189 190
$end

$molecule
read
$end

--------------------------------------------------------------

   21   -2202.1900563399      9.57E-09 Convergence criterion met
 Total energy in the final basis set = -2202.19005634
   21   -2202.1900563237      9.51E-09 Convergence criterion met
 Total energy in the final basis set = -2202.19005632
   17   -2202.2673058861      8.22E-09 Convergence criterion met
Convergence criterion met
 Total energy in the final basis set = -2202.26730584
   13   -2202.2687291369      5.73E-09 Convergence criterion met
 Total energy in the final basis set = -2202.26872914
   13   -2202.2687291375      5.74E-09 Convergence criterion met
 Total energy in the final basis set = -2202.26872914
   13   -2202.2738956010      6.06E-09 Convergence criterion met
 Total energy in the final basis set = -2202.27389560
Convergence criterion met
 Total energy in the final basis set = -2202.27806971
   12   -2202.2780713347      9.84E-09 Convergence criterion met
 Total energy in the final basis set = -2202.27807133
 Total energy in the final basis set = -2202.27806947
 Final energy is   -2202.27806946731
 **  OPTIMIZATION CONVERGED  **
   12   -2202.2780726349      9.82E-09 Convergence criterion met
 Total energy in the final basis set = -2202.27807263
   12   -2202.2780706538      9.87E-09 Convergence criterion met
 Total energy in the final basis set = -2202.27807065
   12   -2202.2780697013      9.98E-09 Convergence criterion met
 Total energy in the final basis set = -2202.27806970

             Standard Nuclear Orientation (Angstroms)
    I     Atom           X                Y                Z
 ----------------------------------------------------------------
    1      C       0.1080154463    -0.1112712812     0.1050675240
    2      C       0.1239770471    -0.1731821617     1.5044836094
    3      H       1.0715900502    -0.1659490517     2.0323097096
    4      C      -1.0666625415    -0.2384299339     2.2103747186
    5      C      -2.2940690953    -0.2201530143     1.5105139665
    6      C      -2.3221086812    -0.1410451923     0.1315295971
    7      H      -3.2707912785    -0.1154168968    -0.3939386781
    8      C      -1.1276614750    -0.0955081591    -0.5876550275
    9      C      -1.3724555426    -0.3217766015     3.6430413752
   10      C      -0.6413709882    -0.3742369162     4.8004426524
   11      H       0.4413321562    -0.3563745377     4.7959230155
   12      C      -2.7780396852    -0.3512195284     3.7431585424
   13      C      -3.4877612831    -0.4299981822     4.9357300979
   14      C      -3.3846134253    -0.2911888236     2.4759185256
   15      C      -4.7526006185    -0.3093740833     2.3885339402
   16      H      -5.2672704968    -0.2647500207     1.4362259065
   17      C      -1.3343419655    -0.4548435507     6.0336680747
   18      H      -0.7545402825    -0.4963722435     6.9463492860
   19      C      -2.7078395459    -0.4828521727     6.1157796841
   20      H      -3.1903023814    -0.5453124781     7.0834500027
   21      C      -4.9006939840    -0.4474439183     4.8248291177
   22      H      -5.5128546398    -0.5074211481     5.7164020743
   23      C      -5.5001457278    -0.3881637804     3.5870636248
   24      H      -6.5805783507    -0.4023242064     3.5236041255
   25      B      -1.1688630729    -0.0158315849    -2.1408433144
   26      C       0.1656311449    -0.0673720173    -2.9370897821
   27      C       0.1413320401    -0.0851904493    -4.3317347977
   28      H      -0.8054666413    -0.0485899002    -4.8589818221
   29      C       1.3249729801    -0.1541004175    -5.0394434919
   30      C       2.5675629721    -0.1921753444    -4.3685238077
   31      C       2.6008688150    -0.1496989317    -2.9849414133
   32      H       3.5499674055    -0.1604890250    -2.4610511606
   33      C       1.4063078189    -0.0919236892    -2.2569846969
   34      C       3.6230390767    -0.2665540301    -5.3862283617
   35      C       4.9919425046    -0.3332651178    -5.3793269352
   36      H       5.5608158214    -0.3379064175    -4.4579631319
   37      C       2.9651327621    -0.2682318172    -6.6324516188
   38      C       3.6047680465    -0.3323238996    -7.8666156178
   39      C       1.5689607808    -0.2000585137    -6.4788706352
   40      C       0.7768363977    -0.1934021703    -7.5986272205
   41      H      -0.3034836613    -0.1418516536    -7.5369534854
   42      C       5.6735635632    -0.3990188424    -6.6199404848
   43      H       6.7543782378    -0.4517044273    -6.6100532845
   44      C       5.0179110223    -0.3995271945    -7.8297499256
   45      H       5.5833969346    -0.4522950283    -8.7521808408
   46      C       2.7683796892    -0.3244729984    -9.0106402182
   47      H       3.2050379593    -0.3718852971   -10.0008951397
   48      C       1.4015301601    -0.2563872980    -8.8670917817
   49      H       0.7781725994    -0.2508596648    -9.7520221329
   50      B       1.4377112241    -0.0302479491    -0.7013921463
   51      C      -2.5367339809     0.1442940793    -2.8999823859
   52      C      -3.0907544284     1.4281020096    -3.0603970800
   53      C      -4.2853502015     1.5963804021    -3.7378987165
   54      H      -4.7065368786     2.5872599602    -3.8644455010
   55      C      -4.9611763028     0.4993769132    -4.2728451801
   56      O      -6.1175873414     0.7667721633    -4.9152589556
   57      C      -4.4211112148    -0.7684881278    -4.1253853175
   58      H      -4.9165067575    -1.6409610725    -4.5344964995
   59      C      -3.2147169521    -0.9454697066    -3.4438854408
   60      C      -6.8341419018    -0.3058197280    -5.4800182931
   61      H      -7.7215995178     0.1217073782    -5.9415222020
   62      H      -7.1492617485    -1.0342697170    -4.7269042296
   63      H      -6.2580655302    -0.8278590120    -6.2499253820
   64      C      -2.3760055906     2.6273309423    -2.5033957969
   65      H      -2.9011445456     3.5532692864    -2.7352231246
   66      H      -1.3655492632     2.7131487262    -2.9101666847
   67      H      -2.2796853589     2.5663307187    -1.4173327286
   68      C      -2.7011020431    -2.3528883766    -3.2757016421
   69      H      -1.6270614274    -2.3483315447    -3.0706489243
   70      H      -2.8199970271    -2.9018256126    -4.2140844191
   71      C      -3.4247217296    -3.1047065345    -2.1606364066
   72      H      -3.2942896810    -2.6052489349    -1.2001585834
   73      H      -3.0422180775    -4.1211934449    -2.0625526514
   74      H      -4.4954675946    -3.1680119305    -2.3592707331
   75      C       2.8103982353     0.1303966706     0.0358158438
   76      C       3.3818606252     1.3912826817     0.2004863248
   77      C       4.6149058053     1.5334634460     0.8382899715
   78      H       5.0316382817     2.5274122590     0.9464420801
   79      C       5.2870319298     0.4145387502     1.3106236623
   80      O       6.4838304385     0.4503181304     1.9334318924
   81      C       4.7225302378    -0.8496304470     1.1406120561
   82      H       5.2598513785    -1.7194225337     1.5015023114
   83      C       3.4982741271    -0.9975040628     0.5115294935
   84      C       7.1006914162     1.7010385023     2.1255469433
   85      H       8.0387688421     1.5095308033     2.6418479234
   86      H       6.4929804523     2.3702356191     2.7419557483
   87      H       7.3195593467     2.2025801606     1.1781696631
   88      C       2.9139395386    -2.3688303696     0.3100645408
   89      H       3.5605459145    -3.1479329636     0.7124335750
   90      H       1.9395345652    -2.4680533772     0.7937680293
   91      H       2.7623408724    -2.5830188148    -0.7507925243
   92      C       2.6584885593     2.6282478095    -0.2694085824
   93      H       2.0501320610     2.3981910532    -1.1493077103
   94      H       3.3843264088     3.3758377378    -0.5998227763
   95      C       1.7671313605     3.2343689729     0.8123486279
   96      H       1.0047593741     2.5267546987     1.1386835751
   97      H       1.2573925372     4.1243429962     0.4413999560
   98      H       2.3499094952     3.5222060016     1.6881640364
 ----------------------------------------------------------------

   13   -2202.2780694596      5.17E-09 Convergence criterion met
 Total energy in the final basis set = -2202.27806946
 Final energy is   -2202.27806945962
 **  OPTIMIZATION CONVERGED  **

                    Orbital Energies (a.u.)
 --------------------------------------------------------------

 Alpha MOs
 -- Occupied --
-19.526 -19.526 -10.503 -10.503 -10.484 -10.483 -10.465 -10.465
-10.464 -10.464 -10.464 -10.464 -10.463 -10.463 -10.463 -10.462
-10.462 -10.462 -10.461 -10.461 -10.460 -10.460 -10.460 -10.460
-10.458 -10.458 -10.457 -10.457 -10.456 -10.454 -10.454 -10.453
-10.453 -10.452 -10.452 -10.451 -10.447 -10.447 -10.435 -10.435
-10.435 -10.434 -10.434 -10.434 -10.434 -10.433 -10.432 -10.431
-10.426 -10.425 -10.421 -10.419 -10.418 -10.416  -6.949  -6.949
 -1.182  -1.182  -1.017  -1.016  -0.963  -0.959  -0.956  -0.954
 -0.933  -0.932  -0.909  -0.901  -0.884  -0.883  -0.861  -0.855
 -0.854  -0.850  -0.846  -0.845  -0.822  -0.817  -0.816  -0.813
 -0.812  -0.805  -0.775  -0.774  -0.764  -0.763  -0.734  -0.728
 -0.726  -0.720  -0.709  -0.708  -0.688  -0.681  -0.679  -0.665
 -0.659  -0.647  -0.647  -0.645  -0.637  -0.637  -0.594  -0.593
 -0.590  -0.587  -0.584  -0.583  -0.582  -0.574  -0.573  -0.561
 -0.561  -0.544  -0.542  -0.536  -0.533  -0.532  -0.527  -0.522
 -0.513  -0.507  -0.502  -0.499  -0.497  -0.496  -0.494  -0.493
 -0.492  -0.489  -0.485  -0.485  -0.484  -0.480  -0.477  -0.473
 -0.473  -0.472  -0.468  -0.466  -0.464  -0.463  -0.461  -0.453
 -0.448  -0.444  -0.440  -0.438  -0.435  -0.428  -0.427  -0.425
 -0.424  -0.422  -0.419  -0.414  -0.413  -0.410  -0.406  -0.405
 -0.397  -0.395  -0.395  -0.393  -0.391  -0.390  -0.386  -0.384
 -0.379  -0.373  -0.368  -0.366  -0.363  -0.357  -0.355  -0.352
 -0.341  -0.339  -0.319  -0.314  -0.296  -0.295  -0.281  -0.277
 -0.277  -0.262  -0.258  -0.256  -0.252  -0.250

 Beta MOs
 -- Occupied --
-19.526 -19.526 -10.503 -10.503 -10.484 -10.483 -10.465 -10.465
-10.464 -10.464 -10.464 -10.464 -10.463 -10.463 -10.463 -10.462
-10.462 -10.462 -10.461 -10.461 -10.460 -10.460 -10.460 -10.460
-10.458 -10.458 -10.457 -10.457 -10.456 -10.454 -10.454 -10.453
-10.453 -10.452 -10.452 -10.451 -10.447 -10.447 -10.435 -10.435
-10.435 -10.434 -10.434 -10.434 -10.434 -10.433 -10.432 -10.431
-10.426 -10.425 -10.421 -10.419 -10.418 -10.416  -6.949  -6.949
 -1.182  -1.182  -1.017  -1.016  -0.963  -0.959  -0.956  -0.954
 -0.933  -0.932  -0.909  -0.901  -0.884  -0.883  -0.861  -0.855
 -0.854  -0.850  -0.846  -0.845  -0.822  -0.817  -0.816  -0.813
 -0.812  -0.805  -0.775  -0.774  -0.764  -0.763  -0.734  -0.728
 -0.726  -0.720  -0.709  -0.708  -0.688  -0.681  -0.679  -0.665
 -0.659  -0.647  -0.647  -0.645  -0.637  -0.637  -0.594  -0.593
 -0.590  -0.587  -0.584  -0.583  -0.582  -0.574  -0.573  -0.561
 -0.561  -0.544  -0.542  -0.536  -0.533  -0.532  -0.527  -0.522
 -0.513  -0.507  -0.502  -0.499  -0.497  -0.496  -0.494  -0.493
 -0.492  -0.489  -0.485  -0.485  -0.484  -0.480  -0.477  -0.473
 -0.473  -0.472  -0.468  -0.466  -0.464  -0.463  -0.461  -0.453
 -0.448  -0.444  -0.440  -0.438  -0.435  -0.428  -0.427  -0.425
 -0.424  -0.422  -0.419  -0.414  -0.413  -0.410  -0.406  -0.405
 -0.397  -0.395  -0.395  -0.393  -0.391  -0.390  -0.386  -0.384
 -0.379  -0.373  -0.368  -0.366  -0.363  -0.357  -0.355  -0.352
 -0.341  -0.339  -0.319  -0.314  -0.296  -0.295  -0.281  -0.277
 -0.277  -0.262  -0.258  -0.256  -0.252  -0.250

          Ground-State Mulliken Net Atomic Charges

     Atom                 Charge (a.u.)    Spin (a.u.)
  --------------------------------------------------------
      1 C                    -0.149669       0.000000
      2 C                    -0.403338       0.000000
      3 H                     0.247361       0.000000
      4 C                     0.097769       0.000000
      5 C                     0.074938      -0.000000
      6 C                    -0.394581      -0.000000
      7 H                     0.245606      -0.000000
      8 C                    -0.151976      -0.000000
      9 C                     0.183437      -0.000000
     10 C                    -0.395965       0.000000
     11 H                     0.246037       0.000000
     12 C                    -0.065689       0.000000
     13 C                     0.229111      -0.000000
     14 C                     0.182243       0.000000
     15 C                    -0.386749      -0.000000
     16 H                     0.246021       0.000000
     17 C                    -0.225951      -0.000000
     18 H                     0.250701       0.000000
     19 C                    -0.348372       0.000000
     20 H                     0.247114      -0.000000
     21 C                    -0.344092       0.000000
     22 H                     0.246688      -0.000000
     23 C                    -0.228749      -0.000000
     24 H                     0.251085       0.000000
     25 B                     0.679652       0.000000
     26 C                    -0.158312      -0.000000
     27 C                    -0.385923      -0.000000
     28 H                     0.242814      -0.000000
     29 C                     0.073689       0.000000
     30 C                     0.095557      -0.000000
     31 C                    -0.392817       0.000000
     32 H                     0.244541       0.000000
     33 C                    -0.154482      -0.000000
     34 C                     0.183982       0.000000
     35 C                    -0.396022      -0.000000
     36 H                     0.245922      -0.000000
     37 C                    -0.066109       0.000000
     38 C                     0.227377      -0.000000
     39 C                     0.182633      -0.000000
     40 C                    -0.387142       0.000000
     41 H                     0.245189      -0.000000
     42 C                    -0.225952       0.000000
     43 H                     0.250376       0.000000
     44 C                    -0.347804      -0.000000
     45 H                     0.247010      -0.000000
     46 C                    -0.343465       0.000000
     47 H                     0.246600      -0.000000
     48 C                    -0.228492      -0.000000
     49 H                     0.250792      -0.000000
     50 B                     0.671216      -0.000000
     51 C                    -0.226453       0.000000
     52 C                     0.049344       0.000000
     53 C                    -0.405114      -0.000000
     54 H                     0.236796      -0.000000
     55 C                     0.393048       0.000000
     56 O                    -0.466517      -0.000000
     57 C                    -0.438624      -0.000000
     58 H                     0.247082      -0.000000
     59 C                     0.075860      -0.000000
     60 C                    -0.424250       0.000000
     61 H                     0.251233      -0.000000
     62 H                     0.216408      -0.000000
     63 H                     0.216559      -0.000000
     64 C                    -0.772536       0.000000
     65 H                     0.250529      -0.000000
     66 H                     0.248714       0.000000
     67 H                     0.249765      -0.000000
     68 C                    -0.549197      -0.000000
     69 H                     0.253450      -0.000000
     70 H                     0.237449      -0.000000
     71 C                    -0.649551      -0.000000
     72 H                     0.233578       0.000000
     73 H                     0.226852       0.000000
     74 H                     0.218268      -0.000000
     75 C                    -0.219805      -0.000000
     76 C                     0.068414       0.000000
     77 C                    -0.448039       0.000000
     78 H                     0.246848       0.000000
     79 C                     0.392362      -0.000000
     80 O                    -0.466871       0.000000
     81 C                    -0.401952      -0.000000
     82 H                     0.236083       0.000000
     83 C                     0.060416       0.000000
     84 C                    -0.424175      -0.000000
     85 H                     0.250849       0.000000
     86 H                     0.216665       0.000000
     87 H                     0.216511       0.000000
     88 C                    -0.770138       0.000000
     89 H                     0.248990       0.000000
     90 H                     0.248352      -0.000000
     91 H                     0.247810      -0.000000
     92 C                    -0.556049      -0.000000
     93 H                     0.256789      -0.000000
     94 H                     0.238869       0.000000
     95 C                    -0.653682       0.000000
     96 H                     0.240892      -0.000000
     97 H                     0.224992       0.000000
     98 H                     0.219366       0.000000
  --------------------------------------------------------
  Sum of atomic charges =    -0.000000

                    Cartesian Multipole Moments
 -----------------------------------------------------------------
    Charge (ESU x 10^10)
                -0.0000
    Dipole Moment (Debye)
         X      -0.3918      Y      -0.1821      Z      -0.3719
       Tot       0.5701
    Quadrupole Moments (Debye-Ang)
        XX    -269.1101     XY      20.4964     YY    -321.4018
        XZ      -2.1868     YZ      10.9541     ZZ    -263.8758

 Total job time:  37284.78s(wall), 109711.97s(cpu)
        *  Thank you very much for using Q-Chem.  Have a nice day.  *
