 Q-Chem 5.0, Q-Chem, Inc., Pleasanton, CA (2017)
 Q-Chem 5.0.1 for Intel X86 EM64T Linux

User input:
--------------------------------------------------------------
$rem
threads 8
jobtype	sp
method PBEh-3c
basis def2-mSVP
mem_static	1024
mem_total	8000
sym_ignore	true
unrestricted true
scf_convergence	9
solvent_method	pcm
$end

$molecule
read moms1opt_tol.mol
$end

$solvent
dielectric	4.33
$end

$pcm
theory iefpcm
$end
--------------------------------------------------------------

   17   -2202.2670198163      3.51E-10 Convergence criterion met
 Total energy in the final basis set = -2202.26701982
 Total job time:  2493.92s(wall), 6893.91s(cpu)
        *  Thank you very much for using Q-Chem.  Have a nice day.  *
 Q-Chem 5.0, Q-Chem, Inc., Pleasanton, CA (2017)
 Q-Chem 5.0.1 for Intel X86 EM64T Linux

User input:
--------------------------------------------------------------

$rem
threads 8
jobtype opt
method PBEh-3c
basis def2-mSVP
scf_guess	read
mem_static      1024
mem_total       8000
sym_ignore      true
unrestricted true
mom_start       1
scf_algorithm	diis
scf_max_cycles	250
solvent_method	pcm
geom_opt_tol_energy 25
geom_opt_tol_gradient 75
$end

$solvent
dielectric      4.33
$end

$pcm
theory iefpcm
$end

$occupied
1 2 3 4 5 6 7 8 9 10 11 12 13 14 15 16 17 18 19 20 21 22 23 24 25 26 27 28 29 30 31 32 33 34 35 36 37 38 39 40 41 42 43 44 45 46 47 48 49 50 51 52 53 54 55 56 57 58 59 60 61 62 63 64 65 66 67 68 69 70 71 72 73 74 75 76 77 78 79 80 81 82 83 84 85 86 87 88 89 90 91 92 93 94 95 96 97 98 99 100 101 102 103 104 105 106 107 108 109 110 111 112 113 114 115 116 117 118 119 120 121 122 123 124 125 126 127 128 129 130 131 132 133 134 135 136 137 138 139 140 141 142 143 144 145 146 147 148 149 150 151 152 153 154 155 156 157 158 159 160 161 162 163 164 165 166 167 168 169 170 171 172 173 174 175 176 177 178 179 180 181 182 183 184 185 186 187 188 189  191
1 2 3 4 5 6 7 8 9 10 11 12 13 14 15 16 17 18 19 20 21 22 23 24 25 26 27 28 29 30 31 32 33 34 35 36 37 38 39 40 41 42 43 44 45 46 47 48 49 50 51 52 53 54 55 56 57 58 59 60 61 62 63 64 65 66 67 68 69 70 71 72 73 74 75 76 77 78 79 80 81 82 83 84 85 86 87 88 89 90 91 92 93 94 95 96 97 98 99 100 101 102 103 104 105 106 107 108 109 110 111 112 113 114 115 116 117 118 119 120 121 122 123 124 125 126 127 128 129 130 131 132 133 134 135 136 137 138 139 140 141 142 143 144 145 146 147 148 149 150 151 152 153 154 155 156 157 158 159 160 161 162 163 164 165 166 167 168 169 170 171 172 173 174 175 176 177 178 179 180 181 182 183 184 185 186 187 188 189 190
$end

$molecule
read
$end

--------------------------------------------------------------

   21   -2202.1900002270      9.44E-09 Convergence criterion met
 Total energy in the final basis set = -2202.19000023
   41   -2202.1900563279      7.78E-09 Convergence criterion met
 Total energy in the final basis set = -2202.19005633
   17   -2202.2669385173      7.59E-09 Convergence criterion met
 Total energy in the final basis set = -2202.26693852
   13   -2202.2671114506      4.78E-09 Convergence criterion met
 Total energy in the final basis set = -2202.26711145
   13   -2202.2729260373      5.44E-09 Convergence criterion met
 Total energy in the final basis set = -2202.27292604
   13   -2202.2780675864      5.72E-09 Convergence criterion met
 Total energy in the final basis set = -2202.27806759
   12   -2202.2780089343      9.88E-09 Convergence criterion met
 Total energy in the final basis set = -2202.27800893
   12   -2202.2779854636      9.95E-09 Convergence criterion met
 Total energy in the final basis set = -2202.27798546
   12   -2202.2781716602      9.79E-09 Convergence criterion met
 Total energy in the final basis set = -2202.27817166
   12   -2202.2782179988      9.85E-09 Convergence criterion met
 Total energy in the final basis set = -2202.27821800

                    Orbital Energies (a.u.)
 --------------------------------------------------------------

 Alpha MOs
 -- Occupied --
-19.526 -19.526 -10.503 -10.503 -10.484 -10.483 -10.465 -10.465
-10.464 -10.464 -10.464 -10.464 -10.463 -10.463 -10.463 -10.462
-10.462 -10.462 -10.461 -10.460 -10.460 -10.460 -10.460 -10.460
-10.458 -10.457 -10.457 -10.457 -10.455 -10.454 -10.454 -10.453
-10.453 -10.452 -10.452 -10.451 -10.447 -10.447 -10.435 -10.435
-10.435 -10.434 -10.434 -10.434 -10.434 -10.433 -10.431 -10.431
-10.426 -10.425 -10.421 -10.419 -10.418 -10.416  -6.949  -6.949
 -1.182  -1.182  -1.017  -1.016  -0.963  -0.959  -0.956  -0.954
 -0.933  -0.932  -0.909  -0.901  -0.883  -0.883  -0.861  -0.855
 -0.854  -0.850  -0.846  -0.845  -0.822  -0.817  -0.816  -0.813
 -0.812  -0.805  -0.775  -0.773  -0.764  -0.763  -0.734  -0.728
 -0.726  -0.720  -0.709  -0.708  -0.688  -0.681  -0.679  -0.665
 -0.658  -0.647  -0.647  -0.645  -0.637  -0.637  -0.594  -0.593
 -0.590  -0.587  -0.584  -0.583  -0.582  -0.574  -0.573  -0.561
 -0.561  -0.544  -0.542  -0.536  -0.533  -0.532  -0.527  -0.522
 -0.513  -0.507  -0.502  -0.499  -0.497  -0.496  -0.495  -0.493
 -0.492  -0.489  -0.485  -0.485  -0.484  -0.480  -0.477  -0.473
 -0.473  -0.472  -0.468  -0.466  -0.464  -0.463  -0.461  -0.453
 -0.448  -0.444  -0.440  -0.438  -0.435  -0.428  -0.427  -0.425
 -0.423  -0.422  -0.419  -0.415  -0.413  -0.410  -0.406  -0.405
 -0.397  -0.395  -0.395  -0.393  -0.391  -0.390  -0.385  -0.384
 -0.379  -0.373  -0.368  -0.366  -0.363  -0.357  -0.355  -0.352
 -0.341  -0.339  -0.319  -0.314  -0.296  -0.295  -0.282  -0.277
 -0.277  -0.262  -0.258  -0.256  -0.252  -0.250

 Beta MOs
 -- Occupied --
-19.526 -19.526 -10.503 -10.503 -10.484 -10.483 -10.465 -10.465
-10.464 -10.464 -10.464 -10.464 -10.463 -10.463 -10.463 -10.462
-10.462 -10.462 -10.461 -10.460 -10.460 -10.460 -10.460 -10.460
-10.458 -10.457 -10.457 -10.457 -10.455 -10.454 -10.454 -10.453
-10.453 -10.452 -10.452 -10.451 -10.447 -10.447 -10.435 -10.435
-10.435 -10.434 -10.434 -10.434 -10.434 -10.433 -10.431 -10.431
-10.426 -10.425 -10.421 -10.419 -10.418 -10.416  -6.949  -6.949
 -1.182  -1.182  -1.017  -1.016  -0.963  -0.959  -0.956  -0.954
 -0.933  -0.932  -0.909  -0.901  -0.883  -0.883  -0.861  -0.855
 -0.854  -0.850  -0.846  -0.845  -0.822  -0.817  -0.816  -0.813
 -0.812  -0.805  -0.775  -0.773  -0.764  -0.763  -0.734  -0.728
 -0.726  -0.720  -0.709  -0.708  -0.688  -0.681  -0.679  -0.665
 -0.658  -0.647  -0.647  -0.645  -0.637  -0.637  -0.594  -0.593
 -0.590  -0.587  -0.584  -0.583  -0.582  -0.574  -0.573  -0.561
 -0.561  -0.544  -0.542  -0.536  -0.533  -0.532  -0.527  -0.522
 -0.513  -0.507  -0.502  -0.499  -0.497  -0.496  -0.495  -0.493
 -0.492  -0.489  -0.485  -0.485  -0.484  -0.480  -0.477  -0.473
 -0.473  -0.472  -0.468  -0.466  -0.464  -0.463  -0.461  -0.453
 -0.448  -0.444  -0.440  -0.438  -0.435  -0.428  -0.427  -0.425
 -0.423  -0.422  -0.419  -0.415  -0.413  -0.410  -0.406  -0.405
 -0.397  -0.395  -0.395  -0.393  -0.391  -0.390  -0.385  -0.384
 -0.379  -0.373  -0.368  -0.366  -0.363  -0.357  -0.355  -0.352
 -0.341  -0.339  -0.319  -0.314  -0.296  -0.295  -0.282  -0.277
 -0.277  -0.262  -0.258  -0.256  -0.252  -0.250

          Ground-State Mulliken Net Atomic Charges

     Atom                 Charge (a.u.)    Spin (a.u.)
  --------------------------------------------------------
      1 C                    -0.151866      -0.000000
      2 C                    -0.403284      -0.000000
      3 H                     0.247981       0.000000
      4 C                     0.098428       0.000000
      5 C                     0.074202       0.000000
      6 C                    -0.395694      -0.000000
      7 H                     0.247364       0.000000
      8 C                    -0.151516      -0.000000
      9 C                     0.183360      -0.000000
     10 C                    -0.395985       0.000000
     11 H                     0.246081      -0.000000
     12 C                    -0.065762       0.000000
     13 C                     0.229205      -0.000000
     14 C                     0.182155      -0.000000
     15 C                    -0.386800       0.000000
     16 H                     0.246049      -0.000000
     17 C                    -0.225837      -0.000000
     18 H                     0.250676       0.000000
     19 C                    -0.348338       0.000000
     20 H                     0.247084      -0.000000
     21 C                    -0.344147       0.000000
     22 H                     0.246669      -0.000000
     23 C                    -0.228793      -0.000000
     24 H                     0.251075       0.000000
     25 B                     0.678611      -0.000000
     26 C                    -0.157213      -0.000000
     27 C                    -0.385698      -0.000000
     28 H                     0.243514       0.000000
     29 C                     0.073628       0.000000
     30 C                     0.096329       0.000000
     31 C                    -0.393131      -0.000000
     32 H                     0.244502       0.000000
     33 C                    -0.155762      -0.000000
     34 C                     0.184017      -0.000000
     35 C                    -0.396008       0.000000
     36 H                     0.245910      -0.000000
     37 C                    -0.066131       0.000000
     38 C                     0.227423      -0.000000
     39 C                     0.182643      -0.000000
     40 C                    -0.387143       0.000000
     41 H                     0.245326      -0.000000
     42 C                    -0.225870      -0.000000
     43 H                     0.250391       0.000000
     44 C                    -0.347797       0.000000
     45 H                     0.247025      -0.000000
     46 C                    -0.343464       0.000000
     47 H                     0.246631      -0.000000
     48 C                    -0.228519      -0.000000
     49 H                     0.250815       0.000000
     50 B                     0.675178      -0.000000
     51 C                    -0.225074      -0.000000
     52 C                     0.049267       0.000000
     53 C                    -0.404553      -0.000000
     54 H                     0.236783       0.000000
     55 C                     0.393050       0.000000
     56 O                    -0.466528       0.000000
     57 C                    -0.439414      -0.000000
     58 H                     0.246846       0.000000
     59 C                     0.073789       0.000000
     60 C                    -0.424375      -0.000000
     61 H                     0.251257      -0.000000
     62 H                     0.216628       0.000000
     63 H                     0.216671       0.000000
     64 C                    -0.771814      -0.000000
     65 H                     0.250148      -0.000000
     66 H                     0.248783       0.000000
     67 H                     0.249676       0.000000
     68 C                    -0.549310      -0.000000
     69 H                     0.253449       0.000000
     70 H                     0.237062       0.000000
     71 C                    -0.651086      -0.000000
     72 H                     0.235550       0.000000
     73 H                     0.226515       0.000000
     74 H                     0.218610      -0.000000
     75 C                    -0.221110       0.000000
     76 C                     0.070446       0.000000
     77 C                    -0.446952      -0.000000
     78 H                     0.246757      -0.000000
     79 C                     0.392254       0.000000
     80 O                    -0.466787       0.000000
     81 C                    -0.403108      -0.000000
     82 H                     0.236127      -0.000000
     83 C                     0.057990      -0.000000
     84 C                    -0.424097      -0.000000
     85 H                     0.250835      -0.000000
     86 H                     0.216580       0.000000
     87 H                     0.216528       0.000000
     88 C                    -0.771066      -0.000000
     89 H                     0.249227      -0.000000
     90 H                     0.248910       0.000000
     91 H                     0.248185       0.000000
     92 C                    -0.554815      -0.000000
     93 H                     0.255429       0.000000
     94 H                     0.238264       0.000000
     95 C                    -0.654111      -0.000000
     96 H                     0.240632       0.000000
     97 H                     0.225215      -0.000000
     98 H                     0.219221      -0.000000
  --------------------------------------------------------
  Sum of atomic charges =    -0.000000

                    Cartesian Multipole Moments
 -----------------------------------------------------------------
    Charge (ESU x 10^10)
                -0.0000
    Dipole Moment (Debye)
         X      -0.2895      Y      -0.1354      Z      -0.3183
       Tot       0.4511
    Quadrupole Moments (Debye-Ang)
        XX    -269.1981     XY      20.7610     YY    -321.7718
        XZ      -1.9994     YZ      11.5287     ZZ    -263.3064

             Standard Nuclear Orientation (Angstroms)
    I     Atom           X                Y                Z
 ----------------------------------------------------------------
    1      C       0.1028611021    -0.0820253083     0.0959536789
    2      C       0.1210201049    -0.1308621613     1.4958288477
    3      H       1.0693904122    -0.1193390475     2.0222323618
    4      C      -1.0682553991    -0.1893320981     2.2043486871
    5      C      -2.2969278213    -0.1835066609     1.5064771715
    6      C      -2.3270321071    -0.1214111977     0.1266417182
    7      H      -3.2762330245    -0.1094168662    -0.3983835868
    8      C      -1.1339631101    -0.0765696684    -0.5947818020
    9      C      -1.3713260128    -0.2548009374     3.6384982121
   10      C      -0.6380776100    -0.2888762413     4.7952065007
   11      H       0.4445877116    -0.2676294316     4.7885177281
   12      C      -2.7766430110    -0.2869817019     3.7414355455
   13      C      -3.4840890278    -0.3511031270     4.9362128088
   14      C      -3.3856503865    -0.2456848120     2.4745431975
   15      C      -4.7537492455    -0.2689910727     2.3898984676
   16      H      -5.2702758241    -0.2388464274     1.4380506218
   17      C      -1.3286428261    -0.3542395817     6.0305609030
   18      H      -0.7471230405    -0.3810798222     6.9426966587
   19      C      -2.7019517230    -0.3851254931     6.1154943402
   20      H      -3.1824496720    -0.4352714721     7.0848455580
   21      C      -4.8971518536    -0.3740872287     4.8281126492
   22      H      -5.5075198484    -0.4234238721     5.7215676630
   23      C      -5.4989769518    -0.3337035880     3.5907936282
   24      H      -6.5794799945    -0.3519198613     3.5294692478
   25      B      -1.1780784532    -0.0087312551    -2.1483577030
   26      C       0.1558543075    -0.0430843018    -2.9465713580
   27      C       0.1298924311    -0.0538316257    -4.3411741555
   28      H      -0.8178588200    -0.0232331096    -4.8671235795
   29      C       1.3131493244    -0.1088706279    -5.0509398700
   30      C       2.5567966858    -0.1428269529    -4.3818164809
   31      C       2.5915005476    -0.1104590595    -2.9980862730
   32      H       3.5411283648    -0.1219976927    -2.4751166572
   33      C       1.3977805763    -0.0626976321    -2.2681709102
   34      C       3.6113315000    -0.2047719035    -5.4013165158
   35      C       4.9806077096    -0.2626668790    -5.3965011810
   36      H       5.5507196243    -0.2684349149    -4.4758763430
   37      C       2.9517411195    -0.2040230299    -6.6466611581
   38      C       3.5900972573    -0.2577864227    -7.8819758357
   39      C       1.5553504110    -0.1456685642    -6.4909006151
   40      C       0.7616251202    -0.1387107086    -7.6095777734
   41      H      -0.3189082477    -0.0946101154    -7.5463519067
   42      C       5.6609499225    -0.3175975086    -6.6382459164
   43      H       6.7420870088    -0.3633375691    -6.6299939768
   44      C       5.0036927181    -0.3160955339    -7.8472351044
   45      H       5.5683226307    -0.3605425522    -8.7706211571
   46      C       2.7520967509    -0.2496553973    -9.0248324287
   47      H       3.1877378617    -0.2893306792   -10.0158720386
   48      C       1.3850546720    -0.1913137008    -8.8791747781
   49      H       0.7604887732    -0.1855535884    -9.7632714341
   50      B       1.4321964594    -0.0127659912    -0.7125486920
   51      C      -2.5500944832     0.1191799093    -2.9058842824
   52      C      -3.1394007787     1.3876419541    -3.0598419422
   53      C      -4.3379645550     1.5262247329    -3.7373581411
   54      H      -4.7865041830     2.5056026623    -3.8593142755
   55      C      -4.9829279434     0.4136707526    -4.2773095426
   56      O      -6.1462850781     0.6521568258    -4.9191340329
   57      C      -4.4088501366    -0.8398460476    -4.1354513094
   58      H      -4.8805206616    -1.7233193256    -4.5491483369
   59      C      -3.1982234188    -0.9867764777    -3.4548227943
   60      C      -6.8342685573    -0.4381498609    -5.4852458962
   61      H      -7.7341719489    -0.0341455686    -5.9438548235
   62      H      -7.1275081248    -1.1769354714    -4.7333635450
   63      H      -6.2457321546    -0.9422724603    -6.2576573533
   64      C      -2.4606534764     2.6036403817    -2.4941533109
   65      H      -3.0023973018     3.5172156329    -2.7366173635
   66      H      -1.4456039448     2.7116661226    -2.8836116055
   67      H      -2.3815181909     2.5467114192    -1.4065511569
   68      C      -2.6461572675    -2.3797510273    -3.2895856498
   69      H      -1.5647902096    -2.3483952472    -3.1304829014
   70      H      -2.7929587870    -2.9447134589    -4.2142093094
   71      C      -3.3048845440    -3.1300203871    -2.1336005754
   72      H      -3.1399751703    -2.6163312947    -1.1860469461
   73      H      -2.8998202681    -4.1382581137    -2.0406385995
   74      H      -4.3822041827    -3.2142637887    -2.2821726956
   75      C       2.8067504274     0.1099354115     0.0287844484
   76      C       3.4146514081     1.3513211387     0.2070898069
   77      C       4.6418015484     1.4530625529     0.8641173633
   78      H       5.0866578926     2.4335022143     0.9827746170
   79      C       5.2724834630     0.3124497730     1.3410718296
   80      O       6.4595449232     0.3082926975     1.9830337403
   81      C       4.6734174114    -0.9333682906     1.1540226879
   82      H       5.1792340465    -1.8208578715     1.5174429742
   83      C       3.4544776781    -1.0409256387     0.5072551980
   84      C       7.1062856757     1.5391532629     2.2027273511
   85      H       8.0257053568     1.3164163028     2.7396211577
   86      H       6.5024200840     2.2192768068     2.8109297822
   87      H       7.3626789751     2.0436000133     1.2662765106
   88      C       2.8303052388    -2.3927339176     0.2938051879
   89      H       3.4599213708    -3.1946901845     0.6778201334
   90      H       1.8595989801    -2.4714860413     0.7887025539
   91      H       2.6599386883    -2.5881549110    -0.7678099120
   92      C       2.7393004998     2.6127488918    -0.2692671466
   93      H       2.1443413023     2.4068562088    -1.1638579873
   94      H       3.4955037831     3.3396211989    -0.5770928166
   95      C       1.8431454577     3.2391322127     0.7968166277
   96      H       1.0438923654     2.5591347821     1.0925418688
   97      H       1.3796366802     4.1537576184     0.4251351054
   98      H       2.4126840118     3.4915307956     1.6920638135
 ----------------------------------------------------------------
