 Q-Chem 5.0, Q-Chem, Inc., Pleasanton, CA (2017)
 Q-Chem 5.0.1 for Intel X86 EM64T Linux

User input:
--------------------------------------------------------------
$rem
threads 8
jobtype opt
method PBEh-3c
basis def2-mSVP
mem_static      1024
mem_total       8000
sym_ignore      true
unrestricted true
scf_algorithm	diis
scf_max_cycles	2500
solvent_method  pcm
geom_opt_tol_energy 25
geom_opt_tol_gradient 75
$end

$pcm
theory  iefpcm
$end

$solvent
dielectric      8.93
$end

$molecule
read uincoords.mol
$end
--------------------------------------------------------------

   20   -2202.1968418906      1.00E-08 Convergence criterion met
 Total energy in the final basis set = -2202.19684189
   19   -2202.1987386023      7.40E-09 Convergence criterion met
 Total energy in the final basis set = -2202.19873860
   19   -2202.1989371413      7.26E-09 Convergence criterion met
 Total energy in the final basis set = -2202.19893714
   17   -2202.1992686128      9.18E-09 Convergence criterion met
 Total energy in the final basis set = -2202.19926861
   17   -2202.1993724284      9.14E-09 Convergence criterion met
 Total energy in the final basis set = -2202.19937243
   17   -2202.1994624867      9.53E-09 Convergence criterion met
 Total energy in the final basis set = -2202.19946249
   18   -2202.1994441945      9.49E-09 Convergence criterion met
 Total energy in the final basis set = -2202.19944419
   18   -2202.1994423050      9.65E-09 Convergence criterion met
 Total energy in the final basis set = -2202.19944230
   18   -2202.1994468446      9.60E-09 Convergence criterion met
 Total energy in the final basis set = -2202.19944684
   18   -2202.1994473759      9.92E-09 Convergence criterion met
 Total energy in the final basis set = -2202.19944738
   19   -2202.1994483306      7.29E-09 Convergence criterion met
 Total energy in the final basis set = -2202.19944833

             Standard Nuclear Orientation (Angstroms)
    I     Atom           X                Y                Z
 ----------------------------------------------------------------
    1      C       0.0309557908    -0.3988567972     0.0693052097
    2      C       0.0347899763    -0.3551197684     1.4856889468
    3      H       0.9775239629    -0.3658440147     2.0256012558
    4      C      -1.1437173926    -0.2976321208     2.1890215728
    5      C      -2.3848387863    -0.2754306240     1.4845509761
    6      C      -2.4101126365    -0.3194960325     0.1121073742
    7      H      -3.3606959180    -0.3057141342    -0.4119723930
    8      C      -1.2171887237    -0.3863251245    -0.6304711673
    9      C      -3.4657206787    -0.2100939163     2.4577147822
   10      C      -4.8365160071    -0.1652137436     2.3818550262
   11      H      -5.3568733326    -0.1729344806     1.4316862011
   12      C      -2.8546481685    -0.1963372060     3.7271845104
   13      C      -3.5601057045    -0.1403094761     4.9262358636
   14      C      -1.4486343849    -0.2477640350     3.6214877656
   15      C      -0.7152308504    -0.2424344232     4.7811359396
   16      H       0.3670726539    -0.2805355883     4.7734763293
   17      C      -1.4032940793    -0.1859338321     6.0171743475
   18      H      -0.8207667301    -0.1823923662     6.9295959795
   19      C      -2.7766906826    -0.1360480948     6.1053738589
   20      H      -3.2561273455    -0.0940768560     7.0757967147
   21      C      -5.5764694547    -0.1079037796     3.5853065465
   22      H      -6.6571168634    -0.0728861158     3.5264119739
   23      C      -4.9737115246    -0.0952864269     4.8235222674
   24      H      -5.5811451111    -0.0510040505     5.7193229473
   25      B       1.3290524766    -0.4628030568    -0.7354874087
   26      C       1.3129995532    -0.5555305870    -2.2615181945
   27      C       2.5111666037    -0.6531175371    -3.0109259120
   28      H       3.4693902705    -0.6712834074    -2.4995151660
   29      C       2.4751819833    -0.7256291563    -4.3823648018
   30      C       1.2174387521    -0.6972758342    -5.0558784286
   31      C       0.0450310741    -0.6066228202    -4.3482996197
   32      H      -0.9034336930    -0.5884867949    -4.8754295989
   33      C       0.0563290785    -0.5393770870    -2.9440016070
   34      C       1.4592110057    -0.7799285030    -6.4900798314
   35      C       0.6634166399    -0.7952937443    -7.6100645687
   36      H      -0.4163283963    -0.7369838687    -7.5445979074
   37      C       2.8563812045    -0.8588018343    -6.6505474995
   38      C       3.4899197921    -0.9540057157    -7.8883177144
   39      C       3.5213581660    -0.8307637497    -5.4066167511
   40      C       4.8922974552    -0.9029807293    -5.4104567456
   41      H       5.4683266878    -0.8882275385    -4.4935318129
   42      C       1.2822932039    -0.8905810668    -8.8783863035
   43      H       0.6542067921    -0.9023593732    -9.7604086134
   44      C       2.6485129487    -0.9684486613    -9.0294421385
   45      H       3.0806499075    -1.0402091457   -10.0202978691
   46      C       5.5652338202    -0.9999849669    -6.6525796789
   47      H       6.6463256174    -1.0565016033    -6.6481471361
   48      C       4.9030578142    -1.0259675026    -7.8594589930
   49      H       5.4621638229    -1.1020083456    -8.7842910732
   50      B      -1.2682962778    -0.4493921336    -2.1668676573
   51      C       2.7126359186    -0.4636849239     0.0143549045
   52      C       3.4601739362     0.7499843397     0.2016017340
   53      C       4.6271819795     0.7388653556     0.9145733786
   54      H       5.1793250673     1.6587678586     1.0558705225
   55      C       5.1027499440    -0.4790132002     1.4523684383
   56      O       6.1909528373    -0.5895856181     2.1555398062
   57      C       4.3986170720    -1.6964125048     1.2334778250
   58      H       4.8111567393    -2.6094471529     1.6451807008
   59      C       3.2373430005    -1.6986434671     0.5220414070
   60      C       6.9982439793     0.5525502629     2.4614402706
   61      H       7.8174658267     0.1795013823     3.0666622578
   62      H       7.3901379438     1.0022208385     1.5496552985
   63      H       6.4271130616     1.2873403500     3.0278694719
   64      C       2.4890334519    -2.9681586843     0.2708192568
   65      H       3.0277917648    -3.8329310664     0.6540363990
   66      H       2.3190617057    -3.1112776715    -0.7975951694
   67      H       1.5057220807    -2.9387234230     0.7428945949
   68      C       2.9413570736     2.0404899049    -0.3566682806
   69      H       2.4395130447     1.8562592074    -1.3081146963
   70      H       3.7824815949     2.7046387040    -0.5640555949
   71      C       1.9714810306     2.7330588637     0.6026546755
   72      H       1.0900572730     2.1213692922     0.7905328423
   73      H       1.6354908433     3.6768421726     0.1740463086
   74      H       2.4486143297     2.9464445007     1.5594815533
   75      C      -2.6480928847    -0.4013639244    -2.9450611690
   76      C      -3.2888328474    -1.5600904827    -3.3883004256
   77      C      -4.4936035102    -1.4961481076    -4.0945278015
   78      H      -4.9526762510    -2.4221546501    -4.4209192882
   79      C      -5.0767983727    -0.2701063722    -4.3720929381
   80      O      -6.2370700596    -0.1076464676    -5.0477774524
   81      C      -4.4450569180     0.8960886371    -3.9423161635
   82      H      -4.8981939861     1.8550817086    -4.1683347716
   83      C      -3.2517382979     0.8359721722    -3.2407604712
   84      C      -6.9187656923    -1.2581105239    -5.4913827159
   85      H      -7.8225960888    -0.9126786528    -5.9888278888
   86      H      -7.2045053071    -1.9136879977    -4.6634513361
   87      H      -6.3282333571    -1.8389959640    -6.2061854401
   88      C      -2.5929009297     2.1141428862    -2.8027551310
   89      H      -3.1537627164     2.9899397098    -3.1291001781
   90      H      -1.5815609777     2.1966835561    -3.2068221458
   91      H      -2.5023408903     2.1619018307    -1.7159280582
   92      C      -2.7320349228    -2.9279003831    -3.0834143962
   93      H      -1.6507937744    -2.8708112088    -2.9388163466
   94      H      -2.8913815497    -3.5881628450    -3.9405105676
   95      C      -3.3753379769    -3.5486974381    -1.8453379507
   96      H      -3.2029157398    -2.9298766187    -0.9641896584
   97      H      -4.4539729510    -3.6533501119    -1.9719776892
   98      H      -2.9649290409    -4.5392776484    -1.6445661717
 ----------------------------------------------------------------

   19   -2202.1994487090      7.29E-09 Convergence criterion met
 Total energy in the final basis set = -2202.19944871
 Final energy is   -2202.19944870898
 **  OPTIMIZATION CONVERGED  **

                    Orbital Energies (a.u.)
 --------------------------------------------------------------

 Alpha MOs
 -- Occupied --
-19.604 -19.522 -10.582 -10.513 -10.503 -10.497 -10.496 -10.493
-10.485 -10.485 -10.479 -10.458 -10.458 -10.456 -10.456 -10.455
-10.455 -10.453 -10.452 -10.452 -10.452 -10.452 -10.452 -10.452
-10.452 -10.451 -10.451 -10.450 -10.450 -10.450 -10.449 -10.449
-10.445 -10.445 -10.444 -10.444 -10.444 -10.442 -10.441 -10.441
-10.440 -10.438 -10.437 -10.429 -10.427 -10.426 -10.425 -10.422
-10.421 -10.418 -10.415 -10.413 -10.413 -10.406  -6.914  -6.907
 -1.262  -1.176  -1.006  -1.006  -1.005  -0.950  -0.947  -0.946
 -0.925  -0.925  -0.922  -0.904  -0.893  -0.887  -0.876  -0.851
 -0.849  -0.843  -0.843  -0.838  -0.838  -0.819  -0.810  -0.808
 -0.801  -0.801  -0.799  -0.791  -0.766  -0.756  -0.739  -0.724
 -0.720  -0.717  -0.710  -0.701  -0.696  -0.679  -0.672  -0.669
 -0.669  -0.654  -0.645  -0.635  -0.634  -0.629  -0.627  -0.607
 -0.596  -0.592  -0.584  -0.583  -0.579  -0.577  -0.573  -0.565
 -0.565  -0.558  -0.553  -0.533  -0.529  -0.528  -0.527  -0.521
 -0.516  -0.515  -0.509  -0.506  -0.502  -0.497  -0.495  -0.492
 -0.491  -0.489  -0.482  -0.481  -0.479  -0.479  -0.478  -0.477
 -0.472  -0.470  -0.469  -0.466  -0.463  -0.461  -0.457  -0.456
 -0.455  -0.454  -0.446  -0.445  -0.437  -0.435  -0.432  -0.429
 -0.425  -0.420  -0.418  -0.417  -0.416  -0.408  -0.405  -0.404
 -0.401  -0.400  -0.398  -0.390  -0.390  -0.389  -0.386  -0.384
 -0.379  -0.378  -0.366  -0.365  -0.362  -0.357  -0.353  -0.341
 -0.333  -0.329  -0.326  -0.315  -0.308  -0.302  -0.292  -0.290
 -0.278  -0.270  -0.260  -0.249  -0.247  -0.243  -0.158

 Beta MOs
 -- Occupied --
-19.598 -19.522 -10.579 -10.513 -10.502 -10.498 -10.496 -10.486
-10.484 -10.483 -10.479 -10.459 -10.459 -10.457 -10.456 -10.454
-10.454 -10.453 -10.453 -10.452 -10.452 -10.451 -10.451 -10.451
-10.451 -10.451 -10.451 -10.450 -10.450 -10.450 -10.449 -10.448
-10.444 -10.444 -10.444 -10.443 -10.443 -10.442 -10.441 -10.441
-10.440 -10.438 -10.438 -10.429 -10.427 -10.426 -10.425 -10.421
-10.421 -10.418 -10.416 -10.412 -10.412 -10.407  -6.911  -6.904
 -1.250  -1.176  -1.006  -1.005  -0.996  -0.949  -0.946  -0.945
 -0.924  -0.924  -0.920  -0.896  -0.889  -0.886  -0.875  -0.849
 -0.848  -0.842  -0.841  -0.837  -0.837  -0.811  -0.810  -0.805
 -0.800  -0.799  -0.793  -0.789  -0.766  -0.756  -0.734  -0.722
 -0.718  -0.716  -0.709  -0.701  -0.691  -0.678  -0.670  -0.668
 -0.665  -0.652  -0.644  -0.634  -0.634  -0.628  -0.624  -0.603
 -0.591  -0.583  -0.582  -0.578  -0.576  -0.572  -0.568  -0.564
 -0.563  -0.555  -0.552  -0.531  -0.528  -0.528  -0.524  -0.518
 -0.516  -0.515  -0.507  -0.504  -0.497  -0.494  -0.492  -0.491
 -0.490  -0.488  -0.482  -0.480  -0.478  -0.478  -0.476  -0.476
 -0.472  -0.468  -0.466  -0.464  -0.461  -0.459  -0.455  -0.455
 -0.452  -0.448  -0.444  -0.442  -0.437  -0.432  -0.430  -0.428
 -0.422  -0.418  -0.416  -0.415  -0.413  -0.408  -0.404  -0.400
 -0.399  -0.396  -0.388  -0.387  -0.387  -0.385  -0.383  -0.380
 -0.378  -0.372  -0.362  -0.361  -0.356  -0.353  -0.351  -0.339
 -0.327  -0.324  -0.320  -0.308  -0.304  -0.288  -0.288  -0.270
 -0.267  -0.252  -0.246  -0.243  -0.240

          Ground-State Mulliken Net Atomic Charges

     Atom                 Charge (a.u.)    Spin (a.u.)
  --------------------------------------------------------
      1 C                    -0.136992       0.016086
      2 C                    -0.416962       0.004320
      3 H                     0.219174      -0.002683
      4 C                     0.076092       0.024162
      5 C                     0.057867       0.103275
      6 C                    -0.410575      -0.062553
      7 H                     0.232789       0.002531
      8 C                    -0.138891       0.069571
      9 C                     0.174765      -0.060403
     10 C                    -0.404263       0.087818
     11 H                     0.244134      -0.005110
     12 C                    -0.077873       0.023090
     13 C                     0.221162      -0.036912
     14 C                     0.177007      -0.040006
     15 C                    -0.411960       0.062861
     16 H                     0.237855      -0.003668
     17 C                    -0.231068      -0.042812
     18 H                     0.248193       0.002110
     19 C                    -0.362491       0.058302
     20 H                     0.246235      -0.003352
     21 C                    -0.232591      -0.053925
     22 H                     0.249854       0.002576
     23 C                    -0.360334       0.079861
     24 H                     0.245185      -0.004674
     25 B                     0.538647       0.348074
     26 C                    -0.138570       0.017016
     27 C                    -0.412427       0.004788
     28 H                     0.216324      -0.002691
     29 C                     0.076305       0.023574
     30 C                     0.055740       0.100040
     31 C                    -0.402152      -0.060206
     32 H                     0.231554       0.002549
     33 C                    -0.148961       0.069166
     34 C                     0.174985      -0.058709
     35 C                    -0.403393       0.085336
     36 H                     0.243990      -0.004966
     37 C                    -0.077430       0.022429
     38 C                     0.219198      -0.035863
     39 C                     0.176891      -0.038957
     40 C                    -0.412708       0.061156
     41 H                     0.238123      -0.003572
     42 C                    -0.232862      -0.052306
     43 H                     0.249929       0.002499
     44 C                    -0.358948       0.077237
     45 H                     0.245408      -0.004517
     46 C                    -0.230865      -0.041600
     47 H                     0.248277       0.002050
     48 C                    -0.361706       0.056501
     49 H                     0.246554      -0.003245
     50 B                     0.544157       0.271984
     51 C                    -0.127867       0.519654
     52 C                     0.104542      -0.022493
     53 C                    -0.411820       0.068054
     54 H                     0.301555      -0.005042
     55 C                     0.470560       0.208648
     56 O                    -0.386996       0.153826
     57 C                    -0.365688       0.131521
     58 H                     0.293653      -0.008004
     59 C                     0.070263      -0.101457
     60 C                    -0.452788      -0.014863
     61 H                     0.287864       0.000014
     62 H                     0.264060       0.009933
     63 H                     0.263818       0.009704
     64 C                    -0.760360       0.006930
     65 H                     0.262477       0.001015
     66 H                     0.272717      -0.002438
     67 H                     0.273488      -0.001823
     68 C                    -0.550467       0.001526
     69 H                     0.281926      -0.001345
     70 H                     0.258090       0.000742
     71 C                    -0.666698       0.004602
     72 H                     0.259270      -0.000922
     73 H                     0.243720       0.000822
     74 H                     0.224675      -0.000351
     75 C                    -0.197045      -0.025729
     76 C                     0.051654       0.003929
     77 C                    -0.442486      -0.001265
     78 H                     0.247596       0.000323
     79 C                     0.381444       0.001201
     80 O                    -0.473111       0.000170
     81 C                    -0.409461      -0.001106
     82 H                     0.233136       0.000365
     83 C                     0.035936       0.003979
     84 C                    -0.426331      -0.000025
     85 H                     0.250514       0.000005
     86 H                     0.217793       0.000016
     87 H                     0.217740       0.000020
     88 C                    -0.762567       0.000423
     89 H                     0.241979       0.001412
     90 H                     0.244245      -0.000816
     91 H                     0.244868      -0.000562
     92 C                    -0.540029       0.003435
     93 H                     0.252837      -0.002094
     94 H                     0.230428       0.000294
     95 C                    -0.655859      -0.000270
     96 H                     0.235673      -0.000168
     97 H                     0.216655      -0.000037
     98 H                     0.222028       0.000015
  --------------------------------------------------------
  Sum of atomic charges =    -0.000000

                    Cartesian Multipole Moments
 -----------------------------------------------------------------
    Charge (ESU x 10^10)
                -0.0000
    Dipole Moment (Debye)
         X      16.9309      Y       0.6506      Z       9.3325
       Tot      19.3436
    Quadrupole Moments (Debye-Ang)
        XX    -210.6337     XY      17.2723     YY    -318.7848
        XZ      37.7843     YZ       8.5865     ZZ    -315.1502

 Total job time:  27949.33s(wall), 82015.15s(cpu)
        *  Thank you very much for using Q-Chem.  Have a nice day.  *
