 Q-Chem 5.0, Q-Chem, Inc., Pleasanton, CA (2017)
 Q-Chem 5.0.1 for Intel X86 EM64T Linux

User input:
--------------------------------------------------------------
$rem
threads 8
jobtype opt
method PBEh-3c
basis def2-mSVP
mem_static      1024
mem_total       8000
sym_ignore      true
unrestricted true
scf_algorithm	diis
scf_max_cycles	250
solvent_method  pcm
geom_opt_tol_energy 25
geom_opt_tol_gradient 75
$end

$pcm
theory  iefpcm
$end

$solvent
dielectric      2.38
$end

$molecule
read uincoords.mol
$end
--------------------------------------------------------------

   22   -2202.1768419762      8.17E-09 Convergence criterion met
 Total energy in the final basis set = -2202.17684198
   17   -2202.1784582554      7.79E-09 Convergence criterion met
 Total energy in the final basis set = -2202.17845826
   17   -2202.1786085502      7.62E-09 Convergence criterion met
 Total energy in the final basis set = -2202.17860855
   16   -2202.1788948890      7.24E-09 Convergence criterion met
 Total energy in the final basis set = -2202.17889489
   16   -2202.1789948943      6.67E-09 Convergence criterion met
 Total energy in the final basis set = -2202.17899489
   16   -2202.1791130281      7.41E-09 Convergence criterion met
 Total energy in the final basis set = -2202.17911303
   16   -2202.1790956729      9.49E-09 Convergence criterion met
 Total energy in the final basis set = -2202.17909567
   16   -2202.1790907706      9.37E-09 Convergence criterion met
 Total energy in the final basis set = -2202.17909077
   16   -2202.1791026705      9.45E-09 Convergence criterion met
 Total energy in the final basis set = -2202.17910267
   16   -2202.1791056682      9.34E-09 Convergence criterion met
 Total energy in the final basis set = -2202.17910567
   16   -2202.1791071081      9.56E-09 Convergence criterion met
 Total energy in the final basis set = -2202.17910711
   16   -2202.1791082238      9.83E-09 Convergence criterion met
 Total energy in the final basis set = -2202.17910822

             Standard Nuclear Orientation (Angstroms)
    I     Atom           X                Y                Z
 ----------------------------------------------------------------
    1      C       0.0302566622    -0.4086286392     0.0737379457
    2      C       0.0326760738    -0.3637348057     1.4903651246
    3      H       0.9751903713    -0.3744515038     2.0314426442
    4      C      -1.1456242530    -0.3046227854     2.1922466446
    5      C      -2.3848405198    -0.2814189192     1.4866761281
    6      C      -2.4085586493    -0.3260808060     0.1143441700
    7      H      -3.3573328006    -0.3122634680    -0.4129373593
    8      C      -1.2158739072    -0.3934797052    -0.6262960170
    9      C      -3.4664202864    -0.2130476428     2.4578200405
   10      C      -4.8362146360    -0.1654843730     2.3796364242
   11      H      -5.3540979326    -0.1733691425     1.4282871143
   12      C      -2.8582004738    -0.1985637472     3.7281515149
   13      C      -3.5653353620    -0.1396668152     4.9253312509
   14      C      -1.4526772031    -0.2527791064     3.6244783638
   15      C      -0.7221896234    -0.2476931769     4.7850397546
   16      H       0.3600558266    -0.2883068580     4.7793220700
   17      C      -1.4112748049    -0.1884535033     6.0196466531
   18      H      -0.8307020140    -0.1852642433     6.9333384575
   19      C      -2.7839942519    -0.1355708538     6.1049987944
   20      H      -3.2646481898    -0.0915562143     7.0747190483
   21      C      -5.5781259143    -0.1050023557     3.5810676513
   22      H      -6.6585472990    -0.0677606265     3.5200620596
   23      C      -4.9781580177    -0.0919542796     4.8197298155
   24      H      -5.5875539081    -0.0452637559     5.7140216101
   25      B       1.3247291338    -0.4705380956    -0.7342730309
   26      C       1.3145341654    -0.5600433129    -2.2594246192
   27      C       2.5121436970    -0.6612649820    -3.0096548346
   28      H       3.4707511664    -0.6877269366    -2.4984789794
   29      C       2.4754699118    -0.7283782768    -4.3804077714
   30      C       1.2186025329    -0.6883477896    -5.0526382602
   31      C       0.0469569112    -0.5962413670    -4.3442964416
   32      H      -0.9026929435    -0.5699013900    -4.8686678522
   33      C       0.0590532068    -0.5382982794    -2.9407346384
   34      C       1.4590932017    -0.7662838340    -6.4866616821
   35      C       0.6628949531    -0.7713219589    -7.6054852354
   36      H      -0.4160689071    -0.7041361120    -7.5381265478
   37      C       2.8549518860    -0.8560361061    -6.6490924477
   38      C       3.4863300473    -0.9534921738    -7.8870775585
   39      C       3.5203794949    -0.8382895424    -5.4058117647
   40      C       4.8897326550    -0.9243838389    -5.4114180636
   41      H       5.4664429980    -0.9197254943    -4.4947873159
   42      C       1.2794185465    -0.8678195704    -8.8742603900
   43      H       0.6504155730    -0.8714541326    -9.7556651845
   44      C       2.6439148691    -0.9572746251    -9.0269435842
   45      H       3.0739992356    -1.0300991046   -10.0185718617
   46      C       5.5611889488    -1.0239514410    -6.6534065987
   47      H       6.6416565590    -1.0918604037    -6.6503399721
   48      C       4.8980146584    -1.0393159976    -7.8590554596
   49      H       5.4560622897    -1.1182912231    -8.7842688126
   50      B      -1.2659195012    -0.4521959371    -2.1633640394
   51      C       2.7060974476    -0.4690721377     0.0121524315
   52      C       3.4607423326     0.7445972327     0.1857361819
   53      C       4.6231046089     0.7360625318     0.9084881900
   54      H       5.1771339193     1.6560325897     1.0417056284
   55      C       5.0894668713    -0.4749954766     1.4633575624
   56      O       6.1775181324    -0.5814658960     2.1762423360
   57      C       4.3837793833    -1.6913255574     1.2558348678
   58      H       4.7921988735    -2.5996716282     1.6816582442
   59      C       3.2270844036    -1.7005726879     0.5366236851
   60      C       6.9810185157     0.5610994061     2.4682679156
   61      H       7.7990494609     0.1986367356     3.0821354439
   62      H       7.3802534949     1.0012690396     1.5542535702
   63      H       6.4116479358     1.3063804045     3.0238795492
   64      C       2.4749889340    -2.9680171405     0.2927075333
   65      H       3.0098274909    -3.8340321192     0.6790575974
   66      H       2.3010179510    -3.1127205115    -0.7748167255
   67      H       1.4910526539    -2.9306030271     0.7630172814
   68      C       2.9503276970     2.0268681909    -0.3957635306
   69      H       2.4693766861     1.8297500091    -1.3552660816
   70      H       3.7932632355     2.6928606877    -0.5917190106
   71      C       1.9539346119     2.7236595198     0.5341173923
   72      H       1.0690432338     2.1119457953     0.7022505009
   73      H       1.6267928575     3.6622243753     0.0881256838
   74      H       2.4038991138     2.9474371902     1.5018022537
   75      C      -2.6448800489    -0.4022719898    -2.9400715057
   76      C      -3.2785793422    -1.5580888410    -3.3992148402
   77      C      -4.4858904222    -1.4900042028    -4.0992288237
   78      H      -4.9398245439    -2.4140607674    -4.4378391725
   79      C      -5.0777227316    -0.2639992891    -4.3555128817
   80      O      -6.2423250709    -0.0984297626    -5.0240804719
   81      C      -4.4514266561     0.8988003811    -3.9121187894
   82      H      -4.9121263642     1.8570016168    -4.1241181141
   83      C      -3.2558688208     0.8355598840    -3.2161958433
   84      C      -6.9158071399    -1.2434057738    -5.4816792618
   85      H      -7.8240515047    -0.8970066635    -5.9709112068
   86      H      -7.1955709678    -1.9149492082    -4.6637542128
   87      H      -6.3252176189    -1.8106573597    -6.2082453671
   88      C      -2.6000669517     2.1100402369    -2.7638161570
   89      H      -3.1630928203     2.9879817138    -3.0806261836
   90      H      -1.5893806431     2.1985836442    -3.1680076398
   91      H      -2.5094809773     2.1461537508    -1.6766419580
   92      C      -2.7109917191    -2.9261603807    -3.1170400563
   93      H      -1.6240421845    -2.8720228156    -3.0227344511
   94      H      -2.9093734666    -3.5865234944    -3.9660700834
   95      C      -3.2990529895    -3.5437389405    -1.8503427747
   96      H      -3.0776778705    -2.9288499527    -0.9777747357
   97      H      -4.3835899313    -3.6377635838    -1.9242080752
   98      H      -2.8882124675    -4.5383778221    -1.6710213055
 ----------------------------------------------------------------

   17   -2202.1791085738      7.33E-09 Convergence criterion met
 Total energy in the final basis set = -2202.17910857
 Final energy is   -2202.17910857377
 **  OPTIMIZATION CONVERGED  **

                    Orbital Energies (a.u.)
 --------------------------------------------------------------

 Alpha MOs
 -- Occupied --
-19.612 -19.514 -10.591 -10.530 -10.512 -10.505 -10.499 -10.494
-10.493 -10.487 -10.476 -10.455 -10.451 -10.451 -10.450 -10.450
-10.449 -10.449 -10.448 -10.448 -10.447 -10.447 -10.446 -10.446
-10.445 -10.445 -10.445 -10.445 -10.445 -10.444 -10.444 -10.442
-10.442 -10.439 -10.439 -10.436 -10.436 -10.435 -10.434 -10.434
-10.433 -10.432 -10.430 -10.429 -10.418 -10.418 -10.416 -10.416
-10.415 -10.409 -10.408 -10.406 -10.406 -10.397  -6.908  -6.899
 -1.271  -1.169  -1.014  -0.999  -0.999  -0.943  -0.940  -0.937
 -0.930  -0.919  -0.919  -0.911  -0.888  -0.881  -0.867  -0.858
 -0.843  -0.837  -0.836  -0.833  -0.832  -0.825  -0.806  -0.804
 -0.801  -0.796  -0.795  -0.785  -0.760  -0.747  -0.745  -0.718
 -0.715  -0.712  -0.704  -0.703  -0.693  -0.679  -0.674  -0.664
 -0.664  -0.648  -0.639  -0.638  -0.629  -0.628  -0.621  -0.616
 -0.604  -0.598  -0.579  -0.578  -0.574  -0.570  -0.568  -0.562
 -0.559  -0.556  -0.545  -0.538  -0.530  -0.525  -0.523  -0.522
 -0.516  -0.512  -0.510  -0.507  -0.503  -0.500  -0.491  -0.486
 -0.484  -0.482  -0.480  -0.478  -0.476  -0.474  -0.474  -0.470
 -0.469  -0.466  -0.465  -0.465  -0.463  -0.460  -0.455  -0.454
 -0.450  -0.450  -0.447  -0.441  -0.439  -0.430  -0.429  -0.423
 -0.419  -0.417  -0.411  -0.411  -0.409  -0.408  -0.406  -0.401
 -0.400  -0.398  -0.393  -0.383  -0.383  -0.383  -0.381  -0.378
 -0.374  -0.370  -0.360  -0.358  -0.357  -0.350  -0.345  -0.334
 -0.333  -0.328  -0.322  -0.308  -0.305  -0.301  -0.285  -0.283
 -0.270  -0.260  -0.253  -0.242  -0.239  -0.234  -0.152

 Beta MOs
 -- Occupied --
-19.607 -19.514 -10.587 -10.530 -10.511 -10.505 -10.493 -10.492
-10.492 -10.487 -10.476 -10.455 -10.452 -10.452 -10.450 -10.450
-10.449 -10.449 -10.448 -10.448 -10.447 -10.447 -10.446 -10.446
-10.445 -10.445 -10.444 -10.444 -10.444 -10.444 -10.444 -10.442
-10.442 -10.439 -10.439 -10.435 -10.434 -10.434 -10.433 -10.433
-10.432 -10.432 -10.430 -10.430 -10.418 -10.418 -10.416 -10.415
-10.415 -10.409 -10.408 -10.405 -10.404 -10.397  -6.905  -6.897
 -1.260  -1.169  -1.004  -0.999  -0.998  -0.942  -0.939  -0.937
 -0.927  -0.918  -0.918  -0.902  -0.887  -0.880  -0.867  -0.856
 -0.841  -0.836  -0.835  -0.832  -0.831  -0.816  -0.802  -0.802
 -0.799  -0.794  -0.794  -0.783  -0.759  -0.747  -0.740  -0.716
 -0.713  -0.710  -0.703  -0.699  -0.693  -0.676  -0.673  -0.663
 -0.660  -0.646  -0.638  -0.634  -0.628  -0.628  -0.620  -0.611
 -0.593  -0.583  -0.578  -0.577  -0.572  -0.570  -0.567  -0.560
 -0.558  -0.553  -0.544  -0.535  -0.527  -0.523  -0.522  -0.521
 -0.515  -0.511  -0.509  -0.501  -0.500  -0.497  -0.490  -0.485
 -0.483  -0.482  -0.477  -0.475  -0.473  -0.473  -0.470  -0.468
 -0.468  -0.466  -0.463  -0.463  -0.459  -0.457  -0.453  -0.453
 -0.450  -0.448  -0.447  -0.439  -0.436  -0.429  -0.427  -0.422
 -0.416  -0.414  -0.409  -0.409  -0.408  -0.404  -0.401  -0.398
 -0.396  -0.392  -0.384  -0.382  -0.381  -0.380  -0.380  -0.377
 -0.371  -0.369  -0.356  -0.354  -0.351  -0.346  -0.343  -0.332
 -0.328  -0.320  -0.317  -0.301  -0.296  -0.281  -0.281  -0.260
 -0.260  -0.245  -0.239  -0.234  -0.232

          Ground-State Mulliken Net Atomic Charges

     Atom                 Charge (a.u.)    Spin (a.u.)
  --------------------------------------------------------
      1 C                    -0.131841       0.003936
      2 C                    -0.414466       0.019161
      3 H                     0.195211      -0.003523
      4 C                     0.089921       0.008099
      5 C                     0.068306       0.115005
      6 C                    -0.407116      -0.069829
      7 H                     0.232761       0.002922
      8 C                    -0.137887       0.080278
      9 C                     0.185717      -0.062441
     10 C                    -0.396595       0.089634
     11 H                     0.231669      -0.005254
     12 C                    -0.074914       0.022652
     13 C                     0.238703      -0.035894
     14 C                     0.188612      -0.035085
     15 C                    -0.405947       0.056518
     16 H                     0.215363      -0.003347
     17 C                    -0.216603      -0.039670
     18 H                     0.230330       0.001999
     19 C                    -0.355305       0.052990
     20 H                     0.228861      -0.003072
     21 C                    -0.218250      -0.054429
     22 H                     0.234564       0.002622
     23 C                    -0.352943       0.081315
     24 H                     0.227632      -0.004829
     25 B                     0.533833       0.369306
     26 C                    -0.132500       0.005882
     27 C                    -0.408880       0.019703
     28 H                     0.192699      -0.003564
     29 C                     0.089604       0.007657
     30 C                     0.066582       0.111923
     31 C                    -0.394355      -0.067528
     32 H                     0.229855       0.002995
     33 C                    -0.149363       0.079678
     34 C                     0.186342      -0.060857
     35 C                    -0.395765       0.087170
     36 H                     0.231479      -0.005109
     37 C                    -0.074633       0.022022
     38 C                     0.236734      -0.034850
     39 C                     0.188651      -0.034145
     40 C                    -0.406838       0.054914
     41 H                     0.215720      -0.003256
     42 C                    -0.218512      -0.052810
     43 H                     0.234418       0.002545
     44 C                    -0.351708       0.078627
     45 H                     0.227700      -0.004667
     46 C                    -0.216411      -0.038506
     47 H                     0.230386       0.001941
     48 C                    -0.354601       0.051254
     49 H                     0.229031      -0.002969
     50 B                     0.569200       0.259816
     51 C                    -0.122342       0.506586
     52 C                     0.110448       0.016872
     53 C                    -0.417273       0.033012
     54 H                     0.280424      -0.003362
     55 C                     0.464715       0.223221
     56 O                    -0.392665       0.137147
     57 C                    -0.365103       0.100346
     58 H                     0.280029      -0.006483
     59 C                     0.072354      -0.074037
     60 C                    -0.444253      -0.013831
     61 H                     0.282861      -0.000007
     62 H                     0.252565       0.009138
     63 H                     0.252769       0.008970
     64 C                    -0.755643       0.005537
     65 H                     0.249922       0.001232
     66 H                     0.279981      -0.001644
     67 H                     0.281474      -0.000644
     68 C                    -0.551630      -0.000712
     69 H                     0.294265      -0.000701
     70 H                     0.244620       0.001073
     71 C                    -0.662272       0.006618
     72 H                     0.274493      -0.001128
     73 H                     0.243286       0.001174
     74 H                     0.214126      -0.000403
     75 C                    -0.200398      -0.024704
     76 C                     0.062233       0.004194
     77 C                    -0.434478      -0.001369
     78 H                     0.229926       0.000318
     79 C                     0.388378       0.001578
     80 O                    -0.465945       0.000301
     81 C                    -0.395902      -0.001176
     82 H                     0.222837       0.000362
     83 C                     0.045042       0.004138
     84 C                    -0.415290      -0.000040
     85 H                     0.242640       0.000005
     86 H                     0.209619       0.000026
     87 H                     0.209414       0.000031
     88 C                    -0.759017       0.000380
     89 H                     0.232992       0.001363
     90 H                     0.244328      -0.000782
     91 H                     0.245623      -0.000511
     92 C                    -0.540775       0.003006
     93 H                     0.255853      -0.001878
     94 H                     0.222310       0.000291
     95 C                    -0.649947      -0.000202
     96 H                     0.243254      -0.000196
     97 H                     0.211215      -0.000053
     98 H                     0.214488       0.000012
  --------------------------------------------------------
  Sum of atomic charges =    -0.000000

                    Cartesian Multipole Moments
 -----------------------------------------------------------------
    Charge (ESU x 10^10)
                -0.0000
    Dipole Moment (Debye)
         X      14.5277      Y       0.6894      Z       8.0339
       Tot      16.6154
    Quadrupole Moments (Debye-Ang)
        XX    -226.9833     XY      15.4328     YY    -320.2886
        XZ      35.8621     YZ       7.2981     ZZ    -320.3385

 Total job time:  34126.72s(wall), 95306.18s(cpu)
        *  Thank you very much for using Q-Chem.  Have a nice day.  *
