 Q-Chem 5.0, Q-Chem, Inc., Pleasanton, CA (2017)
 Q-Chem 5.0.1 for Intel X86 EM64T Linux

User input:
--------------------------------------------------------------
$rem
threads 8
jobtype opt
method PBEh-3c
basis def2-mSVP
mem_static      1024
mem_total       8000
sym_ignore      true
unrestricted true
scf_algorithm	diis
scf_max_cycles	250
solvent_method  pcm
geom_opt_tol_energy 25
geom_opt_tol_gradient 75
$end

$pcm
theory  iefpcm
$end
$solvent
dielectric      4.33
$end

$molecule
read uincoords.mol
$end
--------------------------------------------------------------

   21   -2202.1878751269      8.17E-09 Convergence criterion met
 Total energy in the final basis set = -2202.18787513
   18   -2202.1896176006      7.61E-09 Convergence criterion met
 Total energy in the final basis set = -2202.18961760
   18   -2202.1897924351      8.50E-09 Convergence criterion met
 Total energy in the final basis set = -2202.18979244
   18   -2202.1901010511      6.78E-09 Convergence criterion met
 Total energy in the final basis set = -2202.19010105
   16   -2202.1901935158      9.86E-09 Convergence criterion met
 Total energy in the final basis set = -2202.19019352
   16   -2202.1902993429      9.88E-09 Convergence criterion met
 Total energy in the final basis set = -2202.19029934
   17   -2202.1902825731      9.27E-09 Convergence criterion met
 Total energy in the final basis set = -2202.19028257
   17   -2202.1902800560      9.12E-09 Convergence criterion met
   17   -2202.1902895775      9.15E-09 Convergence criterion met
 Total energy in the final basis set = -2202.19028958
   17   -2202.1902925286      9.02E-09 Convergence criterion met
 Total energy in the final basis set = -2202.19029253
   17   -2202.1902957724      8.83E-09 Convergence criterion met
 Total energy in the final basis set = -2202.19029577
   17   -2202.1902974549      8.87E-09 Convergence criterion met
 Total energy in the final basis set = -2202.19029745
   17   -2202.1902992390      8.76E-09 Convergence criterion met
 Total energy in the final basis set = -2202.19029924
   17   -2202.1903002137      8.73E-09 Convergence criterion met
 Total energy in the final basis set = -2202.19030021

             Standard Nuclear Orientation (Angstroms)
    I     Atom           X                Y                Z
 ----------------------------------------------------------------
    1      C       0.0298556953    -0.4052880855     0.0714174142
    2      C       0.0330078102    -0.3609214394     1.4878743863
    3      H       0.9756993909    -0.3721948555     2.0282234176
    4      C      -1.1453054399    -0.3015886011     2.1905647595
    5      C      -2.3854872866    -0.2781081210     1.4855005611
    6      C      -2.4100752264    -0.3229820139     0.1131696264
    7      H      -3.3598882202    -0.3087965612    -0.4122734769
    8      C      -1.2173111238    -0.3910591179    -0.6285182027
    9      C      -3.4666807251    -0.2099570042     2.4576217765
   10      C      -4.8369612816    -0.1623557632     2.3805268036
   11      H      -5.3560652680    -0.1700145690     1.4297479449
   12      C      -2.8570498024    -0.1958877574     3.7275493539
   13      C      -3.5633344381    -0.1371648581     4.9256408513
   14      C      -1.4512860100    -0.2500118182     3.6228932865
   15      C      -0.7193688930    -0.2450365504     4.7830760380
   16      H       0.3628747269    -0.2854133395     4.7765021223
   17      C      -1.4079457203    -0.1859650396     6.0183715627
   18      H      -0.8264096579    -0.1827899627     6.9314515469
   19      C      -2.7809874339    -0.1332122091     6.1051143961
   20      H      -3.2610153435    -0.0893203298     7.0751644062
   21      C      -5.5778684669    -0.1021462881     3.5829429398
   22      H      -6.6583724328    -0.0649075702     3.5229149598
   23      C      -4.9765306748    -0.0893920373     4.8214427108
   24      H      -5.5849357355    -0.0428685482     5.7164550469
   25      B       1.3262007487    -0.4688702258    -0.7348110573
   26      C       1.3129967809    -0.5601112933    -2.2603340240
   27      C       2.5109008503    -0.6601633636    -3.0099516004
   28      H       3.4691154341    -0.6834563380    -2.4983377990
   29      C       2.4748751771    -0.7294148373    -4.3811316767
   30      C       1.2177000189    -0.6934002111    -5.0542659630
   31      C       0.0456004310    -0.6012010992    -4.3465517155
   32      H      -0.9031885094    -0.5775825524    -4.8727611659
   33      C       0.0570156080    -0.5397362073    -2.9425208231
   34      C       1.4590012264    -0.7732831076    -6.4883754822
   35      C       0.6631277761    -0.7822276707    -7.6079376112
   36      H      -0.4161782141    -0.7181833615    -7.5416962696
   37      C       2.8554673273    -0.8593089784    -6.6495955228
   38      C       3.4880122437    -0.9562932648    -7.8874019142
   39      C       3.5204867249    -0.8378055749    -5.4058060197
   40      C       4.8905888571    -0.9190606593    -5.4103461386
   41      H       5.4668669240    -0.9106448330    -4.4934751659
   42      C       1.2809393972    -0.8786529343    -8.8764142973
   43      H       0.6525019502    -0.8853774468    -9.7582339217
   44      C       2.6462647897    -0.9640734496    -9.0280745706
   45      H       3.0774556198    -1.0367769808   -10.0192616791
   46      C       5.5628543410    -1.0180008592    -6.6523401942
   47      H       6.6435599938    -1.0819089598    -6.6484063255
   48      C       4.9003549292    -1.0373254198    -7.8587779392
   49      H       5.4589839321    -1.1154619033    -8.7837260726
   50      B      -1.2677328533    -0.4516619269    -2.1652499996
   51      C       2.7088808019    -0.4675675734     0.0137212754
   52      C       3.4584623040     0.7470569814     0.1944145707
   53      C       4.6237606957     0.7383144819     0.9111560541
   54      H       5.1761235959     1.6587189748     1.0481573914
   55      C       5.0964604550    -0.4759552597     1.4568988877
   56      O       6.1846902670    -0.5833994505     2.1642309006
   57      C       4.3927579035    -1.6937213140     1.2434956869
   58      H       4.8045869741    -2.6042004279     1.6615130370
   59      C       3.2333106273    -1.7003785099     0.5289574867
   60      C       6.9892057612     0.5600446183     2.4633882820
   61      H       7.8090384375     0.1926329001     3.0714917445
   62      H       7.3827894727     1.0061479343     1.5502512495
   63      H       6.4183239908     1.2984377395     3.0258459840
   64      C       2.4843868906    -2.9696351529     0.2813274940
   65      H       3.0223998336    -3.8345314166     0.6655024449
   66      H       2.3119417242    -3.1135782425    -0.7865490259
   67      H       1.5010065075    -2.9376479548     0.7531187498
   68      C       2.9420935398     2.0332564432    -0.3745497361
   69      H       2.4497443099     1.8427323336    -1.3296317853
   70      H       3.7834689538     2.6989175500    -0.5769332843
   71      C       1.9594897122     2.7271660310     0.5713112628
   72      H       1.0764725165     2.1152891457     0.7496179513
   73      H       1.6272357036     3.6684660222     0.1347022606
   74      H       2.4237798906     2.9453880113     1.5334364639
   75      C      -2.6472857126    -0.4020454451    -2.9425775274
   76      C      -3.2827583200    -1.5586348013    -3.3983935357
   77      C      -4.4894849810    -1.4918416048    -4.1002810175
   78      H      -4.9445717425    -2.4163611360    -4.4361703066
   79      C      -5.0794837648    -0.2657160351    -4.3617671518
   80      O      -6.2428810135    -0.1011141553    -5.0322045091
   81      C      -4.4519737593     0.8980656461    -3.9211959275
   82      H      -4.9104923572     1.8568891072    -4.1361058376
   83      C      -3.2568769030     0.8356119166    -3.2233913050
   84      C      -6.9184128002    -1.2484142042    -5.4876852305
   85      H      -7.8253173403    -0.9021422284    -5.9791721561
   86      H      -7.1995079150    -1.9160576744    -4.6674850068
   87      H      -6.3268663354    -1.8180303252    -6.2110860025
   88      C      -2.6015737434     2.1115245337    -2.7739171210
   89      H      -3.1643225228     2.9885885860    -3.0936294832
   90      H      -1.5902380264     2.1994563133    -3.1766921656
   91      H      -2.5121395576     2.1505584800    -1.6867134945
   92      C      -2.7180106367    -2.9268890066    -3.1109727131
   93      H      -1.6322748799    -2.8723122671    -3.0039308161
   94      H      -2.9073409218    -3.5871406744    -3.9620395253
   95      C      -3.3199355870    -3.5452737684    -1.8511101877
   96      H      -3.1114424242    -2.9287212173    -0.9763746580
   97      H      -4.4031384736    -3.6430913400    -1.9386197926
   98      H      -2.9081803295    -4.5384280110    -1.6660376109
 ----------------------------------------------------------------

   17   -2202.1903004473      8.62E-09 Convergence criterion met
 Total energy in the final basis set = -2202.19030045
 Final energy is   -2202.19030044728
 **  OPTIMIZATION CONVERGED  **

                    Orbital Energies (a.u.)
 --------------------------------------------------------------

 Alpha MOs
 -- Occupied --
-19.607 -19.518 -10.586 -10.520 -10.506 -10.500 -10.496 -10.492
-10.489 -10.489 -10.478 -10.455 -10.455 -10.453 -10.453 -10.453
-10.452 -10.452 -10.450 -10.450 -10.450 -10.450 -10.449 -10.449
-10.449 -10.449 -10.448 -10.448 -10.448 -10.448 -10.446 -10.445
-10.442 -10.442 -10.442 -10.440 -10.440 -10.440 -10.438 -10.438
-10.437 -10.434 -10.433 -10.431 -10.423 -10.422 -10.421 -10.419
-10.419 -10.414 -10.412 -10.410 -10.410 -10.402  -6.911  -6.903
 -1.266  -1.173  -1.009  -1.003  -1.003  -0.947  -0.944  -0.942
 -0.925  -0.922  -0.922  -0.907  -0.891  -0.884  -0.871  -0.854
 -0.846  -0.840  -0.839  -0.836  -0.835  -0.822  -0.807  -0.805
 -0.802  -0.799  -0.798  -0.788  -0.763  -0.752  -0.742  -0.721
 -0.717  -0.715  -0.707  -0.699  -0.697  -0.677  -0.675  -0.667
 -0.667  -0.651  -0.642  -0.632  -0.632  -0.631  -0.625  -0.611
 -0.597  -0.596  -0.582  -0.580  -0.577  -0.574  -0.571  -0.563
 -0.562  -0.557  -0.549  -0.532  -0.530  -0.526  -0.525  -0.523
 -0.514  -0.514  -0.511  -0.506  -0.504  -0.497  -0.494  -0.489
 -0.487  -0.486  -0.480  -0.479  -0.477  -0.476  -0.474  -0.474
 -0.472  -0.469  -0.467  -0.463  -0.462  -0.460  -0.458  -0.455
 -0.453  -0.452  -0.448  -0.443  -0.437  -0.433  -0.431  -0.426
 -0.422  -0.419  -0.415  -0.414  -0.412  -0.406  -0.406  -0.404
 -0.400  -0.399  -0.397  -0.387  -0.387  -0.386  -0.383  -0.381
 -0.377  -0.374  -0.363  -0.362  -0.360  -0.354  -0.349  -0.337
 -0.331  -0.329  -0.325  -0.312  -0.305  -0.303  -0.289  -0.287
 -0.274  -0.265  -0.256  -0.246  -0.243  -0.239  -0.155

 Beta MOs
 -- Occupied --
-19.601 -19.518 -10.583 -10.521 -10.506 -10.501 -10.492 -10.489
-10.488 -10.487 -10.478 -10.456 -10.456 -10.454 -10.453 -10.452
-10.452 -10.452 -10.451 -10.451 -10.449 -10.449 -10.449 -10.449
-10.449 -10.449 -10.448 -10.448 -10.447 -10.447 -10.445 -10.445
-10.442 -10.442 -10.442 -10.440 -10.439 -10.439 -10.437 -10.437
-10.437 -10.435 -10.434 -10.430 -10.423 -10.422 -10.421 -10.418
-10.418 -10.414 -10.412 -10.409 -10.409 -10.402  -6.908  -6.901
 -1.254  -1.173  -1.002  -1.002  -0.999  -0.945  -0.943  -0.941
 -0.923  -0.921  -0.921  -0.897  -0.889  -0.883  -0.871  -0.852
 -0.845  -0.839  -0.838  -0.835  -0.834  -0.812  -0.806  -0.802
 -0.799  -0.798  -0.794  -0.786  -0.763  -0.752  -0.737  -0.719
 -0.715  -0.713  -0.706  -0.697  -0.694  -0.676  -0.672  -0.666
 -0.662  -0.649  -0.641  -0.632  -0.631  -0.628  -0.625  -0.606
 -0.592  -0.580  -0.580  -0.575  -0.575  -0.573  -0.570  -0.562
 -0.561  -0.554  -0.549  -0.529  -0.528  -0.525  -0.525  -0.520
 -0.514  -0.513  -0.509  -0.503  -0.497  -0.495  -0.492  -0.488
 -0.487  -0.485  -0.479  -0.478  -0.476  -0.476  -0.473  -0.472
 -0.469  -0.466  -0.466  -0.463  -0.460  -0.458  -0.454  -0.453
 -0.452  -0.451  -0.445  -0.441  -0.433  -0.433  -0.429  -0.425
 -0.418  -0.416  -0.413  -0.412  -0.411  -0.405  -0.403  -0.399
 -0.397  -0.396  -0.386  -0.384  -0.384  -0.383  -0.381  -0.380
 -0.374  -0.372  -0.359  -0.358  -0.353  -0.350  -0.347  -0.336
 -0.324  -0.323  -0.321  -0.305  -0.300  -0.285  -0.285  -0.265
 -0.264  -0.249  -0.243  -0.239  -0.236

          Ground-State Mulliken Net Atomic Charges

     Atom                 Charge (a.u.)    Spin (a.u.)
  --------------------------------------------------------
      1 C                    -0.134603       0.010656
      2 C                    -0.415928       0.010518
      3 H                     0.207658      -0.003031
      4 C                     0.082717       0.017091
      5 C                     0.062592       0.108476
      6 C                    -0.409090      -0.065990
      7 H                     0.233137       0.002716
      8 C                    -0.138196       0.074436
      9 C                     0.179795      -0.061289
     10 C                    -0.400982       0.088644
     11 H                     0.238739      -0.005174
     12 C                    -0.076422       0.022880
     13 C                     0.229296      -0.036464
     14 C                     0.182428      -0.037793
     15 C                    -0.409735       0.060060
     16 H                     0.227455      -0.003529
     17 C                    -0.224747      -0.041413
     18 H                     0.240109       0.002060
     19 C                    -0.359648       0.055971
     20 H                     0.238376      -0.003231
     21 C                    -0.226282      -0.054146
     22 H                     0.243012       0.002597
     23 C                    -0.357402       0.080528
     24 H                     0.237202      -0.004746
     25 B                     0.537801       0.356886
     26 C                    -0.135677       0.012156
     27 C                    -0.411004       0.010950
     28 H                     0.205073      -0.003052
     29 C                     0.082530       0.016668
     30 C                     0.060676       0.105452
     31 C                    -0.398461      -0.063717
     32 H                     0.230895       0.002761
     33 C                    -0.149067       0.073972
     34 C                     0.180255      -0.059729
     35 C                    -0.400139       0.086330
     36 H                     0.238568      -0.005039
     37 C                    -0.076079       0.022275
     38 C                     0.227289      -0.035489
     39 C                     0.182327      -0.036868
     40 C                    -0.410560       0.058531
     41 H                     0.227787      -0.003443
     42 C                    -0.226559      -0.052623
     43 H                     0.242986       0.002524
     44 C                    -0.356086       0.078032
     45 H                     0.237373      -0.004596
     46 C                    -0.224548      -0.040305
     47 H                     0.240191       0.002005
     48 C                    -0.358888       0.054323
     49 H                     0.238641      -0.003132
     50 B                     0.556231       0.266573
     51 C                    -0.125766       0.515000
     52 C                     0.107095      -0.004936
     53 C                    -0.414884       0.052228
     54 H                     0.292250      -0.004296
     55 C                     0.467878       0.215138
     56 O                    -0.389470       0.146539
     57 C                    -0.365591       0.118254
     58 H                     0.287901      -0.007366
     59 C                     0.071015      -0.089949
     60 C                    -0.449229      -0.014424
     61 H                     0.286121       0.000005
     62 H                     0.259032       0.009573
     63 H                     0.259039       0.009384
     64 C                    -0.758282       0.006351
     65 H                     0.256746       0.001101
     66 H                     0.276437      -0.002096
     67 H                     0.277448      -0.001327
     68 C                    -0.551267       0.000506
     69 H                     0.288178      -0.001048
     70 H                     0.251908       0.000893
     71 C                    -0.664791       0.005492
     72 H                     0.266662      -0.001007
     73 H                     0.243917       0.000987
     74 H                     0.219276      -0.000375
     75 C                    -0.198225      -0.025357
     76 C                     0.056707       0.004079
     77 C                    -0.439342      -0.001330
     78 H                     0.239260       0.000321
     79 C                     0.384477       0.001360
     80 O                    -0.470140       0.000211
     81 C                    -0.403581      -0.001162
     82 H                     0.228406       0.000366
     83 C                     0.039888       0.004099
     84 C                    -0.421541      -0.000030
     85 H                     0.247125       0.000005
     86 H                     0.214152       0.000020
     87 H                     0.214041       0.000024
     88 C                    -0.761183       0.000401
     89 H                     0.237589       0.001388
     90 H                     0.244737      -0.000802
     91 H                     0.245643      -0.000529
     92 C                    -0.540481       0.003143
     93 H                     0.254607      -0.001951
     94 H                     0.226381       0.000298
     95 C                    -0.653575      -0.000223
     96 H                     0.240195      -0.000193
     97 H                     0.213701      -0.000052
     98 H                     0.218498       0.000012
  --------------------------------------------------------
  Sum of atomic charges =    -0.000000

                    Cartesian Multipole Moments
 -----------------------------------------------------------------
    Charge (ESU x 10^10)
                -0.0000
    Dipole Moment (Debye)
         X      15.8644      Y       0.6838      Z       8.7543
       Tot      18.1324
    Quadrupole Moments (Debye-Ang)
        XX    -218.3421     XY      16.3524     YY    -319.4679
        XZ      37.1527     YZ       7.9714     ZZ    -318.0252

 Total job time:  40854.45s(wall), 113752.28s(cpu)
        *  Thank you very much for using Q-Chem.  Have a nice day.  *
