 Q-Chem 5.0, Q-Chem, Inc., Pleasanton, CA (2017)
 Q-Chem 5.0.1 for Intel X86 EM64T Linux

User input:
--------------------------------------------------------------
$rem
threads 8
jobtype opt
method PBEh-3c
basis def2-mSVP
mem_static      1024
mem_total       8000
sym_ignore      true
unrestricted true
scf_algorithm   diis
scf_max_cycles  250
solvent_method  pcm
geom_opt_tol_energy 25
geom_opt_tol_gradient 75
$end

$pcm
theory  iefpcm
$end

$solvent
dielectric      1.0001
$end

$molecule
read uincoords.mol
$end

--------------------------------------------------------------

   33   -2202.1555841202      8.25E-09 Convergence criterion met
 Total energy in the final basis set = -2202.15558412
   27   -2202.1572451637      5.80E-09 Convergence criterion met
 Total energy in the final basis set = -2202.15724516
   29   -2202.1574120261      4.89E-09 Convergence criterion met
 Total energy in the final basis set = -2202.15741203
   24   -2202.1576010154      7.07E-09 Convergence criterion met
 Total energy in the final basis set = -2202.15760102
   19   -2202.1578249412      6.85E-09 Convergence criterion met
 Total energy in the final basis set = -2202.15782494
   18   -2202.1579497070      7.91E-09 Convergence criterion met
 Total energy in the final basis set = -2202.15794971
   26   -2202.1579174665      8.76E-09 Convergence criterion met
 Total energy in the final basis set = -2202.15791747
   17   -2202.1579123786      8.25E-09 Convergence criterion met
 Total energy in the final basis set = -2202.15791238
   16   -2202.1579161896      8.63E-09 Convergence criterion met
 Total energy in the final basis set = -2202.15791619
   14   -2202.1579253158      7.02E-09 Convergence criterion met
 Total energy in the final basis set = -2202.15792532

             Standard Nuclear Orientation (Angstroms)
    I     Atom           X                Y                Z
 ----------------------------------------------------------------
    1      C       0.0275870477    -0.4247531863     0.0829495948
    2      C       0.0273222394    -0.3734904220     1.5002531782
    3      H       0.9685432302    -0.3792432383     2.0441578637
    4      C      -1.1519692308    -0.3162944220     2.1990494225
    5      C      -2.3890750937    -0.2987709017     1.4915985233
    6      C      -2.4092991122    -0.3443439850     0.1190320991
    7      H      -3.3553571758    -0.3343781510    -0.4132259799
    8      C      -1.2155696968    -0.4074935657    -0.6181966503
    9      C      -3.4721163626    -0.2306384466     2.4598706035
   10      C      -4.8412857815    -0.1869997958     2.3788673886
   11      H      -5.3565699640    -0.1994399090     1.4263503684
   12      C      -2.8671126023    -0.2100221574     3.7312550078
   13      C      -3.5766246256    -0.1489315537     4.9262178308
   14      C      -1.4619635411    -0.2607527902     3.6306767501
   15      C      -0.7345183937    -0.2493748132     4.7921386188
   16      H       0.3477991795    -0.2866577308     4.7884180921
   17      C      -1.4255025593    -0.1880375471     6.0248078937
   18      H      -0.8471484280    -0.1800295033     6.9397568817
   19      C      -2.7978545840    -0.1386432270     6.1066370051
   20      H      -3.2804366390    -0.0926138637     7.0752012742
   21      C      -5.5857739473    -0.1244597689     3.5777906122
   22      H      -6.6660412843    -0.0902743955     3.5145648746
   23      C      -4.9887434091    -0.1055160280     4.8170107786
   24      H      -5.6004265871    -0.0575755367     5.7095283243
   25      B       1.3224269920    -0.4788809939    -0.7259326527
   26      C       1.3161770592    -0.5578179483    -2.2524092634
   27      C       2.5141008185    -0.6556197864    -3.0035965189
   28      H       3.4733977784    -0.6843207480    -2.4934053827
   29      C       2.4763874366    -0.7164420236    -4.3736953214
   30      C       1.2200102504    -0.6753176999    -5.0444997610
   31      C       0.0487889206    -0.5898354410    -4.3347303622
   32      H      -0.9028125709    -0.5616425408    -4.8552914129
   33      C       0.0621193282    -0.5399437912    -2.9318208737
   34      C       1.4596919783    -0.7466829037    -6.4784395079
   35      C       0.6633852490    -0.7478717326    -7.5962600214
   36      H      -0.4153999410    -0.6819162970    -7.5274495838
   37      C       2.8550924069    -0.8343976588    -6.6425939406
   38      C       3.4854537796    -0.9262854887    -7.8808569744
   39      C       3.5209446356    -0.8209220971    -5.4002381994
   40      C       4.8894253217    -0.9061775873    -5.4071536167
   41      H       5.4663299582    -0.9055104720    -4.4907087570
   42      C       1.2785870280    -0.8385745693    -8.8654689006
   43      H       0.6490879210    -0.8392602562    -9.7463833069
   44      C       2.6422547354    -0.9262396832    -9.0194684422
   45      H       3.0712427850    -0.9946661228   -10.0117628430
   46      C       5.5604186854    -1.0000498990    -6.6491307498
   47      H       6.6408331935    -1.0674503705    -6.6472978508
   48      C       4.8965060427    -1.0109518947    -7.8535426767
   49      H       5.4542322328    -1.0858997937    -8.7791810920
   50      B      -1.2646877294    -0.4608464742    -2.1560572091
   51      C       2.6974483005    -0.4766645537     0.0195632550
   52      C       3.4783080669     0.7263887826     0.1499501382
   53      C       4.6414962265     0.7184999305     0.8754680129
   54      H       5.2105247206     1.6333425191     0.9773466412
   55      C       5.0827516639    -0.4780728077     1.4724297027
   56      O       6.1758378128    -0.5821758724     2.1914433328
   57      C       4.3529373997    -1.6832711562     1.3119369581
   58      H       4.7444002987    -2.5832028407     1.7698971680
   59      C       3.1945995761    -1.6970545632     0.5937971039
   60      C       6.9964475975     0.5514702512     2.4322656224
   61      H       7.8114204985     0.2028576142     3.0591144182
   62      H       7.4048257726     0.9507346285     1.5025236671
   63      H       6.4478034341     1.3339922982     2.9588183591
   64      C       2.4165880128    -2.9562794927     0.3964606262
   65      H       2.9388681969    -3.8216939156     0.8015956988
   66      H       2.2247966849    -3.1256804711    -0.6643020385
   67      H       1.4386684375    -2.8843887182     0.8754693014
   68      C       2.9903088998     1.9970886116    -0.4729457874
   69      H       2.5354201972     1.7785435323    -1.4405310468
   70      H       3.8405872656     2.6570433306    -0.6599715450
   71      C       1.9682628915     2.7157543728     0.4124065504
   72      H       1.0766133932     2.1101507867     0.5647209866
   73      H       1.6592915669     3.6460203626    -0.0627032708
   74      H       2.3882990601     2.9583196021     1.3889229251
   75      C      -2.6409584710    -0.4079078621    -2.9322950258
   76      C      -3.2719506370    -1.5614520885    -3.4004955460
   77      C      -4.4781903787    -1.4885341569    -4.0996994588
   78      H      -4.9305250944    -2.4104818077    -4.4458051513
   79      C      -5.0711259067    -0.2612416093    -4.3458812501
   80      O      -6.2352096478    -0.0912650550    -5.0129503980
   81      C      -4.4470204318     0.8988279512    -3.8937271644
   82      H      -4.9104089142     1.8564549872    -4.1000867641
   83      C      -3.2524796738     0.8318714475    -3.1990811266
   84      C      -6.9047401936    -1.2291123609    -5.4815254357
   85      H      -7.8126935055    -0.8790505198    -5.9691450585
   86      H      -7.1864287997    -1.9105239971    -4.6716456443
   87      H      -6.3135500683    -1.7903334812    -6.2132094781
   88      C      -2.5953766800     2.1022034698    -2.7379528873
   89      H      -3.1561525514     2.9828635694    -3.0508551607
   90      H      -1.5841587269     2.1908946005    -3.1406628464
   91      H      -2.5070531314     2.1321835467    -1.6504716721
   92      C      -2.7021460463    -2.9300217162    -3.1269300984
   93      H      -1.6141426265    -2.8767370579    -3.0442978777
   94      H      -2.9085176295    -3.5879152972    -3.9760397047
   95      C      -3.2783167541    -3.5502696421    -1.8562112193
   96      H      -3.0450402903    -2.9402257368    -0.9835552864
   97      H      -4.3638671790    -3.6391831879    -1.9183639480
   98      H      -2.8700788429    -4.5474383605    -1.6852121642
 ----------------------------------------------------------------

   13   -2202.1579255216      8.61E-09 Convergence criterion met
 Total energy in the final basis set = -2202.15792552
 Final energy is   -2202.15792552156
 **  OPTIMIZATION CONVERGED  **

                    Orbital Energies (a.u.)
 --------------------------------------------------------------

 Alpha MOs
 -- Occupied --
-19.620 -19.507 -10.598 -10.550 -10.520 -10.513 -10.504 -10.502
-10.501 -10.480 -10.475 -10.463 -10.452 -10.447 -10.446 -10.446
-10.446 -10.444 -10.444 -10.444 -10.444 -10.444 -10.443 -10.441
-10.441 -10.441 -10.440 -10.440 -10.440 -10.439 -10.438 -10.438
-10.438 -10.437 -10.436 -10.435 -10.431 -10.430 -10.428 -10.427
-10.427 -10.426 -10.425 -10.423 -10.414 -10.414 -10.412 -10.412
-10.408 -10.404 -10.402 -10.401 -10.401 -10.391  -6.905  -6.896
 -1.279  -1.164  -1.022  -0.994  -0.993  -0.939  -0.938  -0.936
 -0.931  -0.921  -0.915  -0.914  -0.885  -0.876  -0.868  -0.861
 -0.839  -0.834  -0.832  -0.829  -0.828  -0.827  -0.814  -0.799
 -0.796  -0.792  -0.791  -0.780  -0.755  -0.752  -0.742  -0.719
 -0.713  -0.708  -0.707  -0.700  -0.687  -0.687  -0.670  -0.661
 -0.659  -0.649  -0.644  -0.635  -0.626  -0.625  -0.624  -0.616
 -0.615  -0.601  -0.576  -0.574  -0.570  -0.566  -0.564  -0.561
 -0.556  -0.554  -0.551  -0.540  -0.535  -0.526  -0.525  -0.519
 -0.518  -0.516  -0.509  -0.507  -0.507  -0.501  -0.489  -0.487
 -0.483  -0.480  -0.479  -0.477  -0.477  -0.472  -0.471  -0.469
 -0.467  -0.464  -0.463  -0.462  -0.460  -0.459  -0.455  -0.452
 -0.449  -0.447  -0.447  -0.442  -0.436  -0.429  -0.424  -0.420
 -0.419  -0.416  -0.413  -0.411  -0.409  -0.405  -0.403  -0.400
 -0.396  -0.393  -0.387  -0.380  -0.378  -0.377  -0.377  -0.374
 -0.371  -0.364  -0.357  -0.354  -0.352  -0.344  -0.341  -0.340
 -0.328  -0.328  -0.317  -0.307  -0.302  -0.295  -0.280  -0.277
 -0.265  -0.253  -0.247  -0.237  -0.233  -0.227  -0.149

 Beta MOs
 -- Occupied --
-19.615 -19.507 -10.594 -10.551 -10.519 -10.513 -10.502 -10.500
-10.498 -10.480 -10.475 -10.463 -10.452 -10.447 -10.446 -10.446
-10.445 -10.445 -10.445 -10.444 -10.444 -10.443 -10.442 -10.442
-10.441 -10.440 -10.440 -10.439 -10.439 -10.439 -10.439 -10.438
-10.438 -10.437 -10.436 -10.435 -10.429 -10.428 -10.428 -10.427
-10.427 -10.426 -10.426 -10.424 -10.414 -10.413 -10.412 -10.412
-10.408 -10.404 -10.402 -10.400 -10.399 -10.391  -6.902  -6.893
 -1.270  -1.164  -1.012  -0.994  -0.993  -0.937  -0.935  -0.934
 -0.930  -0.914  -0.913  -0.912  -0.883  -0.875  -0.866  -0.860
 -0.837  -0.831  -0.831  -0.827  -0.827  -0.824  -0.809  -0.797
 -0.795  -0.791  -0.790  -0.778  -0.754  -0.747  -0.741  -0.715
 -0.711  -0.706  -0.705  -0.699  -0.687  -0.684  -0.668  -0.659
 -0.656  -0.646  -0.641  -0.634  -0.625  -0.624  -0.620  -0.614
 -0.599  -0.597  -0.575  -0.573  -0.568  -0.565  -0.563  -0.559
 -0.554  -0.551  -0.549  -0.539  -0.531  -0.524  -0.522  -0.519
 -0.517  -0.509  -0.507  -0.506  -0.503  -0.498  -0.486  -0.481
 -0.481  -0.479  -0.477  -0.476  -0.472  -0.471  -0.470  -0.469
 -0.464  -0.463  -0.461  -0.461  -0.459  -0.458  -0.455  -0.450
 -0.448  -0.446  -0.444  -0.441  -0.435  -0.424  -0.423  -0.418
 -0.417  -0.412  -0.410  -0.407  -0.403  -0.402  -0.397  -0.395
 -0.393  -0.391  -0.387  -0.379  -0.376  -0.375  -0.375  -0.373
 -0.368  -0.364  -0.353  -0.350  -0.346  -0.341  -0.337  -0.336
 -0.326  -0.316  -0.313  -0.295  -0.291  -0.276  -0.275  -0.254
 -0.252  -0.240  -0.233  -0.227  -0.226

          Ground-State Mulliken Net Atomic Charges

     Atom                 Charge (a.u.)    Spin (a.u.)
  --------------------------------------------------------
      1 C                    -0.128248      -0.002245
      2 C                    -0.412465       0.037418
      3 H                     0.177849      -0.004518
      4 C                     0.101956      -0.008467
      5 C                     0.078118       0.126134
      6 C                    -0.402092      -0.072342
      7 H                     0.230504       0.002985
      8 C                    -0.138738       0.089148
      9 C                     0.195984      -0.063861
     10 C                    -0.387043       0.091806
     11 H                     0.216749      -0.005441
     12 C                    -0.072818       0.022554
     13 C                     0.254602      -0.035250
     14 C                     0.198834      -0.030252
     15 C                    -0.396072       0.050335
     16 H                     0.195455      -0.003017
     17 C                    -0.200324      -0.036748
     18 H                     0.213105       0.001894
     19 C                    -0.344899       0.047914
     20 H                     0.211695      -0.002794
     21 C                    -0.202431      -0.055291
     22 H                     0.218842       0.002679
     23 C                    -0.342231       0.084014
     24 H                     0.210731      -0.005045
     25 B                     0.520201       0.394054
     26 C                    -0.128666      -0.003242
     27 C                    -0.403215       0.038190
     28 H                     0.174824      -0.004625
     29 C                     0.101326      -0.008816
     30 C                     0.077365       0.122135
     31 C                    -0.387043      -0.070897
     32 H                     0.226659       0.003137
     33 C                    -0.148317       0.088628
     34 C                     0.196783      -0.062095
     35 C                    -0.386361       0.087747
     36 H                     0.216431      -0.005196
     37 C                    -0.072678       0.021628
     38 C                     0.252767      -0.033461
     39 C                     0.199387      -0.029095
     40 C                    -0.396980       0.047883
     41 H                     0.195503      -0.002873
     42 C                    -0.202590      -0.052711
     43 H                     0.218365       0.002560
     44 C                    -0.341136       0.079215
     45 H                     0.210405      -0.004759
     46 C                    -0.200157      -0.034972
     47 H                     0.212882       0.001807
     48 C                    -0.344433       0.045162
     49 H                     0.211567      -0.002632
     50 B                     0.589177       0.247718
     51 C                    -0.114260       0.466437
     52 C                     0.113838       0.058999
     53 C                    -0.418102      -0.003922
     54 H                     0.256024      -0.001435
     55 C                     0.456629       0.234412
     56 O                    -0.400151       0.115863
     57 C                    -0.362148       0.060347
     58 H                     0.261538      -0.004426
     59 C                     0.073947      -0.036452
     60 C                    -0.431901      -0.012330
     61 H                     0.271944      -0.000039
     62 H                     0.238259       0.008167
     63 H                     0.238503       0.008026
     64 C                    -0.749565       0.003630
     65 H                     0.237013       0.001556
     66 H                     0.282434      -0.000624
     67 H                     0.285681       0.000961
     68 C                    -0.549846      -0.002728
     69 H                     0.301591      -0.000007
     70 H                     0.230768       0.001196
     71 C                    -0.656764       0.008763
     72 H                     0.285016      -0.001499
     73 H                     0.238837       0.001310
     74 H                     0.207996      -0.000440
     75 C                    -0.204448      -0.018287
     76 C                     0.071777       0.005320
     77 C                    -0.423388      -0.001517
     78 H                     0.215134       0.000293
     79 C                     0.396905       0.005147
     80 O                    -0.455693       0.002176
     81 C                    -0.379952      -0.000574
     82 H                     0.213638       0.000299
     83 C                     0.054293       0.003847
     84 C                    -0.402730      -0.000246
     85 H                     0.233894       0.000004
     86 H                     0.201250       0.000159
     87 H                     0.200980       0.000167
     88 C                    -0.753162       0.000313
     89 H                     0.226342       0.001302
     90 H                     0.241883      -0.000749
     91 H                     0.244074      -0.000437
     92 C                    -0.540060       0.002680
     93 H                     0.255867      -0.001744
     94 H                     0.216837       0.000284
     95 C                    -0.642329      -0.000075
     96 H                     0.245455      -0.000200
     97 H                     0.208593      -0.000059
     98 H                     0.208432       0.000031
  --------------------------------------------------------
  Sum of atomic charges =    -0.000000

                    Cartesian Multipole Moments
 -----------------------------------------------------------------
    Charge (ESU x 10^10)
                -0.0000
    Dipole Moment (Debye)
         X      11.4370      Y       0.6323      Z       6.2894
       Tot      13.0676
    Quadrupole Moments (Debye-Ang)
        XX    -241.9594     XY      14.0852     YY    -322.1445
        XZ      31.4524     YZ       6.2742     ZZ    -320.0036

 Total job time:  43092.70s(wall), 151320.84s(cpu)
        *  Thank you very much for using Q-Chem.  Have a nice day.  *
