 Q-Chem 5.0, Q-Chem, Inc., Pleasanton, CA (2017)
 Q-Chem 5.0.1 for Intel X86 EM64T Linux

User input:
--------------------------------------------------------------
$rem
threads 8
jobtype opt
method PBEh-3c
basis def2-mSVP
mem_static      1024
mem_total       8000
sym_ignore      true
unrestricted true
scf_algorithm	diis
scf_max_cycles	2500
solvent_method  pcm
geom_opt_tol_energy 25
geom_opt_tol_gradient 75
$end

$pcm
theory  iefpcm
$end

$solvent
dielectric      8.93
$end

$molecule
read utLEincoords.mol
$end
--------------------------------------------------------------

   26   -2202.2006958173      9.64E-09 Convergence criterion met
 Total energy in the final basis set = -2202.20069582
   17   -2202.2049322434      7.97E-09 Convergence criterion met
 Total energy in the final basis set = -2202.20493224
   17   -2202.2061251866      7.36E-09 Convergence criterion met
 Total energy in the final basis set = -2202.20612519
   16   -2202.2058638849      8.32E-09 Convergence criterion met
 Total energy in the final basis set = -2202.20586388
   15   -2202.2062594781      8.08E-09 Convergence criterion met
 Total energy in the final basis set = -2202.20625948
   15   -2202.2062814429      8.27E-09 Convergence criterion met
 Total energy in the final basis set = -2202.20628144
   15   -2202.2062692679      7.92E-09 Convergence criterion met
 Total energy in the final basis set = -2202.20626927
   15   -2202.2062635661      8.66E-09 Convergence criterion met
 Total energy in the final basis set = -2202.20626357
   15   -2202.2062599460      8.23E-09 Convergence criterion met
 Total energy in the final basis set = -2202.20625995
   15   -2202.2062528217      8.35E-09 Convergence criterion met
 Total energy in the final basis set = -2202.20625282
   15   -2202.2062490898      8.28E-09 Convergence criterion met
 Total energy in the final basis set = -2202.20624909
   15   -2202.2062474126      8.16E-09 Convergence criterion met
 Total energy in the final basis set = -2202.20624741

             Standard Nuclear Orientation (Angstroms)
    I     Atom           X                Y                Z
 ----------------------------------------------------------------
    1      C       0.0169156889    -0.3879374445     0.0352887206
    2      C       0.0156207432    -0.3972048048     1.4434713824
    3      H       0.9581294323    -0.4178468360     1.9794862258
    4      C      -1.1728219127    -0.3779413339     2.1383141839
    5      C      -2.4041427100    -0.3373165545     1.4292740348
    6      C      -2.4219611436    -0.3248304283     0.0535402858
    7      H      -3.3675812096    -0.2961370973    -0.4770718720
    8      C      -1.2196515817    -0.3545386931    -0.6723012901
    9      C      -3.4935377273    -0.3187561483     2.4007088824
   10      C      -4.8621601876    -0.2796597335     2.3212056147
   11      H      -5.3803479349    -0.2520220921     1.3703244380
   12      C      -5.6061414112    -0.2754426203     3.5249587193
   13      H      -6.6863796624    -0.2444728136     3.4647111231
   14      C      -5.0058997482    -0.3096047551     4.7634558307
   15      H      -5.6151154828    -0.3054394325     5.6590984311
   16      C      -2.8871631561    -0.3518269224     3.6696205956
   17      C      -3.5939339322    -0.3498411710     4.8678259585
   18      C      -1.4825012690    -0.3882343622     3.5692505966
   19      C      -0.7494176503    -0.4254784100     4.7261168908
   20      H       0.3329200811    -0.4554382930     4.7167490166
   21      C      -1.4397579337    -0.4249783112     5.9628185708
   22      H      -0.8590885015    -0.4548880571     6.8754667477
   23      C      -2.8131086768    -0.3884934523     6.0477073325
   24      H      -3.2956213166    -0.3896567140     7.0173543379
   25      B      -1.2694275682    -0.3509701838    -2.2214511212
   26      B       1.3608571311    -0.4142461746    -0.7265188321
   27      C       1.3480334717    -0.4640226965    -2.2639582352
   28      C       2.5463997772    -0.5642914332    -2.9619248898
   29      H       3.4825032650    -0.6103804189    -2.4172225344
   30      C       2.5497483939    -0.6001797596    -4.3452500852
   31      C       3.5924882489    -0.6954649722    -5.3117738614
   32      C       4.9772603030    -0.7963092454    -5.2673405970
   33      H       5.5150979875    -0.8163663415    -4.3286235903
   34      C       5.6755407380    -0.8746286365    -6.4813630407
   35      H       6.7545550996    -0.9532747747    -6.4526795591
   36      C       5.0442832991    -0.8573200218    -7.7157943725
   37      H       5.6338727448    -0.9220595308    -8.6217932267
   38      C       2.9579033289    -0.6786774171    -6.5805984111
   39      C       3.6342224106    -0.7570998582    -7.7969802567
   40      C       1.5442658889    -0.5762843818    -6.4715590793
   41      C       0.7815551140    -0.5511549262    -7.6366595654
   42      H      -0.2976591085    -0.4743664577    -7.6063845026
   43      C       1.4484512075    -0.6287383527    -8.8653689592
   44      H       0.8631892880    -0.6097251789    -9.7757664160
   45      C       2.8292216281    -0.7292976808    -8.9635757020
   46      H       3.2933851363    -0.7870319510    -9.9403251317
   47      C       1.2538498939    -0.5254011167    -5.0861870623
   48      C       0.0563671632    -0.4356093810    -4.3868442340
   49      H      -0.8810746689    -0.3901200009    -4.9306194933
   50      C       0.0555138171    -0.4159448479    -3.0019818073
   51      C       2.7310871112    -0.4239921262     0.0439653543
   52      C       3.4649886671     0.7456337494     0.2460592526
   53      C       4.6776063535     0.7172826523     0.9380090830
   54      H       5.2179099336     1.6460077671     1.0752321036
   55      C       5.1719425089    -0.4835016248     1.4280638516
   56      O       6.3324788393    -0.6135510844     2.1050342365
   57      C       4.4509399020    -1.6589106908     1.2175030883
   58      H       4.8489802002    -2.5960139884     1.5906348968
   59      C       3.2459955769    -1.6362627029     0.5360715260
   60      C       7.0979729363     0.5439159497     2.3508844104
   61      H       7.9728704918     0.2246358573     2.9128068235
   62      H       7.4325032286     1.0212737434     1.4251179164
   63      H       6.5504275046     1.2812773273     2.9451099793
   64      C       2.4919922621    -2.9185371583     0.3107907046
   65      H       3.0419957381    -3.7817088394     0.6846430636
   66      H       1.5209313991    -2.9045295518     0.8101245294
   67      H       2.2972533592    -3.0853308697    -0.7511497767
   68      C       2.9449471412     2.0746030245    -0.2399064625
   69      H       2.3863573836     1.9434717982    -1.1707552712
   70      H       3.7851071896     2.7296706908    -0.4840052518
   71      C       2.0514396250     2.7659370761     0.7880518372
   72      H       1.1675281849     2.1677331136     1.0114314560
   73      H       1.7111611860     3.7344667055     0.4193514258
   74      H       2.5855547073     2.9319079316     1.7244896073
   75      C      -2.6443775407    -0.2610277105    -2.9889858664
   76      C      -3.2927744392    -1.3963706519    -3.4771605127
   77      C      -4.5117377911    -1.2924399078    -4.1519558785
   78      H      -4.9811792338    -2.1991631479    -4.5150085379
   79      C      -5.0983280179    -0.0522992621    -4.3500478673
   80      O      -6.2722042537     0.1453471542    -4.9869353830
   81      C      -4.4542996084     1.0901833822    -3.8752035554
   82      H      -4.9108087467     2.0598115950    -4.0396404082
   83      C      -3.2471390008     0.9930030356    -3.2039919254
   84      C      -6.9753037742    -0.9806303357    -5.4617788389
   85      H      -7.8896684723    -0.6069838824    -5.9173788367
   86      H      -7.2423695638    -1.6693085421    -4.6550038163
   87      H      -6.4091173977    -1.5324062039    -6.2177776281
   88      C      -2.5764108342     2.2435737924    -2.7080508067
   89      H      -3.1330938379     3.1374993526    -2.9876793365
   90      H      -1.5671539852     2.3426478306    -3.1139230257
   91      H      -2.4821346882     2.2404565455    -1.6202330658
   92      C      -2.7361421062    -2.7791028948    -3.2493105934
   93      H      -1.6522978400    -2.7373897073    -3.1152597981
   94      H      -2.9057533653    -3.3925896083    -4.1383357413
   95      C      -3.3683728977    -3.4638071926    -2.0393774992
   96      H      -3.1833031966    -2.8972701422    -1.1261801487
   97      H      -2.9602027415    -4.4654603428    -1.8994458877
   98      H      -4.4486039799    -3.5564059052    -2.1595548968
 ----------------------------------------------------------------

   15   -2202.2062495099      8.32E-09 Convergence criterion met
 Total energy in the final basis set = -2202.20624951
 Final energy is   -2202.20624950991
 **  OPTIMIZATION CONVERGED  **

                    Orbital Energies (a.u.)
 --------------------------------------------------------------

 Alpha MOs
 -- Occupied --
-19.526 -19.526 -10.503 -10.503 -10.487 -10.487 -10.482 -10.482
-10.472 -10.469 -10.469 -10.468 -10.466 -10.465 -10.465 -10.465
-10.465 -10.464 -10.464 -10.463 -10.463 -10.463 -10.462 -10.461
-10.461 -10.460 -10.460 -10.459 -10.458 -10.457 -10.457 -10.454
-10.453 -10.453 -10.453 -10.452 -10.452 -10.451 -10.450 -10.449
-10.437 -10.437 -10.433 -10.433 -10.433 -10.433 -10.431 -10.431
-10.425 -10.425 -10.420 -10.420 -10.417 -10.415  -6.936  -6.935
 -1.182  -1.181  -1.028  -1.017  -0.969  -0.961  -0.955  -0.954
 -0.938  -0.933  -0.915  -0.903  -0.883  -0.882  -0.873  -0.859
 -0.855  -0.853  -0.851  -0.846  -0.826  -0.821  -0.815  -0.815
 -0.812  -0.808  -0.774  -0.773  -0.763  -0.763  -0.744  -0.737
 -0.727  -0.722  -0.708  -0.708  -0.692  -0.690  -0.681  -0.670
 -0.658  -0.648  -0.648  -0.645  -0.637  -0.636  -0.602  -0.594
 -0.592  -0.589  -0.585  -0.583  -0.582  -0.577  -0.577  -0.561
 -0.560  -0.546  -0.544  -0.537  -0.532  -0.532  -0.530  -0.523
 -0.520  -0.510  -0.505  -0.505  -0.504  -0.497  -0.497  -0.495
 -0.494  -0.493  -0.490  -0.487  -0.485  -0.484  -0.478  -0.473
 -0.472  -0.472  -0.469  -0.465  -0.463  -0.463  -0.461  -0.457
 -0.447  -0.447  -0.445  -0.442  -0.439  -0.432  -0.430  -0.427
 -0.424  -0.422  -0.420  -0.414  -0.413  -0.410  -0.408  -0.406
 -0.405  -0.401  -0.399  -0.396  -0.395  -0.390  -0.389  -0.384
 -0.381  -0.380  -0.368  -0.368  -0.365  -0.358  -0.356  -0.355
 -0.344  -0.343  -0.340  -0.319  -0.312  -0.298  -0.295  -0.278
 -0.277  -0.277  -0.268  -0.259  -0.252  -0.251  -0.185

 Beta MOs
 -- Occupied --
-19.526 -19.526 -10.503 -10.503 -10.482 -10.482 -10.480 -10.480
-10.472 -10.472 -10.471 -10.467 -10.466 -10.465 -10.465 -10.465
-10.464 -10.463 -10.463 -10.462 -10.462 -10.461 -10.461 -10.461
-10.461 -10.460 -10.460 -10.460 -10.459 -10.457 -10.457 -10.453
-10.453 -10.453 -10.452 -10.451 -10.450 -10.449 -10.448 -10.447
-10.437 -10.436 -10.433 -10.433 -10.433 -10.433 -10.431 -10.431
-10.425 -10.425 -10.420 -10.420 -10.417 -10.416  -6.935  -6.933
 -1.182  -1.181  -1.021  -1.017  -0.962  -0.959  -0.955  -0.953
 -0.934  -0.932  -0.909  -0.901  -0.883  -0.882  -0.869  -0.858
 -0.854  -0.851  -0.849  -0.846  -0.818  -0.818  -0.815  -0.815
 -0.812  -0.797  -0.773  -0.772  -0.763  -0.762  -0.735  -0.734
 -0.727  -0.720  -0.708  -0.708  -0.689  -0.683  -0.679  -0.668
 -0.657  -0.647  -0.646  -0.644  -0.637  -0.636  -0.599  -0.592
 -0.590  -0.587  -0.584  -0.583  -0.582  -0.575  -0.575  -0.560
 -0.560  -0.544  -0.542  -0.535  -0.532  -0.532  -0.528  -0.522
 -0.518  -0.509  -0.504  -0.504  -0.497  -0.496  -0.495  -0.494
 -0.492  -0.490  -0.486  -0.483  -0.483  -0.482  -0.478  -0.473
 -0.472  -0.471  -0.468  -0.465  -0.463  -0.462  -0.460  -0.455
 -0.446  -0.444  -0.442  -0.438  -0.432  -0.429  -0.427  -0.423
 -0.422  -0.420  -0.415  -0.414  -0.413  -0.409  -0.405  -0.404
 -0.399  -0.396  -0.395  -0.395  -0.395  -0.389  -0.384  -0.383
 -0.377  -0.370  -0.367  -0.365  -0.359  -0.357  -0.355  -0.342
 -0.341  -0.338  -0.330  -0.316  -0.298  -0.295  -0.277  -0.277
 -0.270  -0.263  -0.257  -0.252  -0.250

          Ground-State Mulliken Net Atomic Charges

     Atom                 Charge (a.u.)    Spin (a.u.)
  --------------------------------------------------------
      1 C                    -0.143549       0.013181
      2 C                    -0.407319      -0.003470
      3 H                     0.249585      -0.000291
      4 C                     0.093230       0.029544
      5 C                     0.077007       0.036634
      6 C                    -0.403940      -0.010169
      7 H                     0.247906       0.000075
      8 C                    -0.143428       0.017545
      9 C                     0.177646      -0.020507
     10 C                    -0.392612       0.024200
     11 H                     0.251619      -0.001402
     12 C                    -0.234016      -0.016469
     13 H                     0.256766       0.000789
     14 C                    -0.348347       0.023563
     15 H                     0.253507      -0.001348
     16 C                    -0.066040       0.017344
     17 C                     0.221852      -0.013878
     18 C                     0.178594      -0.018726
     19 C                    -0.398344       0.022053
     20 H                     0.251535      -0.001279
     21 C                    -0.232284      -0.015587
     22 H                     0.256465       0.000755
     23 C                    -0.351178       0.021580
     24 H                     0.253636      -0.001230
     25 B                     0.627532       0.164673
     26 B                     0.625292       0.163889
     27 C                    -0.140752       0.387860
     28 C                    -0.370076      -0.273469
     29 H                     0.257008       0.011341
     30 C                     0.076958       0.457111
     31 C                     0.191605      -0.211166
     32 C                    -0.388218       0.292660
     33 H                     0.252615      -0.017126
     34 C                    -0.229571      -0.200996
     35 H                     0.258417       0.009567
     36 C                    -0.354524       0.311047
     37 H                     0.255317      -0.017963
     38 C                    -0.066617       0.278533
     39 C                     0.226903      -0.194562
     40 C                     0.185353      -0.202502
     41 C                    -0.379471       0.305180
     42 H                     0.253456      -0.017924
     43 C                    -0.230259      -0.205784
     44 H                     0.259884       0.009660
     45 C                    -0.349837       0.334607
     46 H                     0.256423      -0.019316
     47 C                     0.069415       0.454121
     48 C                    -0.368901      -0.252145
     49 H                     0.255086       0.010223
     50 C                    -0.141936       0.339131
     51 C                    -0.216748      -0.017078
     52 C                     0.068263       0.002342
     53 C                    -0.448715      -0.000529
     54 H                     0.252641       0.000190
     55 C                     0.387475       0.000342
     56 O                    -0.470412       0.000075
     57 C                    -0.408701      -0.000283
     58 H                     0.238709       0.000268
     59 C                     0.049023       0.002050
     60 C                    -0.428109      -0.000012
     61 H                     0.252932       0.000003
     62 H                     0.219416       0.000007
     63 H                     0.219767       0.000006
     64 C                    -0.768217       0.000643
     65 H                     0.249711       0.000739
     66 H                     0.248566      -0.000256
     67 H                     0.246201      -0.000629
     68 C                    -0.547162       0.004214
     69 H                     0.250408      -0.001900
     70 H                     0.238257       0.000227
     71 C                    -0.658661      -0.000090
     72 H                     0.239652      -0.000200
     73 H                     0.226465       0.000000
     74 H                     0.220671       0.000090
     75 C                    -0.218243      -0.017143
     76 C                     0.063387       0.002582
     77 C                    -0.441902      -0.000609
     78 H                     0.252884       0.000218
     79 C                     0.387803       0.000494
     80 O                    -0.470564       0.000096
     81 C                    -0.408485      -0.000476
     82 H                     0.238943       0.000235
     83 C                     0.044840       0.002192
     84 C                    -0.428182      -0.000015
     85 H                     0.253065       0.000003
     86 H                     0.219891       0.000008
     87 H                     0.219533       0.000009
     88 C                    -0.767596       0.000571
     89 H                     0.249882       0.000742
     90 H                     0.245771      -0.000569
     91 H                     0.248047      -0.000261
     92 C                    -0.545087       0.003880
     93 H                     0.250983      -0.001745
     94 H                     0.237439       0.000069
     95 C                    -0.654906      -0.000119
     96 H                     0.234684      -0.000093
     97 H                     0.226691       0.000000
     98 H                     0.220298       0.000154
  --------------------------------------------------------
  Sum of atomic charges =    -0.000000

                    Cartesian Multipole Moments
 -----------------------------------------------------------------
    Charge (ESU x 10^10)
                -0.0000
    Dipole Moment (Debye)
         X       1.0526      Y      -0.2766      Z      -2.3367
       Tot       2.5777
    Quadrupole Moments (Debye-Ang)
        XX    -266.6983     XY      19.4393     YY    -323.5363
        XZ      -9.3430     YZ      14.9046     ZZ    -251.7464

 Total job time:  33412.79s(wall), 91579.79s(cpu)
        *  Thank you very much for using Q-Chem.  Have a nice day.  *
