 Q-Chem 5.0, Q-Chem, Inc., Pleasanton, CA (2017)
 Q-Chem 5.0.1 for Intel X86 EM64T Linux

User input:
--------------------------------------------------------------
$rem
threads 8
jobtype opt
method PBEh-3c
basis def2-mSVP
mem_static      1024
mem_total       8000
sym_ignore      true
unrestricted true
scf_algorithm   diis
scf_max_cycles  250
solvent_method  pcm
geom_opt_tol_energy 25
geom_opt_tol_gradient 75
$end

$pcm
theory  iefpcm
$end

$solvent
dielectric      1.0001
$end

$molecule
read utLEincoords.mol
$end

--------------------------------------------------------------

   28   -2202.1757730914      9.72E-09 Convergence criterion met
 Total energy in the final basis set = -2202.17577309
   17   -2202.1799870719      7.87E-09 Convergence criterion met
 Total energy in the final basis set = -2202.17998707
   17   -2202.1812454750      7.01E-09 Convergence criterion met
 Total energy in the final basis set = -2202.18124548
   16   -2202.1808378935      8.24E-09 Convergence criterion met
 Total energy in the final basis set = -2202.18083789
   15   -2202.1814153735      7.60E-09 Convergence criterion met
 Total energy in the final basis set = -2202.18141537
   12   -2202.1814315484      8.52E-09 Convergence criterion met
 Total energy in the final basis set = -2202.18143155
   12   -2202.1814164505      5.53E-09 Convergence criterion met
 Total energy in the final basis set = -2202.18141645
   11   -2202.1814205436      9.82E-09 Convergence criterion met
 Total energy in the final basis set = -2202.18142054
   10   -2202.1814219805      6.93E-09 Convergence criterion met
 Total energy in the final basis set = -2202.18142198
    9   -2202.1814170347      7.06E-09 Convergence criterion met
 Total energy in the final basis set = -2202.18141703
    9   -2202.1814142960      7.47E-09 Convergence criterion met
 Total energy in the final basis set = -2202.18141430
    8   -2202.1814136772      6.87E-09 Convergence criterion met
 Total energy in the final basis set = -2202.18141368

             Standard Nuclear Orientation (Angstroms)
    I     Atom           X                Y                Z
 ----------------------------------------------------------------
    1      C       0.0130685471    -0.3888130142     0.0366408623
    2      C       0.0127077330    -0.3926078634     1.4438849468
    3      H       0.9581925184    -0.4100650935     1.9750550301
    4      C      -1.1753268705    -0.3701036446     2.1382454862
    5      C      -2.4057483507    -0.3323623984     1.4296658895
    6      C      -2.4240832185    -0.3257150942     0.0545128461
    7      H      -3.3673013624    -0.2992858419    -0.4808471849
    8      C      -1.2223865349    -0.3578238720    -0.6703640764
    9      C      -3.4945433782    -0.3084150889     2.4011758096
   10      C      -4.8618912331    -0.2682273196     2.3221030742
   11      H      -5.3794319678    -0.2444026629     1.3709777829
   12      C      -5.6059552607    -0.2572903467     3.5244469365
   13      H      -6.6860590835    -0.2254234370     3.4642976462
   14      C      -5.0063259593    -0.2855375681     4.7618085540
   15      H      -5.6164541356    -0.2760396844     5.6566500557
   16      C      -2.8892934360    -0.3354489867     3.6699438488
   17      C      -3.5955646587    -0.3264036824     4.8672998425
   18      C      -1.4854074570    -0.3731620189     3.5688277072
   19      C      -0.7535338330    -0.4044293624     4.7251340170
   20      H       0.3285966052    -0.4351555401     4.7152337896
   21      C      -1.4425840882    -0.3968223856     5.9612401911
   22      H      -0.8621697417    -0.4221156431     6.8740450067
   23      C      -2.8144994520    -0.3589566626     6.0458836235
   24      H      -3.2958523613    -0.3544940590     7.0159914174
   25      B      -1.2721985058    -0.3573469251    -2.2189916570
   26      B       1.3563556664    -0.4177717850    -0.7251537791
   27      C       1.3445757273    -0.4673394746    -2.2630363641
   28      C       2.5415519448    -0.5675208733    -2.9591477264
   29      H       3.4742853503    -0.6161543201    -2.4085649952
   30      C       2.5461640868    -0.5977593700    -4.3438277169
   31      C       3.5872450093    -0.6901986476    -5.3090560097
   32      C       4.9722529398    -0.7956264068    -5.2650500534
   33      H       5.5090898124    -0.8234171858    -4.3262206370
   34      C       5.6704154572    -0.8686534478    -6.4768328755
   35      H       6.7490537844    -0.9509400228    -6.4481678007
   36      C       5.0404944427    -0.8422001162    -7.7114100527
   37      H       5.6319739083    -0.9034622028    -8.6162915731
   38      C       2.9546933788    -0.6642899973    -6.5784741732
   39      C       3.6321720645    -0.7375998367    -7.7947365490
   40      C       1.5422937560    -0.5588261847    -6.4696109783
   41      C       0.7818450661    -0.5246847622    -7.6358815087
   42      H      -0.2969324339    -0.4444575339    -7.6066576670
   43      C       1.4486476769    -0.5968845939    -8.8629845541
   44      H       0.8645985971    -0.5706571594    -9.7738668178
   45      C       2.8285049275    -0.7009176317    -8.9603716285
   46      H       3.2924542387    -0.7542413931    -9.9373637260
   47      C       1.2505980734    -0.5156863265    -5.0850275262
   48      C       0.0533057971    -0.4288744039    -4.3847519968
   49      H      -0.8877180061    -0.3788987339    -4.9222058612
   50      C       0.0530503108    -0.4176509129    -3.0008209955
   51      C       2.7260301825    -0.4310395045     0.0436759723
   52      C       3.4635796898     0.7353860749     0.2437043368
   53      C       4.6760222841     0.7011596145     0.9337601994
   54      H       5.2195854268     1.6280838384     1.0698643780
   55      C       5.1657497283    -0.5004365216     1.4233818218
   56      O       6.3267292711    -0.6364943042     2.0987580868
   57      C       4.4407443891    -1.6720172491     1.2146009569
   58      H       4.8394865752    -2.6075375307     1.5888935536
   59      C       3.2364346519    -1.6450021016     0.5356866698
   60      C       7.0946532763     0.5105210162     2.3411310895
   61      H       7.9703695953     0.1872211025     2.9002207682
   62      H       7.4315943610     0.9895764704     1.4156507130
   63      H       6.5559709192     1.2535543581     2.9386181436
   64      C       2.4760129307    -2.9230103362     0.3087980976
   65      H       3.0178626600    -3.7888229589     0.6882404801
   66      H       1.5011890492    -2.9028043766     0.8001495584
   67      H       2.2890827441    -3.0918884388    -0.7541188211
   68      C       2.9464023463     2.0653197702    -0.2421586510
   69      H       2.3936271016     1.9360259411    -1.1767278948
   70      H       3.7882254796     2.7197903397    -0.4836710806
   71      C       2.0482552451     2.7559469325     0.7817859587
   72      H       1.1594103897     2.1620328968     0.9947950635
   73      H       1.7155820153     3.7285559698     0.4170637713
   74      H       2.5749210964     2.9124992007     1.7237915961
   75      C      -2.6458462790    -0.2726956481    -2.9868487837
   76      C      -3.2850428533    -1.4086329559    -3.4830557049
   77      C      -4.5034649600    -1.3072035363    -4.1571601552
   78      H      -4.9656041355    -2.2150121267    -4.5266074201
   79      C      -5.0980361636    -0.0706748379    -4.3468480363
   80      O      -6.2727413805     0.1250995301    -4.9831617070
   81      C      -4.4628118221     1.0716557379    -3.8643823657
   82      H      -4.9286949483     2.0365654602    -4.0255419739
   83      C      -3.2567696003     0.9784549013    -3.1941134440
   84      C      -6.9640827759    -0.9946509185    -5.4665856405
   85      H      -7.8801974019    -0.6232913484    -5.9214528134
   86      H      -7.2315732826    -1.6948731353    -4.6682768035
   87      H      -6.3958199505    -1.5394755106    -6.2278847093
   88      C      -2.5918337075     2.2290247784    -2.6912040011
   89      H      -3.1539903447     3.1218435912    -2.9630334569
   90      H      -1.5851525799     2.3369708751    -3.1008261507
   91      H      -2.4933337091     2.2199882111    -1.6039805540
   92      C      -2.7191810983    -2.7884231205    -3.2615208319
   93      H      -1.6320902377    -2.7435150065    -3.1584357074
   94      H      -2.9093789367    -3.4072653372    -4.1429775201
   95      C      -3.3159068412    -3.4671757176    -2.0307035099
   96      H      -3.0983149812    -2.9001472960    -1.1255284138
   97      H      -2.9097562348    -4.4708431520    -1.8999170848
   98      H      -4.3999723709    -3.5527883441    -2.1150271390
 ----------------------------------------------------------------

    8   -2202.1814150359      5.68E-09 Convergence criterion met
 Total energy in the final basis set = -2202.18141504
 Final energy is   -2202.18141503590
 **  OPTIMIZATION CONVERGED  **

                    Orbital Energies (a.u.)
 --------------------------------------------------------------

 Alpha MOs
 -- Occupied --
-19.521 -19.521 -10.497 -10.496 -10.487 -10.487 -10.482 -10.482
-10.468 -10.467 -10.465 -10.465 -10.465 -10.465 -10.464 -10.463
-10.461 -10.460 -10.460 -10.460 -10.459 -10.459 -10.459 -10.458
-10.458 -10.458 -10.458 -10.457 -10.456 -10.456 -10.456 -10.448
-10.447 -10.447 -10.446 -10.446 -10.446 -10.445 -10.444 -10.444
-10.431 -10.431 -10.430 -10.430 -10.429 -10.428 -10.424 -10.424
-10.421 -10.421 -10.417 -10.416 -10.410 -10.409  -6.932  -6.930
 -1.179  -1.179  -1.025  -1.012  -0.966  -0.957  -0.949  -0.948
 -0.937  -0.930  -0.912  -0.898  -0.878  -0.878  -0.869  -0.854
 -0.853  -0.850  -0.847  -0.843  -0.823  -0.819  -0.812  -0.812
 -0.809  -0.804  -0.772  -0.770  -0.759  -0.759  -0.743  -0.735
 -0.725  -0.719  -0.704  -0.704  -0.690  -0.687  -0.678  -0.667
 -0.655  -0.645  -0.645  -0.642  -0.632  -0.632  -0.602  -0.592
 -0.591  -0.589  -0.583  -0.581  -0.580  -0.575  -0.575  -0.557
 -0.556  -0.544  -0.542  -0.534  -0.532  -0.532  -0.529  -0.522
 -0.518  -0.506  -0.503  -0.503  -0.500  -0.494  -0.494  -0.493
 -0.492  -0.491  -0.487  -0.483  -0.482  -0.481  -0.477  -0.471
 -0.470  -0.467  -0.465  -0.464  -0.461  -0.459  -0.457  -0.456
 -0.444  -0.444  -0.443  -0.438  -0.436  -0.429  -0.426  -0.424
 -0.419  -0.418  -0.416  -0.411  -0.409  -0.407  -0.405  -0.403
 -0.402  -0.400  -0.397  -0.393  -0.392  -0.387  -0.385  -0.380
 -0.377  -0.376  -0.364  -0.364  -0.360  -0.353  -0.350  -0.350
 -0.340  -0.338  -0.334  -0.313  -0.310  -0.294  -0.290  -0.274
 -0.270  -0.270  -0.262  -0.255  -0.246  -0.244  -0.181

 Beta MOs
 -- Occupied --
-19.521 -19.521 -10.496 -10.496 -10.487 -10.487 -10.476 -10.475
-10.470 -10.468 -10.467 -10.464 -10.463 -10.462 -10.462 -10.461
-10.461 -10.460 -10.460 -10.460 -10.460 -10.460 -10.459 -10.459
-10.458 -10.458 -10.458 -10.457 -10.456 -10.456 -10.456 -10.447
-10.446 -10.446 -10.446 -10.444 -10.444 -10.444 -10.443 -10.442
-10.431 -10.430 -10.430 -10.430 -10.429 -10.428 -10.424 -10.424
-10.421 -10.421 -10.417 -10.416 -10.410 -10.409  -6.931  -6.929
 -1.179  -1.179  -1.017  -1.012  -0.958  -0.955  -0.949  -0.948
 -0.933  -0.930  -0.905  -0.897  -0.878  -0.877  -0.866  -0.854
 -0.850  -0.848  -0.847  -0.843  -0.816  -0.814  -0.812  -0.812
 -0.808  -0.793  -0.771  -0.770  -0.759  -0.758  -0.733  -0.732
 -0.724  -0.717  -0.704  -0.703  -0.687  -0.680  -0.676  -0.664
 -0.655  -0.645  -0.643  -0.641  -0.632  -0.632  -0.598  -0.590
 -0.589  -0.587  -0.582  -0.581  -0.580  -0.574  -0.573  -0.556
 -0.556  -0.541  -0.540  -0.533  -0.532  -0.532  -0.527  -0.521
 -0.515  -0.506  -0.502  -0.501  -0.494  -0.493  -0.492  -0.492
 -0.489  -0.487  -0.482  -0.481  -0.479  -0.478  -0.476  -0.471
 -0.470  -0.467  -0.464  -0.464  -0.460  -0.459  -0.456  -0.454
 -0.443  -0.442  -0.439  -0.434  -0.429  -0.426  -0.423  -0.419
 -0.418  -0.416  -0.411  -0.411  -0.409  -0.406  -0.402  -0.401
 -0.399  -0.394  -0.393  -0.392  -0.391  -0.387  -0.380  -0.380
 -0.373  -0.366  -0.363  -0.360  -0.354  -0.351  -0.350  -0.337
 -0.336  -0.333  -0.326  -0.310  -0.296  -0.291  -0.270  -0.270
 -0.263  -0.259  -0.252  -0.245  -0.243

          Ground-State Mulliken Net Atomic Charges

     Atom                 Charge (a.u.)    Spin (a.u.)
  --------------------------------------------------------
      1 C                    -0.141684       0.014984
      2 C                    -0.405745      -0.004520
      3 H                     0.239266      -0.000208
      4 C                     0.112184       0.029639
      5 C                     0.095302       0.035426
      6 C                    -0.402716      -0.009972
      7 H                     0.237955       0.000092
      8 C                    -0.139658       0.018134
      9 C                     0.195286      -0.019539
     10 C                    -0.380629       0.022501
     11 H                     0.220888      -0.001331
     12 C                    -0.205467      -0.015457
     13 H                     0.225594       0.000761
     14 C                    -0.334150       0.022026
     15 H                     0.219027      -0.001294
     16 C                    -0.062669       0.017581
     17 C                     0.253337      -0.013265
     18 C                     0.196533      -0.018047
     19 C                    -0.386905       0.020701
     20 H                     0.220761      -0.001226
     21 C                    -0.203380      -0.014723
     22 H                     0.225381       0.000731
     23 C                    -0.337352       0.020384
     24 H                     0.219163      -0.001193
     25 B                     0.638988       0.151413
     26 B                     0.636191       0.149758
     27 C                    -0.143101       0.386524
     28 C                    -0.365030      -0.275470
     29 H                     0.245478       0.011565
     30 C                     0.087140       0.460067
     31 C                     0.204378      -0.209733
     32 C                    -0.375188       0.301698
     33 H                     0.221529      -0.018046
     34 C                    -0.201379      -0.204874
     35 H                     0.227114       0.009951
     36 C                    -0.342426       0.321984
     37 H                     0.220586      -0.019117
     38 C                    -0.068546       0.279357
     39 C                     0.256289      -0.199249
     40 C                     0.197596      -0.203776
     41 C                    -0.367232       0.311825
     42 H                     0.221561      -0.018709
     43 C                    -0.202799      -0.208764
     44 H                     0.227922       0.010043
     45 C                    -0.338444       0.339969
     46 H                     0.221198      -0.020184
     47 C                     0.080149       0.458069
     48 C                    -0.363679      -0.259133
     49 H                     0.242209       0.010714
     50 C                    -0.143187       0.349124
     51 C                    -0.220293      -0.015627
     52 C                     0.083524       0.002191
     53 C                    -0.430162      -0.000492
     54 H                     0.220076       0.000179
     55 C                     0.400952       0.000325
     56 O                    -0.453898       0.000075
     57 C                    -0.381403      -0.000255
     58 H                     0.219465       0.000255
     59 C                     0.061094       0.001830
     60 C                    -0.405226      -0.000012
     61 H                     0.238148       0.000003
     62 H                     0.202261       0.000007
     63 H                     0.203207       0.000006
     64 C                    -0.755779       0.000671
     65 H                     0.234865       0.000699
     66 H                     0.246822      -0.000247
     67 H                     0.240090      -0.000563
     68 C                    -0.544790       0.004057
     69 H                     0.248495      -0.001738
     70 H                     0.223487       0.000212
     71 C                    -0.644780      -0.000074
     72 H                     0.246340      -0.000184
     73 H                     0.216256       0.000000
     74 H                     0.213576       0.000089
     75 C                    -0.220796      -0.015875
     76 C                     0.076992       0.002533
     77 C                    -0.423857      -0.000606
     78 H                     0.220204       0.000206
     79 C                     0.401331       0.000533
     80 O                    -0.453974       0.000107
     81 C                    -0.380657      -0.000467
     82 H                     0.219714       0.000230
     83 C                     0.058151       0.002032
     84 C                    -0.405214      -0.000016
     85 H                     0.238365       0.000003
     86 H                     0.203217       0.000009
     87 H                     0.202231       0.000011
     88 C                    -0.755163       0.000601
     89 H                     0.235008       0.000687
     90 H                     0.239607      -0.000514
     91 H                     0.246586      -0.000237
     92 C                    -0.543318       0.003709
     93 H                     0.249228      -0.001562
     94 H                     0.223376       0.000076
     95 C                    -0.640695      -0.000092
     96 H                     0.240921      -0.000101
     97 H                     0.216849      -0.000000
     98 H                     0.211924       0.000136
  --------------------------------------------------------
  Sum of atomic charges =    -0.000000

                    Cartesian Multipole Moments
 -----------------------------------------------------------------
    Charge (ESU x 10^10)
                -0.0000
    Dipole Moment (Debye)
         X       0.4999      Y      -0.1442      Z      -1.1643
       Tot       1.2752
    Quadrupole Moments (Debye-Ang)
        XX    -280.0419     XY      14.8963     YY    -326.2504
        XZ      -4.1194     YZ      10.9573     ZZ    -273.7305

 Total job time:  27643.15s(wall), 76875.77s(cpu)
        *  Thank you very much for using Q-Chem.  Have a nice day.  *
