 Q-Chem 5.1, Q-Chem, Inc., Pleasanton, CA (2018)
 Q-Chem 5.1.1 for Intel X86 EM64T Linux

User input:
--------------------------------------------------------------
$solvent
dielectric      2.03
dielectric_infi 2.02
$end

$rem
threads 8
jobtype	sp
method PBEh-3c
basis def2-mSVP
mem_static	1024
mem_total	14000
sym_ignore	true
cis_n_roots             2
cis_singlets            true
cis_triplets		false
rpa                     false
calc_soc 		true
cis_moments             true
cis_relaxed_density	true
solvent_method		pcm
$end

$pcm
StateSpecific   1
ChargeSeparation Excited
$end

$molecule
read moms1opt_chx.mol
$end

--------------------------------------------------------------

   15   -2925.5390416792      5.72e-09  Convergence criterion met
 Total energy in the final basis set =    -2925.5390416792
 Total job time:  13351.76s(wall), 40127.31s(cpu)
        *  Thank you very much for using Q-Chem.  Have a nice day.  *
 Q-Chem 5.1, Q-Chem, Inc., Pleasanton, CA (2018)
 Q-Chem 5.1.1 for Intel X86 EM64T Linux

User input:
--------------------------------------------------------------
$rem
threads 8
jobtype sp
method PBEh-3c
basis def2-mSVP
mem_static      1024
mem_total       14000
sym_ignore      true
cis_n_roots             6
cis_singlets            true
cis_triplets            true
rpa                     false
calc_soc                true
cis_moments             true
cis_relaxed_density     true
solvent_method          pcm
$end

$molecule
read
$end

$pcm
statespecific           Marcus
$end

$solvent
dielectric      2.03
dielectric_infi 2.02
$end

--------------------------------------------------------------

             Standard Nuclear Orientation (Angstroms)
    I     Atom           X                Y                Z
 ----------------------------------------------------------------
    1      N       0.0000000000     0.0000000000     0.0000000000
    2      C       0.0000000000     0.0000000000     1.3751580000
    3      C       1.3036938631     0.0000000000    -0.4439199316
    4      C      -1.0769648999    -0.0014416612     2.2516988929
    5      H      -2.0962208121    -0.0126742038     1.8877724825
    6      C      -0.7940102127     0.0139018870     3.6057605409
    7      H      -1.6116791831     0.0130319581     4.3148083962
    8      C       1.7842006590    -0.0288665873    -1.7507124216
    9      H       1.1141037429    -0.0391185803    -2.6009328569
   10      C       3.1558332719    -0.0336505224    -1.9287558967
   11      H       3.5546895987    -0.0538108129    -2.9354704394
   12      C       0.5227535283     0.0336000577     4.0784299018
   13      H       0.7051724527     0.0469149542     5.1447317189
   14      C       1.5888346212     0.0375318760     3.1973449980
   15      H       2.6073852591     0.0555074584     3.5652504426
   16      C       1.3325453423     0.0189838350     1.8309261337
   17      C       4.0333227136    -0.0093003762    -0.8391510339
   18      H       5.1010687310    -0.0099612316    -1.0143170178
   19      C       3.5472292555     0.0153097246     0.4553670737
   20      H       4.2297280567     0.0302809994     1.2961619705
   21      C       2.1700435958     0.0163344973     0.6615252524
   22      C      -1.1037262965    -0.0722320405    -0.8810839899
   23      C      -1.3825345162     1.0127030987    -1.6970382441
   24      H      -0.8426624452     1.9411109250    -1.5486851724
   25      C      -1.7976465772    -1.2613831516    -1.0393538166
   26      H      -1.5714610759    -2.1029473870    -0.3939180434
   27      C      -2.2779951972     0.8823324928    -2.7509435375
   28      C      -2.7098178773    -1.3996476804    -2.0807940606
   29      C      -2.9151815746    -0.3454865152    -2.9793026365
   30      C      -3.3780589656    -2.7237169382    -2.3236743505
   31      H      -3.2099375336    -3.4198269725    -1.5020148660
   32      H      -4.4551035798    -2.6100403547    -2.4543581410
   33      H      -2.9972947552    -3.1894622093    -3.2358789810
   34      C      -2.4757895394     2.0272518759    -3.7048806425
   35      H      -2.0025484424     2.9392610555    -3.3407915226
   36      H      -3.5333467427     2.2370781380    -3.8687317488
   37      H      -2.0435802862     1.7990627345    -4.6824605082
   38      B      -3.5552425632    -0.5878231009    -4.4039286769
   39      C      -5.0047921837    -0.2715289231    -4.7888841047
   40      C      -5.9528469747     0.1213373822    -3.8210064035
   41      H      -5.6437772743     0.1874759912    -2.7822517997
   42      C      -7.2472734731     0.4216883291    -4.1827602401
   43      C      -7.6315755825     0.3448766516    -5.5549142028
   44      C      -6.7246829897    -0.0215187366    -6.5135821030
   45      H      -7.0323518409    -0.0646750351    -7.5549945689
   46      C      -5.3981991857    -0.3412810519    -6.1610007193
   47      C      -9.0357798505     0.7182257639    -5.6625357385
   48      C      -9.9313404930     0.8299812617    -6.6962249974
   49      H      -9.6521256746     0.6143662400    -7.7207584806
   50      C      -9.4664122169     1.0124959343    -4.3545701307
   51      C     -10.7594242431     1.4152553873    -4.0358647664
   52      C      -8.4202807789     0.8488240414    -3.4201758623
   53      C      -8.6908952264     1.1043750944    -2.0996087052
   54      H      -7.9353594745     0.9990923500    -1.3310966735
   55      C     -11.2517992188     1.2363933040    -6.4003705605
   56      H     -11.9614243517     1.3246307807    -7.2135350146
   57      C     -11.6663401716     1.5224578131    -5.1191702050
   58      H     -12.6893765729     1.8304022679    -4.9405892967
   59      C      -9.9972590558     1.5156126540    -1.7446138655
   60      H     -10.2064539195     1.7160216212    -0.7015761694
   61      C     -11.0081430423     1.6703938957    -2.6656235998
   62      H     -11.9918179953     1.9875699144    -2.3417217653
   63      B      -4.3783985808    -0.7191562540    -7.2288157512
   64      C      -2.9562100945    -1.1226106248    -6.8530302610
   65      C      -2.0129785679    -1.5054900566    -7.8322657423
   66      H      -2.3003341875    -1.5316173845    -8.8797162088
   67      C      -0.7325897374    -1.8384872802    -7.4755902600
   68      C      -0.3387978655    -1.8026262508    -6.1057875782
   69      C      -1.2396354199    -1.4221342079    -5.1417956701
   70      H      -0.9244368484    -1.3856991024    -4.1047819168
   71      C      -2.5622944822    -1.0718614223    -5.4830146408
   72      C       1.0705816708    -2.1831531167    -6.0315841877
   73      C       1.9970286780    -2.3280084316    -5.0285333424
   74      H       1.7462070834    -2.1638897374    -3.9876090016
   75      C       1.4837358261    -2.4273453960    -7.3580498955
   76      C       2.7752342069    -2.7996832962    -7.7259192412
   77      C       0.4279475824    -2.2367008782    -8.2719284885
   78      C       0.6764092328    -2.4317583137    -9.6085005931
   79      H      -0.0932430817    -2.2972342713   -10.3590688187
   80      C       1.9777495907    -2.8134192957   -10.0091164183
   81      H       2.1713661518    -2.9654641091   -11.0637056167
   82      C       3.0035841122    -2.9943949464    -9.1101541057
   83      H       3.9862880668    -3.2846146608    -9.4621839674
   84      C       3.3167392462    -2.7055588200    -5.3731789402
   85      H       4.0422790226    -2.8168004990    -4.5771974459
   86      C       3.7103121974    -2.9358096925    -6.6714860003
   87      H       4.7330891904    -3.2213223710    -6.8861755970
   88      C      -4.7389450148    -0.5907462595    -8.7575922581
   89      C      -5.1729816989    -1.7105422192    -9.5144258238
   90      C      -5.3581297432    -1.5939572408   -10.8703787797
   91      H      -5.7206082859    -2.4365617863   -11.4458858031
   92      C      -5.1589934397    -0.3535445344   -11.5043316988
   93      N      -5.2906049017    -0.2572150980   -12.8677501144
   94      C      -4.8147397352    -1.1996044100   -13.7822450791
   95      C      -4.0577196161    -2.3428224980   -13.5564563350
   96      H      -3.7514513242    -2.6508327822   -12.5672622352
   97      C      -3.6724847093    -3.0833423050   -14.6640698183
   98      H      -3.0909473462    -3.9830524278   -14.5169836242
   99      C      -4.0030998466    -2.6803388950   -15.9546092858
  100      H      -3.6823946024    -3.2764905167   -16.7980444198
  101      C      -4.7155244303    -1.5063859018   -16.1720253001
  102      H      -4.9372607744    -1.1780162439   -17.1790057042
  103      C      -5.1163655264    -0.7629491940   -15.0780880203
  104      C      -5.8900570064     0.7904398124   -13.5757904777
  105      C      -6.5781127776     1.8967126520   -13.1004531457
  106      H      -6.7090367066     2.0872034321   -12.0450523116
  107      C      -7.1267667954     2.7543050112   -14.0433464497
  108      H      -7.6613668581     3.6314899539   -13.7065345809
  109      C      -7.0178071963     2.4978813768   -15.4074931766
  110      H      -7.4628070595     3.1841502821   -16.1149005962
  111      C      -6.3667865209     1.3601008833   -15.8707522718
  112      H      -6.3143712756     1.1469842402   -16.9304281002
  113      C      -5.8046749736     0.5027357682   -14.9466018447
  114      C      -4.7922077804     0.7769931467   -10.7558417946
  115      H      -4.5857185742     1.7097093091   -11.2646527811
  116      C      -4.5669321249     0.6629479768    -9.4054929940
  117      C      -5.4191784426    -3.0117796096    -8.8185621120
  118      H      -5.8062260215    -3.7703579764    -9.4979414517
  119      H      -6.1295571989    -2.8866721491    -8.0003921549
  120      H      -4.4967067608    -3.3883503027    -8.3724615272
  121      C      -4.0927784892     1.8439826907    -8.6187023313
  122      H      -3.9627753112     2.7229581980    -9.2490491943
  123      H      -4.8023766646     2.0889001339    -7.8272077976
  124      H      -3.1415709084     1.6297939559    -8.1292511055
 ----------------------------------------------------------------

   15   -2925.5389857475      5.74e-09  Convergence criterion met
 Total energy in the final basis set =    -2925.5389857475

         TDDFT/TDA Excitation Energies
 ---------------------------------------------------

 Excited state   1: excitation energy (eV) =    2.2081
 Total energy for state  1:                 -2925.45784066 au
    Multiplicity: Triplet
    Trans. Mom.:  0.0000 X   0.0000 Y   0.0000 Z
    Strength   :     0.0000000000
    D(247) --> V(  1) amplitude =  0.9167

 Excited state   2: excitation energy (eV) =    2.4141
 Total energy for state  2:                 -2925.45026941 au
    Multiplicity: Triplet
    Trans. Mom.:  0.0000 X   0.0000 Y   0.0000 Z
    Strength   :     0.0000000000
    D(246) --> V(  2) amplitude =  0.4489
    D(249) --> V(  1) amplitude =  0.7894

 Excited state   3: excitation energy (eV) =    2.4796
 Total energy for state  3:                 -2925.44786093 au
    Multiplicity: Triplet
    Trans. Mom.:  0.0000 X   0.0000 Y   0.0000 Z
    Strength   :     0.0000000000
    D(246) --> V(  1) amplitude =  0.7296
    D(246) --> V(  4) amplitude = -0.2280
    D(249) --> V(  2) amplitude =  0.5113
    D(252) --> V(  1) amplitude =  0.2273

 Excited state   4: excitation energy (eV) =    2.5292
 Total energy for state  4:                 -2925.44603852 au
    Multiplicity: Triplet
    Trans. Mom.:  0.0000 X   0.0000 Y   0.0000 Z
    Strength   :     0.0000000000
    D(245) --> V(  1) amplitude = -0.2297
    D(252) --> V(  1) amplitude =  0.8943

 Excited state   5: excitation energy (eV) =    2.5479
 Total energy for state  5:                 -2925.44535357 au
    Multiplicity: Singlet
    Trans. Mom.:  0.2364 X  -0.0640 Y   0.2233 Z
    Strength   :     0.0068573688
    D(252) --> V(  1) amplitude =  0.9552

 Excited state   6: excitation energy (eV) =    2.7236
 Total energy for state  6:                 -2925.43889544 au
    Multiplicity: Triplet
    Trans. Mom.:  0.0000 X   0.0000 Y   0.0000 Z
    Strength   :     0.0000000000
    D(241) --> V(  1) amplitude = -0.3205
    D(242) --> V(  1) amplitude = -0.4362
    D(243) --> V(  1) amplitude = -0.4268
    D(247) --> V(  2) amplitude = -0.5475

 Excited state   7: excitation energy (eV) =    2.8644
 Total energy for state  7:                 -2925.43371972 au
    Multiplicity: Singlet
    Trans. Mom.: -0.0361 X   0.0244 Y  -0.0052 Z
    Strength   :     0.0001351197
    D(247) --> V(  1) amplitude =  0.9645

 Excited state   8: excitation energy (eV) =    2.9981
 Total energy for state  8:                 -2925.42880799 au
    Multiplicity: Triplet
    Trans. Mom.:  0.0000 X   0.0000 Y   0.0000 Z
    Strength   :     0.0000000000
    D(251) --> V(  1) amplitude =  0.9383

 Excited state   9: excitation energy (eV) =    3.0086
 Total energy for state  9:                 -2925.42842212 au
    Multiplicity: Singlet
    Trans. Mom.:  0.6751 X  -0.2103 Y  -0.2775 Z
    Strength   :     0.0425268609
    D(251) --> V(  1) amplitude =  0.9392

 Excited state  10: excitation energy (eV) =    3.1079
 Total energy for state 10:                 -2925.42477370 au
    Multiplicity: Singlet
    Trans. Mom.: -3.6813 X   1.1319 Y   0.9502 Z
    Strength   :     1.1981536328
    D(249) --> V(  1) amplitude =  0.9345

 Excited state  11: excitation energy (eV) =    3.4146
 Total energy for state 11:                 -2925.41350110 au
    Multiplicity: Singlet
    Trans. Mom.: -0.3999 X   0.0348 Y   0.1707 Z
    Strength   :     0.0159157650
    D(246) --> V(  1) amplitude =  0.9334

 Excited state  12: excitation energy (eV) =    3.5113
 Total energy for state 12:                 -2925.40994748 au
    Multiplicity: Singlet
    Trans. Mom.: -0.0245 X   0.0214 Y   0.0287 Z
    Strength   :     0.0001616951
    D(250) --> V(  1) amplitude =  0.9895

 ---------------------------------------------------

                    Orbital Energies (a.u.)
 --------------------------------------------------------------

 Alpha MOs
 -- Occupied --
-14.694 -14.690 -10.494 -10.492 -10.491 -10.490 -10.487 -10.486
-10.472 -10.469 -10.469 -10.469 -10.469 -10.468 -10.468 -10.468
-10.467 -10.467 -10.467 -10.466 -10.465 -10.465 -10.465 -10.465
-10.464 -10.464 -10.463 -10.463 -10.462 -10.462 -10.462 -10.461
-10.460 -10.460 -10.460 -10.460 -10.459 -10.458 -10.452 -10.452
-10.452 -10.451 -10.451 -10.451 -10.450 -10.450 -10.450 -10.450
-10.449 -10.449 -10.449 -10.449 -10.448 -10.448 -10.448 -10.447
-10.447 -10.446 -10.444 -10.443 -10.443 -10.443 -10.443 -10.442
-10.441 -10.440 -10.440 -10.439 -10.434 -10.433 -10.432 -10.431
-10.430 -10.429  -6.956  -6.948  -1.111  -1.111  -1.021  -1.019
 -0.979  -0.977  -0.966  -0.963  -0.955  -0.952  -0.948  -0.947
 -0.937  -0.935  -0.913  -0.904  -0.891  -0.889  -0.882  -0.882
 -0.863  -0.860  -0.855  -0.853  -0.851  -0.849  -0.848  -0.846
 -0.828  -0.819  -0.815  -0.814  -0.810  -0.810  -0.809  -0.808
 -0.776  -0.773  -0.772  -0.771  -0.740  -0.739  -0.733  -0.731
 -0.728  -0.725  -0.701  -0.698  -0.692  -0.690  -0.688  -0.683
 -0.680  -0.671  -0.660  -0.656  -0.653  -0.651  -0.650  -0.646
 -0.644  -0.642  -0.602  -0.600  -0.596  -0.595  -0.594  -0.591
 -0.590  -0.588  -0.586  -0.579  -0.579  -0.576  -0.573  -0.560
 -0.553  -0.552  -0.547  -0.546  -0.531  -0.530  -0.528  -0.524
 -0.522  -0.520  -0.518  -0.513  -0.509  -0.507  -0.505  -0.504
 -0.500  -0.499  -0.498  -0.495  -0.493  -0.492  -0.492  -0.491
 -0.489  -0.488  -0.487  -0.486  -0.483  -0.482  -0.481  -0.480
 -0.476  -0.475  -0.473  -0.472  -0.470  -0.469  -0.468  -0.467
 -0.466  -0.459  -0.450  -0.445  -0.443  -0.443  -0.442  -0.434
 -0.431  -0.430  -0.428  -0.425  -0.425  -0.424  -0.423  -0.418
 -0.415  -0.414  -0.413  -0.406  -0.402  -0.401  -0.400  -0.399
 -0.398  -0.397  -0.397  -0.396  -0.394  -0.394  -0.391  -0.390
 -0.385  -0.378  -0.375  -0.373  -0.366  -0.358  -0.355  -0.344
 -0.333  -0.331  -0.326  -0.320  -0.301  -0.301  -0.300  -0.298
 -0.287  -0.287  -0.286  -0.286  -0.284  -0.266  -0.261  -0.260
 -0.259  -0.255  -0.241  -0.232

          Ground-State Mulliken Net Atomic Charges

     Atom                 Charge (a.u.)
  ----------------------------------------
      1 N                    -0.728263
      2 C                     0.349799
      3 C                     0.333155
      4 C                    -0.295574
      5 H                     0.246908
      6 C                    -0.255027
      7 H                     0.234536
      8 C                    -0.295446
      9 H                     0.253928
     10 C                    -0.259204
     11 H                     0.237355
     12 C                    -0.247763
     13 H                     0.231509
     14 C                    -0.356049
     15 H                     0.225870
     16 C                     0.074925
     17 C                    -0.245592
     18 H                     0.231360
     19 C                    -0.359694
     20 H                     0.225985
     21 C                     0.095971
     22 C                     0.271269
     23 C                    -0.338664
     24 H                     0.246653
     25 C                    -0.320733
     26 H                     0.244896
     27 C                     0.034071
     28 C                     0.039848
     29 C                    -0.207912
     30 C                    -0.759305
     31 H                     0.249037
     32 H                     0.246350
     33 H                     0.250244
     34 C                    -0.768594
     35 H                     0.252206
     36 H                     0.250606
     37 H                     0.251657
     38 B                     0.676280
     39 C                    -0.154423
     40 C                    -0.405376
     41 H                     0.234319
     42 C                     0.105224
     43 C                     0.085119
     44 C                    -0.389771
     45 H                     0.240986
     46 C                    -0.147492
     47 C                     0.186976
     48 C                    -0.382195
     49 H                     0.240745
     50 C                    -0.065040
     51 C                     0.234934
     52 C                     0.184958
     53 C                    -0.388931
     54 H                     0.239279
     55 C                    -0.222427
     56 H                     0.246924
     57 C                    -0.339677
     58 H                     0.242401
     59 C                    -0.220076
     60 H                     0.245980
     61 C                    -0.342798
     62 H                     0.242756
     63 B                     0.678160
     64 C                    -0.157008
     65 C                    -0.389999
     66 H                     0.240868
     67 C                     0.089457
     68 C                     0.099586
     69 C                    -0.389344
     70 H                     0.244189
     71 C                    -0.143901
     72 C                     0.193500
     73 C                    -0.397502
     74 H                     0.248763
     75 C                    -0.067412
     76 C                     0.231938
     77 C                     0.187731
     78 C                    -0.385779
     79 H                     0.239626
     80 C                    -0.221324
     81 H                     0.246414
     82 C                    -0.340098
     83 H                     0.242050
     84 C                    -0.224106
     85 H                     0.248396
     86 C                    -0.341839
     87 H                     0.242163
     88 C                    -0.233965
     89 C                     0.064648
     90 C                    -0.395536
     91 H                     0.262362
     92 C                     0.357258
     93 N                    -0.741870
     94 C                     0.330179
     95 C                    -0.293957
     96 H                     0.262725
     97 C                    -0.247132
     98 H                     0.236525
     99 C                    -0.249554
    100 H                     0.232899
    101 C                    -0.355679
    102 H                     0.228408
    103 C                     0.084002
    104 C                     0.338760
    105 C                    -0.294613
    106 H                     0.261830
    107 C                    -0.248194
    108 H                     0.237188
    109 C                    -0.249760
    110 H                     0.232940
    111 C                    -0.353656
    112 H                     0.228783
    113 C                     0.072364
    114 C                    -0.399350
    115 H                     0.258957
    116 C                     0.048102
    117 C                    -0.763609
    118 H                     0.247290
    119 H                     0.248063
    120 H                     0.248515
    121 C                    -0.769044
    122 H                     0.249186
    123 H                     0.250000
    124 H                     0.251406
  ----------------------------------------
  Sum of atomic charges =    -0.000000

                    Cartesian Multipole Moments
 -----------------------------------------------------------------
    Charge (ESU x 10^10)
                -0.0000
    Dipole Moment (Debye)
         X      -1.8342      Y      -0.3181      Z      -0.3502
       Tot       1.8943
    Quadrupole Moments (Debye-Ang)
        XX    -364.2890     XY     -24.2993     YY    -429.0248
        XZ     -11.5413     YZ       6.8150     ZZ    -414.0163

 Total job time:  21629.06s(wall), 69654.12s(cpu)
        *  Thank you very much for using Q-Chem.  Have a nice day.  *
