 Q-Chem 5.1, Q-Chem, Inc., Pleasanton, CA (2018)
 Q-Chem 5.1.1 for Intel X86 EM64T Linux

User input:
--------------------------------------------------------------
$solvent
dielectric      2.38
dielectric_infi 2.25
$end

$rem
threads 8
jobtype	sp
method PBEh-3c
basis def2-mSVP
mem_static	1024
mem_total	14000
sym_ignore	true
cis_n_roots             2
cis_singlets            true
cis_triplets		false
rpa                     false
calc_soc 		true
cis_moments             true
cis_relaxed_density	true
solvent_method		pcm
$end

$pcm
StateSpecific   1
ChargeSeparation Excited
$end

$molecule
read moms1opt_tol.mol
$end

--------------------------------------------------------------

   15   -2925.5425252964      5.58e-09  Convergence criterion met
 Total energy in the final basis set =    -2925.5425252964

                    Orbital Energies (a.u.)
 --------------------------------------------------------------

 Alpha MOs
 -- Occupied --
-14.694 -14.690 -10.494 -10.492 -10.492 -10.491 -10.487 -10.487
-10.472 -10.469 -10.469 -10.469 -10.469 -10.468 -10.468 -10.468
-10.467 -10.467 -10.467 -10.465 -10.465 -10.465 -10.465 -10.465
-10.464 -10.464 -10.463 -10.463 -10.462 -10.462 -10.462 -10.460
-10.460 -10.460 -10.460 -10.460 -10.459 -10.458 -10.453 -10.453
-10.452 -10.451 -10.451 -10.451 -10.450 -10.450 -10.450 -10.450
-10.450 -10.449 -10.449 -10.449 -10.449 -10.448 -10.448 -10.448
-10.447 -10.447 -10.444 -10.443 -10.443 -10.443 -10.443 -10.442
-10.441 -10.441 -10.440 -10.440 -10.434 -10.433 -10.432 -10.431
-10.430 -10.429  -6.956  -6.948  -1.112  -1.112  -1.020  -1.019
 -0.979  -0.978  -0.966  -0.963  -0.956  -0.952  -0.948  -0.948
 -0.937  -0.935  -0.913  -0.904  -0.891  -0.889  -0.882  -0.881
 -0.863  -0.860  -0.855  -0.853  -0.850  -0.849  -0.848  -0.847
 -0.828  -0.819  -0.815  -0.815  -0.811  -0.810  -0.809  -0.808
 -0.776  -0.773  -0.772  -0.772  -0.740  -0.739  -0.733  -0.730
 -0.728  -0.724  -0.701  -0.698  -0.692  -0.691  -0.688  -0.683
 -0.680  -0.671  -0.660  -0.656  -0.653  -0.651  -0.650  -0.646
 -0.644  -0.642  -0.602  -0.600  -0.596  -0.594  -0.594  -0.591
 -0.590  -0.589  -0.586  -0.579  -0.579  -0.576  -0.573  -0.560
 -0.553  -0.552  -0.547  -0.546  -0.531  -0.530  -0.528  -0.524
 -0.522  -0.520  -0.518  -0.513  -0.510  -0.507  -0.505  -0.504
 -0.500  -0.499  -0.498  -0.495  -0.493  -0.492  -0.492  -0.492
 -0.490  -0.488  -0.488  -0.486  -0.482  -0.482  -0.481  -0.480
 -0.475  -0.475  -0.473  -0.471  -0.470  -0.469  -0.468  -0.467
 -0.466  -0.459  -0.449  -0.444  -0.443  -0.443  -0.442  -0.433
 -0.431  -0.429  -0.428  -0.426  -0.425  -0.424  -0.423  -0.419
 -0.416  -0.414  -0.413  -0.406  -0.402  -0.401  -0.399  -0.399
 -0.398  -0.397  -0.397  -0.396  -0.394  -0.394  -0.391  -0.390
 -0.385  -0.378  -0.375  -0.373  -0.366  -0.358  -0.355  -0.344
 -0.334  -0.331  -0.326  -0.320  -0.301  -0.301  -0.300  -0.298
 -0.287  -0.287  -0.286  -0.286  -0.284  -0.266  -0.261  -0.261
 -0.259  -0.256  -0.242  -0.232

          Ground-State Mulliken Net Atomic Charges

     Atom                 Charge (a.u.)
  ----------------------------------------
      1 N                    -0.727621
      2 C                     0.349283
      3 C                     0.332793
      4 C                    -0.297544
      5 H                     0.249112
      6 C                    -0.257543
      7 H                     0.237285
      8 C                    -0.296881
      9 H                     0.255936
     10 C                    -0.261035
     11 H                     0.239538
     12 C                    -0.250675
     13 H                     0.234103
     14 C                    -0.357829
     15 H                     0.229045
     16 C                     0.072713
     17 C                    -0.248466
     18 H                     0.233994
     19 C                    -0.361459
     20 H                     0.229116
     21 C                     0.093652
     22 C                     0.270838
     23 C                    -0.339641
     24 H                     0.248363
     25 C                    -0.321982
     26 H                     0.246767
     27 C                     0.032879
     28 C                     0.039062
     29 C                    -0.207823
     30 C                    -0.760465
     31 H                     0.250400
     32 H                     0.246936
     33 H                     0.250429
     34 C                    -0.769627
     35 H                     0.253576
     36 H                     0.250869
     37 H                     0.251901
     38 B                     0.676671
     39 C                    -0.155063
     40 C                    -0.405484
     41 H                     0.236245
     42 C                     0.103490
     43 C                     0.083588
     44 C                    -0.389933
     45 H                     0.242391
     46 C                    -0.147776
     47 C                     0.185153
     48 C                    -0.383053
     49 H                     0.243582
     50 C                    -0.065381
     51 C                     0.231983
     52 C                     0.183302
     53 C                    -0.389785
     54 H                     0.242331
     55 C                    -0.224938
     56 H                     0.249567
     57 C                    -0.340795
     58 H                     0.245451
     59 C                    -0.222625
     60 H                     0.248683
     61 C                    -0.343908
     62 H                     0.245801
     63 B                     0.678794
     64 C                    -0.157242
     65 C                    -0.390461
     66 H                     0.242285
     67 C                     0.087883
     68 C                     0.098084
     69 C                    -0.389775
     70 H                     0.245841
     71 C                    -0.144289
     72 C                     0.191669
     73 C                    -0.397541
     74 H                     0.250374
     75 C                    -0.067807
     76 C                     0.229022
     77 C                     0.185938
     78 C                    -0.386663
     79 H                     0.242493
     80 C                    -0.223836
     81 H                     0.249087
     82 C                    -0.341206
     83 H                     0.245147
     84 C                    -0.226195
     85 H                     0.250702
     86 C                    -0.342975
     87 H                     0.245274
     88 C                    -0.233120
     89 C                     0.063220
     90 C                    -0.395876
     91 H                     0.264042
     92 C                     0.355422
     93 N                    -0.741005
     94 C                     0.329456
     95 C                    -0.295747
     96 H                     0.264877
     97 C                    -0.249445
     98 H                     0.239362
     99 C                    -0.252618
    100 H                     0.235454
    101 C                    -0.357792
    102 H                     0.231643
    103 C                     0.082306
    104 C                     0.337966
    105 C                    -0.296352
    106 H                     0.263835
    107 C                    -0.250520
    108 H                     0.239972
    109 C                    -0.252821
    110 H                     0.235491
    111 C                    -0.355761
    112 H                     0.232042
    113 C                     0.070680
    114 C                    -0.399696
    115 H                     0.260680
    116 C                     0.046389
    117 C                    -0.764722
    118 H                     0.248740
    119 H                     0.248472
    120 H                     0.248837
    121 C                    -0.770151
    122 H                     0.250732
    123 H                     0.250238
    124 H                     0.251669
  ----------------------------------------
  Sum of atomic charges =    -0.000000

                    Cartesian Multipole Moments
 -----------------------------------------------------------------
    Charge (ESU x 10^10)
                -0.0000
    Dipole Moment (Debye)
         X      -1.8411      Y      -0.3297      Z      -0.3416
       Tot       1.9013
    Quadrupole Moments (Debye-Ang)
        XX    -362.9615     XY     -24.6120     YY    -428.6310
        XZ     -12.3108     YZ       7.1398     ZZ    -413.5227

 Total job time:  17454.50s(wall), 51621.65s(cpu)
        *  Thank you very much for using Q-Chem.  Have a nice day.  *
 Q-Chem 5.1, Q-Chem, Inc., Pleasanton, CA (2018)
 Q-Chem 5.1.1 for Intel X86 EM64T Linux

User input:
--------------------------------------------------------------
$rem
threads 8
jobtype sp
method PBEh-3c
basis def2-mSVP
mem_static      1024
mem_total       14000
sym_ignore      true
cis_n_roots             6
cis_singlets            true
cis_triplets            true
rpa                     false
calc_soc                true
cis_moments             true
cis_relaxed_density     true
solvent_method          pcm
$end

$molecule
read
$end

$pcm
statespecific           Marcus
$end

$solvent
dielectric      2.38
dielectric_infi 2.25
$end

--------------------------------------------------------------

             Standard Nuclear Orientation (Angstroms)
    I     Atom           X                Y                Z
 ----------------------------------------------------------------
    1      N       0.0000000000     0.0000000000     0.0000000000
    2      C       0.0000000000     0.0000000000     1.3751340000
    3      C       1.3036425954     0.0000000000    -0.4439494991
    4      C      -1.0769829059    -0.0011002392     2.2518195967
    5      H      -2.0963963988    -0.0122819778     1.8882439413
    6      C      -0.7938930862     0.0142909399     3.6059597356
    7      H      -1.6115606368     0.0136339029     4.3150384583
    8      C       1.7840416047    -0.0284552153    -1.7508694968
    9      H       1.1140241068    -0.0393115493    -2.6011641160
   10      C       3.1557503725    -0.0325393556    -1.9289341202
   11      H       3.5547121164    -0.0524192403    -2.9356167707
   12      C       0.5230336502     0.0337224735     4.0786182350
   13      H       0.7054860052     0.0470565593     5.1449353994
   14      C       1.5891853817     0.0373440512     3.1974463720
   15      H       2.6078205954     0.0551335511     3.5652002718
   16      C       1.3326303874     0.0187911514     1.8309471906
   17      C       4.0334105874    -0.0080739363    -0.8392972970
   18      H       5.1011550192    -0.0082340957    -1.0146099561
   19      C       3.5474691017     0.0158175710     0.4553938825
   20      H       4.2299713897     0.0307440560     1.2962086431
   21      C       2.1701402055     0.0162975238     0.6614820375
   22      C      -1.1040673571    -0.0685586624    -0.8812117870
   23      C      -1.3836952334     1.0202858569    -1.6917039543
   24      H      -0.8438031623     1.9481107770    -1.5396406223
   25      C      -1.7976162748    -1.2572506956    -1.0447081054
   26      H      -1.5709891301    -2.1019055459    -0.4034476736
   27      C      -2.2806348363     0.8949831625    -2.7451125487
   28      C      -2.7109793997    -1.3905300863    -2.0858819098
   29      C      -2.9181109386    -0.3318155195    -2.9787676391
   30      C      -3.3797579900    -2.7134569147    -2.3336749581
   31      H      -3.2069936822    -3.4145490768    -1.5172391068
   32      H      -4.4575496663    -2.5995928101    -2.4581037108
   33      H      -3.0034906693    -3.1732575360    -3.2507340601
   34      C      -2.4801302179     2.0450861837    -3.6924687447
   35      H      -2.0064185501     2.9551456490    -3.3241435733
   36      H      -3.5379693854     2.2556796811    -3.8535383748
   37      H      -2.0496154182     1.8224893535    -4.6720578933
   38      B      -3.5637470624    -0.5662207057    -4.4024743606
   39      C      -5.0148835489    -0.2474368057    -4.7792183130
   40      C      -5.9585344246     0.1404103456    -3.8047493852
   41      H      -5.6450894256     0.2010429460    -2.7669378601
   42      C      -7.2546337096     0.4426042735    -4.1589106842
   43      C      -7.6453709112     0.3730431143    -5.5298039759
   44      C      -6.7427330015     0.0118166263    -6.4947285291
   45      H      -7.0548787872    -0.0254655592    -7.5349545638
   46      C      -5.4146831372    -0.3098154951    -6.1501252252
   47      C      -9.0500341909     0.7468800873    -5.6288448720
   48      C      -9.9504821266     0.8642489311    -6.6578721238
   49      H      -9.6760149599     0.6544613871    -7.6848952839
   50      C      -9.4746242523     1.0340051803    -4.3171811234
   51      C     -10.7662680034     1.4349136214    -3.9902331549
   52      C      -8.4241076886     0.8655550742    -3.3884779557
   53      C      -8.6884791409     1.1141506178    -2.0651624270
   54      H      -7.9293403062     1.0049996809    -1.3007134437
   55      C     -11.2696561918     1.2689230543    -6.3535063767
   56      H     -11.9830045270     1.3616139299    -7.1629170633
   57      C     -11.6783904694     1.5478895367    -5.0687351284
   58      H     -12.7006076429     1.8547597748    -4.8836591698
   59      C      -9.9932969437     1.5233444586    -1.7018975079
   60      H     -10.1975979611     1.7182744183    -0.6568367793
   61      C     -11.0086373087     1.6827707656    -2.6174236959
   62      H     -11.9908471501     1.9981100100    -2.2872887436
   63      B      -4.4004363221    -0.6820774222    -7.2257822991
   64      C      -2.9767735229    -1.0882604384    -6.8571622429
   65      C      -2.0387788052    -1.4674122145    -7.8426607621
   66      H      -2.3315688635    -1.4881481297    -8.8886480509
   67      C      -0.7567671312    -1.8032973905    -7.4938328195
   68      C      -0.3560553383    -1.7740065487    -6.1256954034
   69      C      -1.2518635858    -1.3975336475    -5.1554618549
   70      H      -0.9314034500    -1.3661768677    -4.1198569655
   71      C      -2.5761620442    -1.0449124151    -5.4886181027
   72      C       1.0535009994    -2.1559510740    -6.0603363258
   73      C       1.9849902164    -2.3060834196    -5.0625988405
   74      H       1.7393686577    -2.1463336407    -4.0197326995
   75      C       1.4596572466    -2.3946122670    -7.3900350968
   76      C       2.7489845626    -2.7666519598    -7.7661202636
   77      C       0.3993122630    -2.1990207587    -8.2977522909
   78      C       0.6406826668    -2.3887429317    -9.6365471566
   79      H      -0.1326829738    -2.2505474628   -10.3826121639
   80      C       1.9397187406    -2.7699965930   -10.0453411935
   81      H       2.1276609033    -2.9178446396   -11.1015564829
   82      C       2.9701559060    -2.9557096912    -9.1524366419
   83      H       3.9507790658    -3.2453846096    -9.5106933904
   84      C       3.3026318396    -2.6834342121    -5.4156223107
   85      H       4.0322351989    -2.7989034626    -4.6239498246
   86      C       3.6893909310    -2.9083220458    -6.7170522031
   87      H       4.7107797538    -3.1938614334    -6.9382810174
   88      C      -4.7696254440    -0.5480198387    -8.7528155919
   89      C      -5.2133839375    -1.6628948722    -9.5092193505
   90      C      -5.4089403000    -1.5412674099   -10.8639454939
   91      H      -5.7787563770    -2.3809030555   -11.4391534143
   92      C      -5.2090915139    -0.3001628602   -11.4949016532
   93      N      -5.3505900265    -0.1986273266   -12.8578828835
   94      C      -4.8830362706    -1.1384777460   -13.7783649087
   95      C      -4.1266268242    -2.2838885052   -13.5609863671
   96      H      -3.8139520573    -2.5953414254   -12.5748661583
   97      C      -3.7512205561    -3.0221179510   -14.6736810432
   98      H      -3.1705516556    -3.9234965770   -14.5336051445
   99      C      -4.0906532722    -2.6144840022   -15.9604284483
  100      H      -3.7774447024    -3.2087653257   -16.8080148052
  101      C      -4.8026532357    -1.4380718711   -16.1696521557
  102      H      -5.0311732658    -1.1065367279   -17.1740690173
  103      C      -5.1937481480    -0.6974199352   -15.0708357397
  104      C      -5.9536044861     0.8521191092   -13.5572163004
  105      C      -6.6354162067     1.9581645757   -13.0720714965
  106      H      -6.7573017159     2.1452237653   -12.0149644610
  107      C      -7.1895019855     2.8204360599   -14.0077050603
  108      H      -7.7194741212     3.6976296921   -13.6637012550
  109      C      -7.0916529642     2.5684528034   -15.3734826940
  110      H      -7.5406964935     3.2581342503   -16.0750130468
  111      C      -6.4464197852     1.4306547230   -15.8464617357
  112      H      -6.4027238743     1.2214543598   -16.9073086337
  113      C      -5.8791191123     0.5692062038   -14.9299245895
  114      C      -4.8310021401     0.8258141065   -10.7462797994
  115      H      -4.6244741156     1.7596155705   -11.2531252513
  116      C      -4.5964878302     0.7059040369    -9.3973971040
  117      C      -5.4591435706    -2.9667130566    -8.8172320894
  118      H      -5.8515772171    -3.7212593807    -9.4979910676
  119      H      -6.1654958761    -2.8438341361    -7.9952604903
  120      H      -4.5354752521    -3.3481890643    -8.3779224423
  121      C      -4.1123623875     1.8834423592    -8.6107252656
  122      H      -3.9842573074     2.7636524665    -9.2397296188
  123      H      -4.8153166422     2.1291502420    -7.8135701301
  124      H      -3.1579560090     1.6654769526    -8.1291922967
 ----------------------------------------------------------------

   15   -2925.5419457353      5.68e-09  Convergence criterion met
 Total energy in the final basis set =    -2925.5419457353

         TDDFT/TDA Excitation Energies
 ---------------------------------------------------

 Excited state   1: excitation energy (eV) =    2.2107
 Total energy for state  1:                 -2925.46070454 au
    Multiplicity: Triplet
    Trans. Mom.:  0.0000 X   0.0000 Y   0.0000 Z
    Strength   :     0.0000000000
    D(247) --> V(  1) amplitude =  0.9180

 Excited state   2: excitation energy (eV) =    2.4135
 Total energy for state  2:                 -2925.45325288 au
    Multiplicity: Triplet
    Trans. Mom.:  0.0000 X   0.0000 Y   0.0000 Z
    Strength   :     0.0000000000
    D(246) --> V(  2) amplitude = -0.4486
    D(248) --> V(  1) amplitude =  0.7887

 Excited state   3: excitation energy (eV) =    2.4787
 Total energy for state  3:                 -2925.45085367 au
    Multiplicity: Triplet
    Trans. Mom.:  0.0000 X   0.0000 Y   0.0000 Z
    Strength   :     0.0000000000
    D(246) --> V(  1) amplitude =  0.7176
    D(246) --> V(  4) amplitude =  0.2236
    D(248) --> V(  2) amplitude = -0.5021
    D(252) --> V(  1) amplitude =  0.2845

 Excited state   4: excitation energy (eV) =    2.5164
 Total energy for state  4:                 -2925.44946952 au
    Multiplicity: Triplet
    Trans. Mom.:  0.0000 X   0.0000 Y   0.0000 Z
    Strength   :     0.0000000000
    D(245) --> V(  1) amplitude = -0.2402
    D(246) --> V(  1) amplitude = -0.2129
    D(252) --> V(  1) amplitude =  0.8754

 Excited state   5: excitation energy (eV) =    2.5331
 Total energy for state  5:                 -2925.44885772 au
    Multiplicity: Singlet
    Trans. Mom.:  0.2312 X  -0.0632 Y   0.2088 Z
    Strength   :     0.0062710395
    D(245) --> V(  1) amplitude = -0.2245
    D(252) --> V(  1) amplitude =  0.9558

 Excited state   6: excitation energy (eV) =    2.7255
 Total energy for state  6:                 -2925.44178575 au
    Multiplicity: Triplet
    Trans. Mom.:  0.0000 X   0.0000 Y   0.0000 Z
    Strength   :     0.0000000000
    D(241) --> V(  1) amplitude =  0.5775
    D(242) --> V(  1) amplitude = -0.3832
    D(247) --> V(  2) amplitude = -0.5481

 Excited state   7: excitation energy (eV) =    2.8660
 Total energy for state  7:                 -2925.43662217 au
    Multiplicity: Singlet
    Trans. Mom.: -0.0197 X   0.0195 Y  -0.0078 Z
    Strength   :     0.0000582142
    D(247) --> V(  1) amplitude =  0.9660

 Excited state   8: excitation energy (eV) =    3.0109
 Total energy for state  8:                 -2925.43129741 au
    Multiplicity: Triplet
    Trans. Mom.:  0.0000 X   0.0000 Y   0.0000 Z
    Strength   :     0.0000000000
    D(251) --> V(  1) amplitude =  0.9361

 Excited state   9: excitation energy (eV) =    3.0208
 Total energy for state  9:                 -2925.43093325 au
    Multiplicity: Singlet
    Trans. Mom.:  0.8737 X  -0.2710 Y  -0.3371 Z
    Strength   :     0.0703448578
    D(248) --> V(  1) amplitude =  0.2262
    D(251) --> V(  1) amplitude =  0.9281

 Excited state  10: excitation energy (eV) =    3.1000
 Total energy for state 10:                 -2925.42802438 au
    Multiplicity: Singlet
    Trans. Mom.:  3.7001 X  -1.1368 Y  -0.9784 Z
    Strength   :     1.2106030015
    D(248) --> V(  1) amplitude =  0.9262
    D(251) --> V(  1) amplitude = -0.2222

 Excited state  11: excitation energy (eV) =    3.4067
 Total energy for state 11:                 -2925.41675185 au
    Multiplicity: Singlet
    Trans. Mom.: -0.3772 X   0.0275 Y   0.1595 Z
    Strength   :     0.0140583822
    D(246) --> V(  1) amplitude =  0.9351

 Excited state  12: excitation energy (eV) =    3.5261
 Total energy for state 12:                 -2925.41236345 au
    Multiplicity: Singlet
    Trans. Mom.: -0.0281 X   0.0205 Y   0.0278 Z
    Strength   :     0.0001711045
    D(250) --> V(  1) amplitude =  0.9900

 ---------------------------------------------------
