 Q-Chem 5.1, Q-Chem, Inc., Pleasanton, CA (2018)
 Q-Chem 5.1.1 for Intel X86 EM64T Linux

User input:
--------------------------------------------------------------
$solvent
dielectric      8.93
dielectric_infi 2.03
$end

$rem
threads 8
jobtype	sp
method PBEh-3c
basis def2-mSVP
mem_static	1024
mem_total	14000
sym_ignore	true
cis_n_roots             2
cis_singlets            true
cis_triplets		false
rpa                     false
calc_soc 		true
cis_moments             true
cis_relaxed_density	true
solvent_method		pcm
$end

$pcm
StateSpecific   1
ChargeSeparation Excited
$end

$molecule
read moms1opt_dcm.mol
$end

--------------------------------------------------------------

   14   -2925.5591913127      9.66e-09  Convergence criterion met
 Total energy in the final basis set =    -2925.5591913127

                    Orbital Energies (a.u.)
 --------------------------------------------------------------

 Alpha MOs
 -- Occupied --
-14.696 -14.692 -10.495 -10.494 -10.493 -10.493 -10.491 -10.490
-10.472 -10.471 -10.470 -10.470 -10.469 -10.468 -10.468 -10.468
-10.468 -10.467 -10.467 -10.466 -10.466 -10.465 -10.464 -10.464
-10.464 -10.463 -10.463 -10.463 -10.463 -10.461 -10.461 -10.460
-10.460 -10.460 -10.460 -10.460 -10.460 -10.460 -10.455 -10.455
-10.453 -10.453 -10.453 -10.453 -10.453 -10.453 -10.452 -10.452
-10.451 -10.451 -10.451 -10.450 -10.450 -10.450 -10.450 -10.450
-10.449 -10.448 -10.445 -10.445 -10.444 -10.444 -10.444 -10.444
-10.443 -10.442 -10.442 -10.442 -10.435 -10.431 -10.431 -10.431
-10.430 -10.430  -6.957  -6.951  -1.115  -1.114  -1.020  -1.020
 -0.980  -0.980  -0.966  -0.963  -0.958  -0.955  -0.950  -0.949
 -0.936  -0.935  -0.913  -0.904  -0.892  -0.891  -0.882  -0.881
 -0.864  -0.861  -0.857  -0.855  -0.850  -0.849  -0.849  -0.848
 -0.829  -0.819  -0.817  -0.815  -0.813  -0.811  -0.810  -0.809
 -0.776  -0.773  -0.772  -0.772  -0.741  -0.740  -0.735  -0.730
 -0.729  -0.724  -0.702  -0.699  -0.693  -0.692  -0.690  -0.683
 -0.681  -0.671  -0.661  -0.657  -0.654  -0.652  -0.650  -0.647
 -0.645  -0.644  -0.602  -0.600  -0.596  -0.595  -0.593  -0.592
 -0.591  -0.590  -0.585  -0.579  -0.578  -0.577  -0.574  -0.560
 -0.554  -0.553  -0.547  -0.546  -0.531  -0.530  -0.529  -0.524
 -0.523  -0.521  -0.518  -0.513  -0.511  -0.507  -0.505  -0.505
 -0.501  -0.500  -0.498  -0.496  -0.495  -0.494  -0.493  -0.492
 -0.490  -0.490  -0.490  -0.486  -0.483  -0.482  -0.482  -0.481
 -0.475  -0.474  -0.473  -0.471  -0.470  -0.468  -0.468  -0.468
 -0.465  -0.458  -0.449  -0.443  -0.442  -0.442  -0.442  -0.433
 -0.430  -0.429  -0.429  -0.426  -0.426  -0.426  -0.424  -0.421
 -0.419  -0.414  -0.414  -0.406  -0.403  -0.400  -0.399  -0.399
 -0.399  -0.398  -0.397  -0.396  -0.395  -0.394  -0.392  -0.392
 -0.385  -0.380  -0.378  -0.374  -0.368  -0.359  -0.356  -0.345
 -0.337  -0.335  -0.327  -0.321  -0.304  -0.304  -0.300  -0.299
 -0.289  -0.288  -0.288  -0.286  -0.286  -0.267  -0.264  -0.263
 -0.260  -0.259  -0.245  -0.235

          Ground-State Mulliken Net Atomic Charges

     Atom                 Charge (a.u.)
  ----------------------------------------
      1 N                    -0.724540
      2 C                     0.346995
      3 C                     0.334748
      4 C                    -0.307035
      5 H                     0.258680
      6 C                    -0.268651
      7 H                     0.249615
      8 C                    -0.307419
      9 H                     0.266008
     10 C                    -0.270491
     11 H                     0.250269
     12 C                    -0.263517
     13 H                     0.245692
     14 C                    -0.365887
     15 H                     0.243190
     16 C                     0.062873
     17 C                    -0.261305
     18 H                     0.245759
     19 C                    -0.369533
     20 H                     0.243016
     21 C                     0.082765
     22 C                     0.266617
     23 C                    -0.330548
     24 H                     0.254352
     25 C                    -0.338606
     26 H                     0.255104
     27 C                     0.026272
     28 C                     0.038606
     29 C                    -0.207299
     30 C                    -0.766848
     31 H                     0.256755
     32 H                     0.249487
     33 H                     0.250725
     34 C                    -0.773536
     35 H                     0.260027
     36 H                     0.251971
     37 H                     0.252567
     38 B                     0.679923
     39 C                    -0.155802
     40 C                    -0.405542
     41 H                     0.244894
     42 C                     0.095582
     43 C                     0.075480
     44 C                    -0.390195
     45 H                     0.249266
     46 C                    -0.151804
     47 C                     0.176182
     48 C                    -0.386193
     49 H                     0.256369
     50 C                    -0.067310
     51 C                     0.217894
     52 C                     0.175864
     53 C                    -0.393532
     54 H                     0.256009
     55 C                    -0.236217
     56 H                     0.261613
     57 C                    -0.345172
     58 H                     0.259351
     59 C                    -0.233951
     60 H                     0.260962
     61 C                    -0.348521
     62 H                     0.259648
     63 B                     0.680507
     64 C                    -0.155789
     65 C                    -0.392531
     66 H                     0.249201
     67 C                     0.080123
     68 C                     0.089764
     69 C                    -0.392685
     70 H                     0.254485
     71 C                    -0.149784
     72 C                     0.177143
     73 C                    -0.390016
     74 H                     0.255509
     75 C                    -0.069836
     76 C                     0.215189
     77 C                     0.182294
     78 C                    -0.399099
     79 H                     0.260449
     80 C                    -0.235189
     81 H                     0.261303
     82 C                    -0.345465
     83 H                     0.259305
     84 C                    -0.236138
     85 H                     0.261268
     86 C                    -0.347325
     87 H                     0.259501
     88 C                    -0.225771
     89 C                     0.055228
     90 C                    -0.392378
     91 H                     0.271028
     92 C                     0.344126
     93 N                    -0.736101
     94 C                     0.326731
     95 C                    -0.304270
     96 H                     0.273505
     97 C                    -0.259221
     98 H                     0.251835
     99 C                    -0.266814
    100 H                     0.246437
    101 C                     0.334312
    102 C                    -0.304471
    103 H                     0.271843
    104 C                    -0.260390
    105 H                     0.252143
    106 C                    -0.266976
    107 H                     0.246487
    108 C                    -0.366004
    109 H                     0.246427
    110 C                     0.064273
    111 C                    -0.368017
    112 H                     0.245906
    113 C                     0.075382
    114 C                    -0.396908
    115 H                     0.268054
    116 C                     0.036172
    117 C                    -0.768572
    118 H                     0.255706
    119 H                     0.249560
    120 H                     0.249946
    121 C                    -0.774606
    122 H                     0.258261
    123 H                     0.251101
    124 H                     0.252174
  ----------------------------------------
  Sum of atomic charges =    -0.000000

                    Cartesian Multipole Moments
 -----------------------------------------------------------------
    Charge (ESU x 10^10)
                -0.0000
    Dipole Moment (Debye)
         X      -1.8353      Y      -0.4946      Z      -0.3553
       Tot       1.9337
    Quadrupole Moments (Debye-Ang)
        XX    -356.3309     XY     -21.8201     YY    -430.9916
        XZ     -21.3593     YZ       9.6738     ZZ    -408.4476

 Total job time:  16257.56s(wall), 47741.78s(cpu)
        *  Thank you very much for using Q-Chem.  Have a nice day.  *
 Q-Chem 5.1, Q-Chem, Inc., Pleasanton, CA (2018)
 Q-Chem 5.1.1 for Intel X86 EM64T Linux

User input:
--------------------------------------------------------------
$rem
threads 8
jobtype sp
method PBEh-3c
basis def2-mSVP
mem_static      1024
mem_total       14000
sym_ignore      true
cis_n_roots             6
cis_singlets            true
cis_triplets            true
rpa                     false
calc_soc                true
cis_moments             true
cis_relaxed_density     true
solvent_method          pcm
$end

$molecule
read
$end

$pcm
statespecific           Marcus
$end

$solvent
dielectric      8.93
dielectric_infi 2.03
$end

--------------------------------------------------------------

             Standard Nuclear Orientation (Angstroms)
    I     Atom           X                Y                Z
 ----------------------------------------------------------------
    1      N       0.0000000000     0.0000000000     0.0000000000
    2      C       0.0000000000     0.0000000000     1.3749030000
    3      C       1.3027512249     0.0000000000    -0.4441285167
    4      C      -1.0771302756     0.0143114685     2.2521515358
    5      H      -2.0975194539     0.0160606540     1.8906059612
    6      C      -0.7933350933     0.0281612897     3.6068115344
    7      H      -1.6109622220     0.0396981794     4.3159745845
    8      C       1.7794105936    -0.0050169090    -1.7527785930
    9      H       1.1070871473    -0.0021962387    -2.6015965185
   10      C       3.1510951778    -0.0033458020    -1.9340692706
   11      H       3.5489691724    -0.0041612581    -2.9413631384
   12      C       0.5245356331     0.0297267010     4.0795663421
   13      H       0.7071987328     0.0421276855     5.1459266663
   14      C       1.5912302807     0.0178573241     3.1980313258
   15      H       2.6103553599     0.0231174477     3.5651411658
   16      C       1.3334357779     0.0033402329     1.8308474917
   17      C       4.0313086317     0.0027996322    -0.8452496693
   18      H       5.0987594873     0.0067323970    -1.0228162318
   19      C       3.5487966004     0.0043317268     0.4515979642
   20      H       4.2333213016     0.0075448440     1.2910072023
   21      C       2.1709738623     0.0018522929     0.6605362556
   22      C      -1.1059746040     0.0162192840    -0.8831932601
   23      C      -1.8079350962    -1.1486101967    -1.1500539460
   24      H      -1.5847652619    -2.0497703742    -0.5897485212
   25      C      -1.3792165536     1.1761890172    -1.5909180340
   26      H      -0.8263484734     2.0806195279    -1.3628900062
   27      C      -2.2906943990     1.1567905368    -2.6396582907
   28      C      -2.7341888702    -1.1773427778    -2.1889443646
   29      C      -2.9475312308    -0.0369574165    -2.9735388995
   30      C      -3.4258404123    -2.4636341281    -2.5433548374
   31      H      -3.2140396455    -3.2509984395    -1.8201981179
   32      H      -4.5081805174    -2.3340328790    -2.5930057985
   33      H      -3.1063064062    -2.8203663699    -3.5255034684
   34      C      -2.4849715293     2.3919389070    -3.4747178668
   35      H      -2.0355851884     3.2676245671    -3.0062341786
   36      H      -3.5410454025     2.6043218841    -3.6448675468
   37      H      -2.0246097508     2.2726436032    -4.4586641198
   38      B      -3.6642887854    -0.1178338170    -4.3810904906
   39      C      -5.1444646982     0.1954328188    -4.6285778098
   40      C      -6.0388393485     0.4166366855    -3.5582354963
   41      H      -5.6680001387     0.3528384072    -2.5395439899
   42      C      -7.3632890609     0.7107199929    -3.7954198755
   43      C      -7.8352422756     0.8075355562    -5.1399290764
   44      C      -6.9815899625     0.6119035816    -6.1947875397
   45      H      -7.3536086430     0.7012325772    -7.2114511738
   46      C      -5.6263905175     0.2974433069    -5.9720536132
   47      C      -9.2540222624     1.1360772250    -5.1082212984
   48      C     -10.2190601117     1.3543721529    -6.0605230200
   49      H     -10.0012010649     1.2952072089    -7.1203005359
   50      C      -9.6064690020     1.2293270402    -3.7472769525
   51      C     -10.8882011129     1.5325945044    -3.2967738093
   52      C      -8.4964424912     0.9810720647    -2.9096385629
   53      C      -8.6867727495     1.0415870771    -1.5512328650
   54      H      -7.8794312055     0.8622472663    -0.8519943308
   55      C     -11.5295622678     1.6631619468    -5.6295855069
   56      H     -12.2930086132     1.8354483061    -6.3779132386
   57      C     -11.8683239274     1.7522359427    -4.2972973660
   58      H     -12.8862961734     1.9917290372    -4.0148857913
   59      C      -9.9797306376     1.3476183818    -1.0633643523
   60      H     -10.1258909254     1.3944600572     0.0082783837
   61      C     -11.0541407298     1.5869364248    -1.8911680781
   62      H     -12.0239358962     1.8172624106    -1.4672344879
   63      B      -4.6742786160     0.1038448375    -7.1507024095
   64      C      -3.2239397636    -0.3148659505    -6.9126218235
   65      C      -2.3450494597    -0.5516548088    -7.9917920892
   66      H      -2.7028755885    -0.4482147964    -9.0119200074
   67      C      -1.0394438161    -0.9050622389    -7.7647689301
   68      C      -0.5531798127    -1.0355787863    -6.4294011612
   69      C      -1.3913225418    -0.7987229075    -5.3671527954
   70      H      -1.0068278660    -0.8881340134    -4.3567139929
   71      C      -2.7390614396    -0.4343729966    -5.5747023225
   72      C       0.0665996110    -1.1800132895    -8.6808927965
   73      C       0.2228301869    -1.2025848620   -10.0461424844
   74      H      -0.5982656101    -0.9900086049   -10.7201806274
   75      C       1.1848488414    -1.4655156558    -7.8710868997
   76      C       2.4515593453    -1.7669504810    -8.3697167491
   77      C       0.8625012859    -1.3968194784    -6.4989819275
   78      C       1.8585381744    -1.6492228112    -5.5869594225
   79      H       1.6779916897    -1.6196040812    -4.5191696085
   80      C       1.4974809853    -1.5092849005   -10.5781128425
   81      H       1.6180024732    -1.5256117404   -11.6541684061
   82      C       2.5856930088    -1.7835380058    -9.7805004039
   83      H       3.5442718830    -2.0108504484   -10.2314821173
   84      C       3.1549095398    -1.9579958002    -6.0650584280
   85      H       3.9360151211    -2.1543478940    -5.3413318930
   86      C       3.4593568907    -2.0177482292    -7.4065985900
   87      H       4.4671337301    -2.2561308350    -7.7249330107
   88      C      -5.1435452836     0.4280706498    -8.6240844719
   89      C      -5.6168695371    -0.5822255757    -9.4893682419
   90      C      -5.9215485530    -0.2835062725   -10.8004512572
   91      H      -6.3121334925    -1.0508577849   -11.4574200783
   92      C      -5.7911562737     1.0324784377   -11.2635822221
   93      N      -6.0401451997     1.3168008165   -12.5938068281
   94      C      -5.5945339155     0.5459171440   -13.6619678179
   95      C      -4.7735323988    -0.5769101986   -13.6528926632
   96      H      -4.3816490927    -1.0027469824   -12.7403625392
   97      C      -4.4462416765    -1.1352348123   -14.8804304615
   98      H      -3.8174730884    -2.0144811708   -14.9069524592
   99      C      -4.8966373445    -0.5740586342   -16.0716078743
  100      H      -4.6188872836    -1.0285800910   -17.0129470176
  101      C      -6.7468520882     2.4115468447   -13.0880806985
  102      C      -7.4395748543     3.3962370962   -12.3973501474
  103      H      -7.4824257489     3.4255321659   -11.3179735546
  104      C      -8.1070677110     4.3474794468   -13.1571682756
  105      H      -8.6501187146     5.1351730137   -12.6539958595
  106      C      -8.1037904715     4.2951506335   -14.5483385929
  107      H      -8.6397091482     5.0483937282   -15.1095967126
  108      C      -7.4401314450     3.2752309990   -15.2300756088
  109      H      -7.4683104646     3.2229453265   -16.3106264093
  110      C      -6.7624380424     2.3309871962   -14.4912341183
  111      C      -5.6793775220     0.5805161438   -16.0704339732
  112      H      -5.9966791057     1.0295781833   -17.0024298878
  113      C      -6.0231889068     1.1400493925   -14.8579841379
  114      C      -5.3728784831     2.0535452747   -10.4036846782
  115      H      -5.2273201193     3.0552494383   -10.7877758885
  116      C      -5.0378471212     1.7552481401    -9.0998568382
  117      C      -5.7818705948    -1.9813780060    -8.9783839519
  118      H      -6.1925504260    -2.6442468040    -9.7390515564
  119      H      -6.4444058650    -2.0056524891    -8.1119686426
  120      H      -4.8236134432    -2.3909646651    -8.6536494648
  121      C      -4.5263653122     2.8375297403    -8.1976207755
  122      H      -4.4523197979     3.7920454575    -8.7173913348
  123      H      -5.1854338070     2.9685396370    -7.3381554376
  124      H      -3.5396208911     2.5890604206    -7.8037105016
 ----------------------------------------------------------------

   15   -2925.5492801759      5.81e-09  Convergence criterion met
 Total energy in the final basis set =    -2925.5492801759

         TDDFT/TDA Excitation Energies
 ---------------------------------------------------

 Excited state   1: excitation energy (eV) =    2.0746
 Total energy for state  1:                 -2925.47303876 au
    Multiplicity: Triplet
    Trans. Mom.:  0.0000 X   0.0000 Y   0.0000 Z
    Strength   :     0.0000000000
    D(245) --> V(  1) amplitude = -0.2134
    D(252) --> V(  1) amplitude =  0.9572

 Excited state   2: excitation energy (eV) =    2.0929
 Total energy for state  2:                 -2925.47236896 au
    Multiplicity: Singlet
    Trans. Mom.:  0.1726 X  -0.0703 Y   0.2106 Z
    Strength   :     0.0040539130
    D(252) --> V(  1) amplitude =  0.9672

 Excited state   3: excitation energy (eV) =    2.2382
 Total energy for state  3:                 -2925.46702941 au
    Multiplicity: Triplet
    Trans. Mom.:  0.0000 X   0.0000 Y   0.0000 Z
    Strength   :     0.0000000000
    D(247) --> V(  1) amplitude = -0.9081

 Excited state   4: excitation energy (eV) =    2.4194
 Total energy for state  4:                 -2925.46036829 au
    Multiplicity: Triplet
    Trans. Mom.:  0.0000 X   0.0000 Y   0.0000 Z
    Strength   :     0.0000000000
    D(246) --> V(  2) amplitude = -0.4615
    D(248) --> V(  1) amplitude =  0.7984

 Excited state   5: excitation energy (eV) =    2.4826
 Total energy for state  5:                 -2925.45804501 au
    Multiplicity: Triplet
    Trans. Mom.:  0.0000 X   0.0000 Y   0.0000 Z
    Strength   :     0.0000000000
    D(246) --> V(  1) amplitude = -0.7356
    D(246) --> V(  4) amplitude =  0.2246
    D(248) --> V(  2) amplitude =  0.5386

 Excited state   6: excitation energy (eV) =    2.7424
 Total energy for state  6:                 -2925.44849911 au
    Multiplicity: Triplet
    Trans. Mom.:  0.0000 X   0.0000 Y   0.0000 Z
    Strength   :     0.0000000000
    D(240) --> V(  1) amplitude =  0.4290
    D(242) --> V(  1) amplitude = -0.5604
    D(247) --> V(  2) amplitude =  0.5458

 Excited state   7: excitation energy (eV) =    2.8961
 Total energy for state  7:                 -2925.44284885 au
    Multiplicity: Singlet
    Trans. Mom.:  0.1732 X  -0.0293 Y  -0.0749 Z
    Strength   :     0.0025875735
    D(247) --> V(  1) amplitude =  0.9617

 Excited state   8: excitation energy (eV) =    3.0519
 Total energy for state  8:                 -2925.43712592 au
    Multiplicity: Triplet
    Trans. Mom.:  0.0000 X   0.0000 Y   0.0000 Z
    Strength   :     0.0000000000
    D(251) --> V(  1) amplitude =  0.9991

 Excited state   9: excitation energy (eV) =    3.0523
 Total energy for state  9:                 -2925.43711009 au
    Multiplicity: Singlet
    Trans. Mom.: -0.0020 X  -0.0127 Y   0.0033 Z
    Strength   :     0.0000131668
    D(251) --> V(  1) amplitude =  0.9993

 Excited state  10: excitation energy (eV) =    3.0923
 Total energy for state 10:                 -2925.43563973 au
    Multiplicity: Singlet
    Trans. Mom.:  2.9373 X  -0.7064 Y  -1.1017 Z
    Strength   :     0.7833853896
    D(248) --> V(  1) amplitude =  0.7570
    D(250) --> V(  1) amplitude =  0.5818

 Excited state  11: excitation energy (eV) =    3.1250
 Total energy for state 11:                 -2925.43443840 au
    Multiplicity: Singlet
    Trans. Mom.: -2.2425 X   0.5580 Y   0.8077 Z
    Strength   :     0.4588115545
    D(248) --> V(  1) amplitude = -0.5793
    D(250) --> V(  1) amplitude =  0.7634

 Excited state  12: excitation energy (eV) =    3.3087
 Total energy for state 12:                 -2925.42768791 au
    Multiplicity: Singlet
    Trans. Mom.: -0.0867 X   0.0305 Y  -0.1205 Z
    Strength   :     0.0018616319
    D(252) --> V(  2) amplitude =  0.9904

 ---------------------------------------------------
