 Q-Chem 5.1, Q-Chem, Inc., Pleasanton, CA (2018)
 Q-Chem 5.1.1 for Intel X86 EM64T Linux

User input:
--------------------------------------------------------------
$solvent
dielectric      4.33
dielectric_infi 1.83
$end

$rem
threads 8
jobtype	sp
method PBEh-3c
basis def2-mSVP
mem_static	1024
mem_total	14000
sym_ignore	true
cis_n_roots             2
cis_singlets            true
cis_triplets		false
rpa                     false
calc_soc 		true
cis_moments             true
cis_relaxed_density	true
solvent_method		pcm
$end

$pcm
StateSpecific   1
ChargeSeparation Excited
$end

$molecule
read moms1opt_eth.mol
$end

--------------------------------------------------------------

   14   -2925.5523107228      9.85e-09  Convergence criterion met
 Total energy in the final basis set =    -2925.5523107228

                    Orbital Energies (a.u.)
 --------------------------------------------------------------

 Alpha MOs
 -- Occupied --
-14.695 -14.691 -10.495 -10.493 -10.493 -10.492 -10.489 -10.489
-10.472 -10.470 -10.470 -10.469 -10.469 -10.468 -10.468 -10.468
-10.467 -10.467 -10.467 -10.466 -10.465 -10.465 -10.465 -10.464
-10.464 -10.464 -10.463 -10.463 -10.463 -10.461 -10.461 -10.460
-10.460 -10.460 -10.460 -10.460 -10.460 -10.459 -10.454 -10.454
-10.453 -10.452 -10.452 -10.452 -10.452 -10.452 -10.451 -10.451
-10.451 -10.450 -10.450 -10.450 -10.450 -10.450 -10.449 -10.449
-10.448 -10.448 -10.445 -10.444 -10.444 -10.444 -10.444 -10.443
-10.442 -10.442 -10.441 -10.441 -10.435 -10.432 -10.431 -10.430
-10.430 -10.430  -6.956  -6.950  -1.114  -1.113  -1.020  -1.019
 -0.979  -0.979  -0.966  -0.963  -0.957  -0.954  -0.949  -0.949
 -0.936  -0.935  -0.913  -0.904  -0.892  -0.890  -0.882  -0.881
 -0.864  -0.860  -0.856  -0.854  -0.850  -0.850  -0.849  -0.848
 -0.829  -0.819  -0.816  -0.815  -0.812  -0.811  -0.810  -0.809
 -0.776  -0.772  -0.772  -0.772  -0.741  -0.740  -0.734  -0.730
 -0.728  -0.724  -0.702  -0.699  -0.692  -0.692  -0.690  -0.683
 -0.681  -0.671  -0.661  -0.656  -0.654  -0.652  -0.650  -0.647
 -0.645  -0.643  -0.602  -0.600  -0.596  -0.594  -0.593  -0.591
 -0.591  -0.590  -0.586  -0.579  -0.579  -0.577  -0.574  -0.560
 -0.553  -0.553  -0.547  -0.546  -0.531  -0.530  -0.529  -0.524
 -0.523  -0.521  -0.518  -0.513  -0.510  -0.507  -0.505  -0.505
 -0.501  -0.500  -0.498  -0.495  -0.494  -0.493  -0.493  -0.492
 -0.490  -0.489  -0.489  -0.486  -0.483  -0.482  -0.481  -0.481
 -0.475  -0.474  -0.472  -0.471  -0.470  -0.468  -0.468  -0.468
 -0.465  -0.459  -0.449  -0.444  -0.443  -0.442  -0.442  -0.433
 -0.430  -0.429  -0.428  -0.426  -0.426  -0.425  -0.423  -0.420
 -0.418  -0.414  -0.414  -0.406  -0.403  -0.400  -0.399  -0.399
 -0.398  -0.397  -0.397  -0.396  -0.395  -0.394  -0.392  -0.391
 -0.385  -0.380  -0.377  -0.374  -0.367  -0.358  -0.356  -0.345
 -0.336  -0.333  -0.327  -0.321  -0.303  -0.303  -0.300  -0.298
 -0.288  -0.287  -0.287  -0.286  -0.285  -0.267  -0.262  -0.262
 -0.260  -0.258  -0.244  -0.234

          Ground-State Mulliken Net Atomic Charges

     Atom                 Charge (a.u.)
  ----------------------------------------
      1 N                    -0.725890
      2 C                     0.348012
      3 C                     0.332643
      4 C                    -0.303098
      5 H                     0.254925
      6 C                    -0.264302
      7 H                     0.244731
      8 C                    -0.301694
      9 H                     0.261557
     10 C                    -0.266235
     11 H                     0.245701
     12 C                    -0.258472
     13 H                     0.241114
     14 C                    -0.362660
     15 H                     0.237614
     16 C                     0.066691
     17 C                    -0.256180
     18 H                     0.241119
     19 C                    -0.366279
     20 H                     0.237555
     21 C                     0.087243
     22 C                     0.268587
     23 C                    -0.325786
     24 H                     0.251568
     25 C                    -0.340808
     26 H                     0.252762
     27 C                     0.029547
     28 C                     0.037355
     29 C                    -0.207016
     30 C                    -0.763718
     31 H                     0.254180
     32 H                     0.248417
     33 H                     0.250735
     34 C                    -0.772284
     35 H                     0.257412
     36 H                     0.251400
     37 H                     0.252553
     38 B                     0.677443
     39 C                    -0.156379
     40 C                    -0.405734
     41 H                     0.241387
     42 C                     0.098741
     43 C                     0.078956
     44 C                    -0.390333
     45 H                     0.246469
     46 C                    -0.149229
     47 C                     0.179876
     48 C                    -0.385121
     49 H                     0.251321
     50 C                    -0.066354
     51 C                     0.223608
     52 C                     0.178824
     53 C                    -0.392043
     54 H                     0.250577
     55 C                    -0.231718
     56 H                     0.256821
     57 C                    -0.343557
     58 H                     0.253797
     59 C                    -0.229479
     60 H                     0.256051
     61 C                    -0.346764
     62 H                     0.254116
     63 B                     0.679679
     64 C                    -0.157344
     65 C                    -0.391704
     66 H                     0.246377
     67 C                     0.083389
     68 C                     0.093678
     69 C                    -0.391448
     70 H                     0.250656
     71 C                    -0.145881
     72 C                     0.186442
     73 C                    -0.397890
     74 H                     0.255180
     75 C                    -0.069029
     76 C                     0.220837
     77 C                     0.180956
     78 C                    -0.388851
     79 H                     0.250329
     80 C                    -0.230663
     81 H                     0.256417
     82 C                    -0.343970
     83 H                     0.253627
     84 C                    -0.231924
     85 H                     0.257050
     86 C                    -0.345818
     87 H                     0.253792
     88 C                    -0.229481
     89 C                     0.058910
     90 C                    -0.395142
     91 H                     0.268519
     92 C                     0.349675
     93 N                    -0.738408
     94 C                     0.327533
     95 C                    -0.300539
     96 H                     0.270319
     97 C                    -0.255489
     98 H                     0.246924
     99 C                    -0.261067
    100 H                     0.242205
    101 C                    -0.363728
    102 H                     0.240315
    103 C                     0.077790
    104 C                     0.335859
    105 C                    -0.301147
    106 H                     0.268853
    107 C                    -0.256569
    108 H                     0.247380
    109 C                    -0.261295
    110 H                     0.242239
    111 C                    -0.361659
    112 H                     0.240819
    113 C                     0.066579
    114 C                    -0.399279
    115 H                     0.265332
    116 C                     0.040972
    117 C                    -0.767307
    118 H                     0.252887
    119 H                     0.249206
    120 H                     0.249523
    121 C                    -0.772955
    122 H                     0.255216
    123 H                     0.250786
    124 H                     0.252057
  ----------------------------------------
  Sum of atomic charges =    -0.000000

                    Cartesian Multipole Moments
 -----------------------------------------------------------------
    Charge (ESU x 10^10)
                -0.0000
    Dipole Moment (Debye)
         X      -1.8727      Y      -0.3909      Z      -0.3407
       Tot       1.9432
    Quadrupole Moments (Debye-Ang)
        XX    -359.0546     XY     -24.7345     YY    -428.3970
        XZ     -15.7037     YZ       8.4637     ZZ    -411.4495

 Total job time:  16333.61s(wall), 48270.18s(cpu)
        *  Thank you very much for using Q-Chem.  Have a nice day.  *
 Q-Chem 5.1, Q-Chem, Inc., Pleasanton, CA (2018)
 Q-Chem 5.1.1 for Intel X86 EM64T Linux

User input:
--------------------------------------------------------------
$rem
threads 8
jobtype sp
method PBEh-3c
basis def2-mSVP
mem_static      1024
mem_total       14000
sym_ignore      true
cis_n_roots             6
cis_singlets            true
cis_triplets            true
rpa                     false
calc_soc                true
cis_moments             true
cis_relaxed_density     true
solvent_method          pcm
$end

$molecule
read
$end

$pcm
statespecific           Marcus
$end

$solvent
dielectric      4.33
dielectric_infi 1.83
$end

--------------------------------------------------------------

             Standard Nuclear Orientation (Angstroms)
    I     Atom           X                Y                Z
 ----------------------------------------------------------------
    1      N       0.0000000000     0.0000000000     0.0000000000
    2      C       0.0000000000     0.0000000000     1.3750290000
    3      C       1.3032373468     0.0000000000    -0.4441064210
    4      C      -1.0769961871     0.0040874930     2.2521297480
    5      H      -2.0969379590    -0.0026614743     1.8896511691
    6      C      -0.7934157495     0.0184978222     3.6065386978
    7      H      -1.6110385898     0.0218212782     4.3157332227
    8      C       1.7821820266    -0.0208736013    -1.7518681874
    9      H       1.1114059769    -0.0278760590    -2.6016954869
   10      C       3.1539642150    -0.0228797162    -1.9310693867
   11      H       3.5527372037    -0.0366547006    -2.9379492955
   12      C       0.5240976403     0.0315570199     4.0791196748
   13      H       0.7067471706     0.0441627123     5.1454576012
   14      C       1.5904791923     0.0301337729     3.1976513613
   15      H       2.6094176874     0.0436383719     3.5649503428
   16      C       1.3330854333     0.0133229957     1.8308365545
   17      C       4.0327373835    -0.0042216966    -0.8416675120
   18      H       5.1003667288    -0.0027633031    -1.0180421938
   19      C       3.5482462192     0.0120627850     0.4540310085
   20      H       4.2315112079     0.0231028171     1.2943505996
   21      C       2.1705694655     0.0113537229     0.6610086557
   22      C      -1.1050834058    -0.0346122859    -0.8828132431
   23      C      -1.8014094049    -1.2150936643    -1.0885674713
   24      H      -1.5764810710    -2.0834147263    -0.4790924928
   25      C      -1.3825922882     1.0841053621    -1.6525462542
   26      H      -0.8384982643     2.0038765915    -1.4693019562
   27      C      -2.2850610029     1.0011648715    -2.7057282787
   28      C      -2.7190671701    -1.3067460613    -2.1310060120
   29      C      -2.9285893744    -0.2140883676    -2.9817301210
   30      C      -3.3953564546    -2.6169364130    -2.4224985445
   31      H      -3.2087185216    -3.3524987936    -1.6402022087
   32      H      -4.4751875561    -2.4961602309    -2.5210996851
   33      H      -3.0380610113    -3.0377654329    -3.3654801659
   34      C      -2.4863226336     2.1881100756    -3.6062211692
   35      H      -2.0032966698     3.0803466169    -3.2077210628
   36      H      -3.5443414122     2.4113099996    -3.7486680643
   37      H      -2.0672197403     2.0015433279    -4.5981525864
   38      B      -3.5979685442    -0.3876134900    -4.4038800851
   39      C      -5.0566556737    -0.0560345219    -4.7379055673
   40      C      -5.9834438126     0.2810048815    -3.7279797987
   41      H      -5.6521586153     0.2935853717    -2.6939348570
   42      C      -7.2873311130     0.5930049222    -4.0430099893
   43      C      -7.7038496224     0.5875751373    -5.4086574140
   44      C      -6.8176057130     0.2776463667    -6.4070052638
   45      H      -7.1481004011     0.2897915758    -7.4419004513
   46      C      -5.4824499894    -0.0546714537    -6.1032642515
   47      C      -9.1115432950     0.9585570732    -5.4631030572
   48      C     -10.0319304316     1.1212799541    -6.4687106934
   49      H      -9.7759196538     0.9638400569    -7.5097571709
   50      C      -9.5125928353     1.1792905202    -4.1309191621
   51      C     -10.7999277488     1.5569902961    -3.7606875969
   52      C      -8.4439566464     0.9719859511    -3.2308924741
   53      C      -8.6841517946     1.1549704855    -1.8918704458
   54      H      -7.9102677180     1.0132320529    -1.1477099374
   55      C     -11.3471258811     1.5036893122    -6.1199431933
   56      H     -12.0757627021     1.6321802045    -6.9106205931
   57      C     -11.7332108388     1.7173933176    -4.8153386884
   58      H     -12.7530697595     2.0094758208    -4.5963295735
   59      C      -9.9839987515     1.5390907007    -1.4849607626
   60      H     -10.1693833051     1.6822784415    -0.4280370931
   61      C     -11.0175367043     1.7369327700    -2.3729377692
   62      H     -11.9948450561     2.0306542713    -2.0098365679
   63      B      -4.4898173615    -0.3718879131    -7.2181203638
   64      C      -3.0601592964    -0.7970801501    -6.8908903851
   65      C      -2.1432238580    -1.1342159407    -7.9103656445
   66      H      -2.4572377168    -1.1070012528    -8.9497876968
   67      C      -0.8552868368    -1.4891302011    -7.6021194004
   68      C      -0.4269276070    -1.5211454571    -6.2418201048
   69      C      -1.3023171073    -1.1864768250    -5.2379675633
   70      H      -0.9608615698    -1.2017759710    -4.2085816610
   71      C      -2.6325494322    -0.8170267261    -5.5292099108
   72      C       0.9828436485    -1.9089204685    -6.2221807479
   73      C       1.9345491917    -2.1045726824    -5.2512525663
   74      H       1.7102997326    -1.9895035774    -4.1976854487
   75      C       1.3607651465    -2.0902473749    -7.5693811092
   76      C       2.6411078729    -2.4490234162    -7.9879491722
   77      C       0.2825838405    -1.8524576856    -8.4459469875
   78      C       0.4954531884    -1.9846760141    -9.7969025584
   79      H      -0.2926599637    -1.8128872433   -10.5201756772
   80      C       1.7849222125    -2.3513954042   -10.2483138749
   81      H       1.9501918070    -2.4539877823   -11.3136359601
   82      C       2.8333770087    -2.5783378139    -9.3858041017
   83      H       3.8054810371    -2.8547849438    -9.7763251012
   84      C       3.2435873833    -2.4696267347    -5.6475581222
   85      H       3.9894446756    -2.6211018461    -4.8773553168
   86      C       3.6027317005    -2.6386726984    -6.9657036679
   87      H       4.6183584324    -2.9167698113    -7.2205187602
   88      C      -4.8902064259    -0.1656699121    -8.7312748167
   89      C      -5.3579747165    -1.2381725358    -9.5266425276
   90      C      -5.5912510400    -1.0502110904   -10.8702230534
   91      H      -5.9788386492    -1.8608893005   -11.4746818055
   92      C      -5.3993172466     0.2168801306   -11.4434977295
   93      N      -5.5765384134     0.3861392680   -12.7997633460
   94      C      -5.1251683689    -0.5017456788   -13.7743879256
   95      C      -4.3577749853    -1.6519530346   -13.6290506747
   96      H      -4.0213771661    -2.0084259291   -12.6661740141
   97      C      -4.0059838345    -2.3336715670   -14.7851664038
   98      H      -3.4177663721    -3.2372806135   -14.7033356475
   99      C      -4.3792635082    -1.8659908357   -16.0416470609
  100      H      -4.0838129503    -2.4164656838   -16.9245213983
  101      C      -5.1042826049    -0.6843807823   -16.1782008065
  102      H      -5.3596068191    -0.3075701231   -17.1599253914
  103      C      -5.4720180088    -0.0012220895   -15.0367236991
  104      C      -6.2050559451     1.4634974224   -13.4276241989
  105      C      -6.8790618014     2.5389717022   -12.8671558631
  106      H      -6.9713570002     2.6716051364   -11.7987954419
  107      C      -7.4630010852     3.4438878026   -13.7430328461
  108      H      -7.9881841289     4.2991341013   -13.3413496030
  109      C      -7.4001876651     3.2613192817   -15.1217720434
  110      H      -7.8719612461     3.9822104726   -15.7754367271
  111      C      -6.7600525861     2.1528363092   -15.6711500666
  112      H      -6.7431789817     1.9989817300   -16.7421822729
  113      C      -6.1639139352     1.2514491257   -14.8154631223
  114      C      -4.9914940803     1.3012513108   -10.6547698079
  115      H      -4.7941183996     2.2586960442   -11.1196411596
  116      C      -4.7238255981     1.1133340596    -9.3175120818
  117      C      -5.5911401186    -2.5770937581    -8.8974982929
  118      H      -5.9948212126    -3.2955587109    -9.6099363379
  119      H      -6.2852816605    -2.4990057908    -8.0596897494
  120      H      -4.6604674517    -2.9818530393    -8.4955872821
  121      C      -4.2157755543     2.2534156892    -8.4894229911
  122      H      -4.0967922813     3.1597212273    -9.0820919597
  123      H      -4.9005312691     2.4691502334    -7.6680703759
  124      H      -3.2515312511     2.0124708621    -8.0393297882
 ----------------------------------------------------------------

   15   -2925.5445167552      5.99e-09  Convergence criterion met
 Total energy in the final basis set =    -2925.5445167552

         TDDFT/TDA Excitation Energies
 ---------------------------------------------------

 Excited state   1: excitation energy (eV) =    2.1532
 Total energy for state  1:                 -2925.46538811 au
    Multiplicity: Triplet
    Trans. Mom.:  0.0000 X   0.0000 Y   0.0000 Z
    Strength   :     0.0000000000
    D(245) --> V(  1) amplitude = -0.2250
    D(252) --> V(  1) amplitude =  0.9411

 Excited state   2: excitation energy (eV) =    2.1751
 Total energy for state  2:                 -2925.46458264 au
    Multiplicity: Singlet
    Trans. Mom.:  0.1635 X  -0.0538 Y   0.2072 Z
    Strength   :     0.0038676114
    D(245) --> V(  1) amplitude = -0.2221
    D(252) --> V(  1) amplitude =  0.9643

 Excited state   3: excitation energy (eV) =    2.2334
 Total energy for state  3:                 -2925.46244103 au
    Multiplicity: Triplet
    Trans. Mom.:  0.0000 X   0.0000 Y   0.0000 Z
    Strength   :     0.0000000000
    D(247) --> V(  1) amplitude =  0.9016

 Excited state   4: excitation energy (eV) =    2.4211
 Total energy for state  4:                 -2925.45554407 au
    Multiplicity: Triplet
    Trans. Mom.:  0.0000 X   0.0000 Y   0.0000 Z
    Strength   :     0.0000000000
    D(246) --> V(  2) amplitude = -0.4636
    D(248) --> V(  1) amplitude =  0.7990

 Excited state   5: excitation energy (eV) =    2.4839
 Total energy for state  5:                 -2925.45323508 au
    Multiplicity: Triplet
    Trans. Mom.:  0.0000 X   0.0000 Y   0.0000 Z
    Strength   :     0.0000000000
    D(246) --> V(  1) amplitude = -0.7418
    D(246) --> V(  4) amplitude =  0.2279
    D(248) --> V(  2) amplitude =  0.5381

 Excited state   6: excitation energy (eV) =    2.7377
 Total energy for state  6:                 -2925.44390831 au
    Multiplicity: Triplet
    Trans. Mom.:  0.0000 X   0.0000 Y   0.0000 Z
    Strength   :     0.0000000000
    D(240) --> V(  1) amplitude =  0.4951
    D(241) --> V(  1) amplitude = -0.2354
    D(242) --> V(  1) amplitude = -0.4485
    D(247) --> V(  2) amplitude =  0.5493

 Excited state   7: excitation energy (eV) =    2.8911
 Total energy for state  7:                 -2925.43827169 au
    Multiplicity: Singlet
    Trans. Mom.:  0.1010 X  -0.0176 Y  -0.0503 Z
    Strength   :     0.0009242002
    D(247) --> V(  1) amplitude =  0.9656

 Excited state   8: excitation energy (eV) =    3.0571
 Total energy for state  8:                 -2925.43216964 au
    Multiplicity: Triplet
    Trans. Mom.:  0.0000 X   0.0000 Y   0.0000 Z
    Strength   :     0.0000000000
    D(242) --> V(  1) amplitude =  0.2221
    D(250) --> V(  1) amplitude =  0.9343

 Excited state   9: excitation energy (eV) =    3.0656
 Total energy for state  9:                 -2925.43185903 au
    Multiplicity: Singlet
    Trans. Mom.:  1.1862 X  -0.3477 Y  -0.4381 Z
    Strength   :     0.1291810886
    D(248) --> V(  1) amplitude =  0.3137
    D(250) --> V(  1) amplitude =  0.9036

 Excited state  10: excitation energy (eV) =    3.1221
 Total energy for state 10:                 -2925.42978159 au
    Multiplicity: Singlet
    Trans. Mom.:  3.4693 X  -1.0215 Y  -1.0262 Z
    Strength   :     1.0810136232
    D(248) --> V(  1) amplitude =  0.9001
    D(250) --> V(  1) amplitude = -0.3147

 Excited state  11: excitation energy (eV) =    3.1790
 Total energy for state 11:                 -2925.42768961 au
    Multiplicity: Singlet
    Trans. Mom.:  0.0165 X  -0.0191 Y  -0.0010 Z
    Strength   :     0.0000498185
    D(251) --> V(  1) amplitude =  0.9993

 Excited state  12: excitation energy (eV) =    3.4039
 Total energy for state 12:                 -2925.41942417 au
    Multiplicity: Singlet
    Trans. Mom.:  0.0031 X   0.0161 Y  -0.1810 Z
    Strength   :     0.0027549188
    D(252) --> V(  2) amplitude =  0.9684

 ---------------------------------------------------
