 Q-Chem 5.1, Q-Chem, Inc., Pleasanton, CA (2018)
 Q-Chem 5.1.1 for Intel X86 EM64T Linux

User input:
--------------------------------------------------------------
$solvent
dielectric      1.0001
dielectric_infi 1.00009
$end

$rem
threads 8
jobtype	sp
method PBEh-3c
basis def2-mSVP
mem_static	1024
mem_total	14000
sym_ignore	true
cis_n_roots             2
cis_singlets            false
cis_triplets		true
rpa                     false
calc_soc 		true
cis_moments             true
cis_relaxed_density	true
solvent_method		pcm
$end

$pcm
StateSpecific   1
ChargeSeparation Excited
$end

$molecule
read ut1opt_vac.mol
$end

--------------------------------------------------------------

   15   -2925.5197238595      7.22e-09  Convergence criterion met
 Total energy in the final basis set =    -2925.5197238595

         TDDFT/TDA Excitation Energies
 ---------------------------------------------------

 Excited state   1: excitation energy (eV) =    1.9437
 Total energy for state  1:                 -2925.44829411 au
    Multiplicity: Triplet
    Trans. Mom.:  0.0000 X   0.0000 Y   0.0000 Z
    Strength   :     0.0000000000
    D(245) --> V(  2) amplitude = -0.2379
    D(248) --> V(  1) amplitude =  0.9292

 Excited state   2: excitation energy (eV) =    2.3346
 Total energy for state  2:                 -2925.43393041 au
    Multiplicity: Triplet
    Trans. Mom.:  0.0000 X   0.0000 Y   0.0000 Z
    Strength   :     0.0000000000
    D(246) --> V(  2) amplitude =  0.4424
    D(247) --> V(  1) amplitude =  0.8111

 ---------------------------------------------------

                    Orbital Energies (a.u.)
 --------------------------------------------------------------

 Alpha MOs
 -- Occupied --
-14.688 -14.688 -10.492 -10.492 -10.484 -10.484 -10.484 -10.483
-10.472 -10.472 -10.472 -10.471 -10.470 -10.469 -10.469 -10.469
-10.468 -10.468 -10.468 -10.468 -10.468 -10.466 -10.466 -10.466
-10.466 -10.465 -10.464 -10.464 -10.463 -10.463 -10.463 -10.463
-10.463 -10.462 -10.462 -10.459 -10.458 -10.457 -10.453 -10.451
-10.450 -10.448 -10.448 -10.448 -10.447 -10.447 -10.447 -10.446
-10.446 -10.446 -10.446 -10.446 -10.445 -10.445 -10.445 -10.445
-10.444 -10.444 -10.444 -10.444 -10.444 -10.442 -10.442 -10.440
-10.439 -10.438 -10.437 -10.437 -10.436 -10.435 -10.434 -10.434
-10.433 -10.432  -6.952  -6.949  -1.109  -1.108  -1.021  -1.017
 -0.978  -0.977  -0.964  -0.961  -0.950  -0.948  -0.946  -0.946
 -0.940  -0.937  -0.911  -0.902  -0.888  -0.887  -0.883  -0.882
 -0.866  -0.863  -0.855  -0.854  -0.852  -0.850  -0.844  -0.844
 -0.824  -0.820  -0.817  -0.809  -0.808  -0.808  -0.807  -0.803
 -0.778  -0.777  -0.774  -0.773  -0.741  -0.739  -0.735  -0.731
 -0.729  -0.724  -0.699  -0.696  -0.693  -0.686  -0.686  -0.683
 -0.681  -0.673  -0.656  -0.656  -0.652  -0.650  -0.648  -0.648
 -0.643  -0.643  -0.605  -0.600  -0.599  -0.596  -0.594  -0.594
 -0.589  -0.587  -0.587  -0.582  -0.580  -0.573  -0.573  -0.559
 -0.557  -0.553  -0.548  -0.547  -0.533  -0.531  -0.528  -0.522
 -0.519  -0.518  -0.518  -0.516  -0.508  -0.507  -0.503  -0.500
 -0.499  -0.499  -0.497  -0.497  -0.492  -0.491  -0.490  -0.489
 -0.489  -0.486  -0.486  -0.485  -0.485  -0.483  -0.480  -0.480
 -0.478  -0.476  -0.474  -0.473  -0.473  -0.470  -0.469  -0.469
 -0.467  -0.462  -0.449  -0.447  -0.446  -0.444  -0.441  -0.435
 -0.434  -0.429  -0.425  -0.424  -0.423  -0.423  -0.421  -0.414
 -0.412  -0.411  -0.409  -0.407  -0.404  -0.402  -0.400  -0.399
 -0.399  -0.398  -0.398  -0.395  -0.393  -0.392  -0.391  -0.389
 -0.384  -0.376  -0.374  -0.371  -0.369  -0.357  -0.353  -0.345
 -0.329  -0.328  -0.326  -0.322  -0.302  -0.298  -0.298  -0.296
 -0.288  -0.286  -0.286  -0.284  -0.282  -0.267  -0.259  -0.254
 -0.252  -0.250  -0.238  -0.235

          Ground-State Mulliken Net Atomic Charges

     Atom                 Charge (a.u.)
  ----------------------------------------
      1 N                    -0.731486
      2 C                     0.351307
      3 C                     0.332687
      4 C                    -0.282493
      5 H                     0.233625
      6 C                    -0.237589
      7 H                     0.217286
      8 C                    -0.287800
      9 H                     0.243254
     10 C                    -0.246974
     11 H                     0.224215
     12 C                    -0.226647
     13 H                     0.214696
     14 C                    -0.347922
     15 H                     0.205840
     16 C                     0.110695
     17 C                    -0.228600
     18 H                     0.215065
     19 C                    -0.343569
     20 H                     0.205494
     21 C                     0.087007
     22 C                     0.279533
     23 C                    -0.338074
     24 H                     0.235615
     25 C                    -0.314859
     26 H                     0.233966
     27 C                     0.044080
     28 C                     0.046685
     29 C                    -0.211880
     30 C                    -0.751281
     31 H                     0.240071
     32 H                     0.242252
     33 H                     0.249451
     34 C                    -0.761278
     35 H                     0.242673
     36 H                     0.248828
     37 H                     0.249369
     38 B                     0.666500
     39 C                    -0.153585
     40 C                    -0.395857
     41 H                     0.223531
     42 C                     0.103370
     43 C                     0.200773
     44 C                    -0.376406
     45 H                     0.220508
     46 C                    -0.204029
     47 H                     0.229199
     48 C                    -0.334211
     49 H                     0.223422
     50 C                    -0.068694
     51 C                     0.252030
     52 C                     0.199746
     53 C                    -0.368362
     54 H                     0.222602
     55 C                    -0.206950
     56 H                     0.230297
     57 C                    -0.330232
     58 H                     0.223217
     59 C                     0.083949
     60 C                    -0.380961
     61 H                     0.231945
     62 C                    -0.149118
     63 B                     0.686138
     64 C                    -0.160748
     65 C                    -0.382366
     66 H                     0.231113
     67 C                     0.086837
     68 C                     0.199956
     69 C                    -0.371622
     70 H                     0.221050
     71 C                    -0.206038
     72 H                     0.229475
     73 C                    -0.330702
     74 H                     0.222541
     75 C                    -0.070129
     76 C                     0.248242
     77 C                     0.208857
     78 C                    -0.389776
     79 H                     0.243588
     80 C                    -0.212329
     81 H                     0.234535
     82 C                    -0.332406
     83 H                     0.222331
     84 C                     0.094700
     85 C                    -0.377269
     86 H                     0.236592
     87 C                    -0.142797
     88 C                    -0.215751
     89 C                     0.053300
     90 C                    -0.352368
     91 H                     0.237962
     92 C                     0.321784
     93 C                    -0.352944
     94 H                     0.236778
     95 C                     0.048764
     96 N                    -0.741017
     97 C                     0.337393
     98 C                     0.345549
     99 C                    -0.280917
    100 H                     0.234110
    101 C                    -0.236217
    102 H                     0.216379
    103 C                    -0.280352
    104 H                     0.234718
    105 C                    -0.234818
    106 H                     0.215642
    107 C                    -0.228474
    108 H                     0.214709
    109 C                    -0.343819
    110 H                     0.205157
    111 C                     0.100870
    112 C                    -0.228917
    113 H                     0.214720
    114 C                    -0.341721
    115 H                     0.205553
    116 C                     0.086986
    117 C                    -0.763135
    118 H                     0.241616
    119 H                     0.246999
    120 H                     0.249751
    121 C                    -0.757277
    122 H                     0.240167
    123 H                     0.246583
    124 H                     0.246531
  ----------------------------------------
  Sum of atomic charges =    -0.000000

                    Cartesian Multipole Moments
 -----------------------------------------------------------------
    Charge (ESU x 10^10)
                -0.0000
    Dipole Moment (Debye)
         X      -1.3614      Y      -0.0797      Z       0.7321
       Tot       1.5478
    Quadrupole Moments (Debye-Ang)
        XX    -370.2224     XY     -22.8301     YY    -434.7388
        XZ     -12.9949     YZ       1.2828     ZZ    -441.0151

 Total job time:  12379.11s(wall), 37045.60s(cpu)
        *  Thank you very much for using Q-Chem.  Have a nice day.  *
 Q-Chem 5.1, Q-Chem, Inc., Pleasanton, CA (2018)
 Q-Chem 5.1.1 for Intel X86 EM64T Linux

User input:
--------------------------------------------------------------
$rem
threads 8
jobtype sp
method PBEh-3c
basis def2-mSVP
mem_static      1024
mem_total       14000
sym_ignore      true
cis_n_roots             6
cis_singlets            true
cis_triplets            true
rpa                     false
calc_soc                true
cis_moments             true
cis_relaxed_density     true
solvent_method          pcm
$end

$molecule
read
$end

$pcm
statespecific           Marcus
$end

$solvent
dielectric      1.0001
dielectric_infi 1.00009
$end

--------------------------------------------------------------

             Standard Nuclear Orientation (Angstroms)
    I     Atom           X                Y                Z
 ----------------------------------------------------------------
    1      N       0.0000000000     0.0000000000     0.0000000000
    2      C       0.0000000000     0.0000000000     1.3776610000
    3      C       1.3062427956     0.0000000000    -0.4432913542
    4      C      -1.0763698872    -0.0108697070     2.2537546252
    5      H      -2.0956521834    -0.0338634712     1.8909237066
    6      C      -0.7934322690     0.0118322389     3.6073578285
    7      H      -1.6104743762     0.0040159810     4.3167590503
    8      C       1.7921122507    -0.0482982649    -1.7469054478
    9      H       1.1258213837    -0.0668363298    -2.5999567988
   10      C       3.1645606439    -0.0575722411    -1.9209974089
   11      H       3.5667579620    -0.0891994139    -2.9260078062
   12      C       4.0376306003    -0.0192582104    -0.8300749789
   13      H       5.1058292165    -0.0227405514    -1.0007412589
   14      C       3.5460565969     0.0240727803     0.4615147306
   15      H       4.2254703876     0.0483752377     1.3042801007
   16      C       2.1693324092     0.0286154380     0.6635427827
   17      C       0.5221959849     0.0483820324     4.0789005959
   18      H       0.7049858349     0.0676462953     5.1447800986
   19      C       1.5873031973     0.0601004790     3.1977192658
   20      H       2.6053338036     0.0887177941     3.5656189717
   21      C       1.3309913402     0.0334035302     1.8322414595
   22      C      -1.0949783899    -0.1730811787    -0.8731752140
   23      C      -1.3780228844     0.8163679274    -1.8013832426
   24      H      -0.8538417406     1.7630717145    -1.7416017520
   25      C      -1.7794494177    -1.3784495228    -0.9083182700
   26      H      -1.5547643381    -2.1415929843    -0.1716566419
   27      C      -2.2535430240     0.5625827717    -2.8491961573
   28      C      -2.6722499218    -1.6400399706    -1.9414421994
   29      C      -2.8694026856    -0.6917340085    -2.9526014526
   30      C      -3.3210434466    -2.9912581249    -2.0516428439
   31      H      -3.1710445104    -3.5882638947    -1.1526183528
   32      H      -4.3952232634    -2.9080305370    -2.2224065663
   33      H      -2.9102089155    -3.5553785808    -2.8927229204
   34      C      -2.4471649319     1.5939659897    -3.9257232767
   35      H      -2.0196669746     2.5557119553    -3.6433124076
   36      H      -3.5023468769     1.7504779752    -4.1521714348
   37      H      -1.9665479028     1.2850266803    -4.8575706708
   38      B      -3.4502093579    -1.1084555661    -4.3577247977
   39      C      -4.8821368662    -0.8855935452    -4.8356718965
   40      C      -5.8675333171    -0.3977168449    -3.9540946791
   41      H      -5.5922555040    -0.1874110260    -2.9262051758
   42      C      -7.1512956665    -0.1901342134    -4.3935108943
   43      C      -8.3551850744     0.2878175057    -3.7402152772
   44      C      -8.6788626307     0.7004692788    -2.4697310662
   45      H      -7.9474076675     0.7199264822    -1.6722195463
   46      C     -10.0055603019     1.1056855638    -2.2147304221
   47      H     -10.2616991013     1.4303456632    -1.2149768703
   48      C     -10.9857436323     1.1053529286    -3.1837169435
   49      H     -11.9890754751     1.4266642487    -2.9337623732
   50      C      -9.3696147496     0.2925415993    -4.7246635103
   51      C     -10.6844275930     0.6875300479    -4.5009537177
   52      C      -8.8880860285    -0.1533205144    -5.9733518329
   53      C      -9.7502343631    -0.2068070298    -7.0434117535
   54      H      -9.4271703837    -0.5423543558    -8.0208697828
   55      C     -11.0869029099     0.1887702812    -6.8407855941
   56      H     -11.7715754728     0.1492868870    -7.6778613681
   57      C     -11.5524977573     0.6228497406    -5.6178758965
   58      H     -12.5896510586     0.9159327643    -5.5136107983
   59      C      -7.4922833410    -0.4627580981    -5.7830559338
   60      C      -6.5463685958    -0.9244435482    -6.6579516302
   61      H      -6.8034587841    -1.1129240917    -7.6945066094
   62      C      -5.2322485813    -1.1552119566    -6.2235705737
   63      B      -4.1918923395    -1.6610912432    -7.2203543390
   64      C      -2.7800965650    -1.9617467367    -6.7201733860
   65      C      -1.8090075043    -2.4561704293    -7.6076869962
   66      H      -2.0779021556    -2.6340212170    -8.6429749427
   67      C      -0.5322492664    -2.6944066474    -7.1716945115
   68      C       0.6533681789    -3.1596890702    -7.8592519997
   69      C       0.9453972747    -3.5346051108    -9.1510156002
   70      H       0.1938081476    -3.5327261186    -9.9301891121
   71      C       2.2657620460    -3.9232788265    -9.4554771452
   72      H       2.4978873477    -4.2172001073   -10.4707755524
   73      C       3.2689653291    -3.9386819296    -8.5107286990
   74      H       4.2692338930    -4.2422275552    -8.7942170484
   75      C       1.6859901917    -3.1808981961    -6.8962705259
   76      C       2.9981619237    -3.5570166557    -7.1748461643
   77      C       1.2325747347    -2.7621041834    -5.6262105241
   78      C       2.1336648336    -2.7245680129    -4.5875158998
   79      H       1.8496268851    -2.4147340846    -3.5895700094
   80      C       3.4688672179    -3.1017179750    -4.8441477013
   81      H       4.1767839708    -3.0699917311    -4.0262540364
   82      C       3.9026027097    -3.5055731734    -6.0883520098
   83      H       4.9392975423    -3.7831656400    -6.2339961433
   84      C      -0.1726049329    -2.4445351384    -5.7828901014
   85      C      -1.1057130525    -1.9619850153    -4.9057854586
   86      H      -0.8250288318    -1.7687051658    -3.8773867062
   87      C      -2.4225115328    -1.7028597829    -5.3342275198
   88      C      -4.5390010358    -1.8282963674    -8.7476979104
   89      C      -5.0444183631    -3.0340512535    -9.2499834855
   90      C      -5.3066678133    -3.1661385769   -10.6080906488
   91      H      -5.7092392100    -4.0927801450   -11.0006961334
   92      C      -5.0438868810    -2.1163228952   -11.4750766454
   93      C      -4.5450839671    -0.9197334245   -10.9873362501
   94      H      -4.3239129526    -0.1151892275   -11.6791586411
   95      C      -4.3033504712    -0.7646933356    -9.6287795344
   96      N      -5.2414892962    -2.2819494923   -12.8604253447
   97      C      -4.6043777407    -3.2311557980   -13.6316013513
   98      C      -6.0491424494    -1.5146053019   -13.6767785170
   99      C      -6.8911522983    -0.4592810586   -13.3513675793
  100      H      -6.9820188171    -0.1035359474   -12.3338300755
  101      C      -7.6152761433     0.1190476095   -14.3789390654
  102      H      -8.2786318923     0.9440729519   -14.1549621575
  103      C      -3.6800479898    -4.2008529679   -13.2557449392
  104      H      -3.3542609906    -4.3051860812   -12.2295984561
  105      C      -3.1856090982    -5.0345977867   -14.2421807292
  106      H      -2.4675914833    -5.7988110080   -13.9739469793
  107      C      -3.5899501084    -4.9121799880   -15.5742677424
  108      H      -3.1840675360    -5.5825672523   -16.3199809726
  109      C      -4.4993577276    -3.9389800100   -15.9423732534
  110      H      -4.8063892086    -3.8397252771   -16.9761055164
  111      C      -5.0118317231    -3.0881207160   -14.9679745073
  112      C      -7.5124898063    -0.3371965229   -15.6961949384
  113      H      -8.0944279207     0.1403884969   -16.4729124153
  114      C      -6.6775025691    -1.3925248491   -16.0107931483
  115      H      -6.6017453101    -1.7508160771   -17.0300016145
  116      C      -5.9382632846    -1.9896663695   -14.9969997601
  117      C      -3.7556733608     0.5367820459    -9.1150547120
  118      H      -3.6405071612     1.2682129574    -9.9145725093
  119      H      -4.4096359871     0.9737570528    -8.3578359767
  120      H      -2.7773812148     0.4028278793    -8.6484309085
  121      C      -5.2979186275    -4.1881177101    -8.3214486795
  122      H      -5.6930755759    -5.0544547781    -8.8513612076
  123      H      -6.0123766353    -3.9233554230    -7.5398467823
  124      H      -4.3810260835    -4.4992827018    -7.8164553134
 ----------------------------------------------------------------
