 Q-Chem 5.1, Q-Chem, Inc., Pleasanton, CA (2018)
 Q-Chem 5.1.1 for Intel X86 EM64T Linux

User input:
--------------------------------------------------------------
$solvent
dielectric      2.38
dielectric_infi 2.25
$end

$rem
threads 8
jobtype	sp
method PBEh-3c
basis def2-mSVP
mem_static	1024
mem_total	14000
sym_ignore	true
cis_n_roots             2
cis_singlets            false
cis_triplets		true
rpa                     false
calc_soc 		true
cis_moments             true
cis_relaxed_density	true
solvent_method		pcm
$end

$pcm
StateSpecific   1
ChargeSeparation Excited
$end

$molecule
read ut1opt_tol.mol
$end

--------------------------------------------------------------

   22   -2925.4592435972      9.23e-09  Convergence criterion met
 Total energy in the final basis set =    -2925.4592435972
 Total job time:  17413.87s(wall), 65450.58s(cpu)
        *  Thank you very much for using Q-Chem.  Have a nice day.  *
 Q-Chem 5.1, Q-Chem, Inc., Pleasanton, CA (2018)
 Q-Chem 5.1.1 for Intel X86 EM64T Linux

User input:
--------------------------------------------------------------
$rem
threads 8
jobtype sp
method PBEh-3c
basis def2-mSVP
mem_static      1024
mem_total       14000
sym_ignore      true
cis_n_roots             6
cis_singlets            true
cis_triplets            true
rpa                     false
calc_soc                true
cis_moments             true
cis_relaxed_density     true
solvent_method          pcm
$end

$molecule
read
$end

$pcm
statespecific           Marcus
$end

$solvent
dielectric      2.38
dielectric_infi 2.25
$end

--------------------------------------------------------------

             Standard Nuclear Orientation (Angstroms)
    I     Atom           X                Y                Z
 ----------------------------------------------------------------
    1      N       0.0000000000     0.0000000000     0.0000000000
    2      C       0.0000000000     0.0000000000     1.3751210000
    3      C       1.3036046611     0.0000000000    -0.4439740325
    4      C      -1.0769609831     0.0000164657     2.2518215460
    5      H      -2.0964013331    -0.0101011563     1.8882900282
    6      C      -0.7938504379     0.0151976455     3.6059668742
    7      H      -1.6115224100     0.0153800891     4.3150377266
    8      C       1.7838414527    -0.0271501163    -1.7509718192
    9      H       1.1136579502    -0.0369712730    -2.6011418250
   10      C       3.1555194261    -0.0310216206    -1.9292006562
   11      H       3.5543768349    -0.0497560126    -2.9359498454
   12      C       0.5230973210     0.0334074377     4.0786124873
   13      H       0.7055809282     0.0466058531     5.1449239626
   14      C       1.5892336579     0.0360674736     3.1974185711
   15      H       2.6078872904     0.0531399065     3.5651583853
   16      C       1.3326639841     0.0177711252     1.8309064759
   17      C       4.0332611630    -0.0076389504    -0.8396095797
   18      H       5.1009906389    -0.0075356541    -1.0150195150
   19      C       3.5474693773     0.0150110408     0.4551654323
   20      H       4.2301021476     0.0293153013     1.2958850786
   21      C       2.1701551521     0.0153628315     0.6614194035
   22      C      -1.1042284825    -0.0629020947    -0.8813981042
   23      C      -1.8016034385    -1.2488401449    -1.0483121905
   24      H      -1.5774322677    -2.0962010310    -0.4097965473
   25      C      -1.3804422570     1.0292129930    -1.6886884555
   26      H      -0.8373584627     1.9547778694    -1.5341802458
   27      C      -2.2781799710     0.9100804537    -2.7420789841
   28      C      -2.7160984504    -1.3758573739    -2.0893219801
   29      C      -2.9201835456    -0.3137744470    -2.9788241050
   30      C      -3.3903567060    -2.6953748488    -2.3401581277
   31      H      -3.2180358204    -3.4000911625    -1.5267570612
   32      H      -4.4680651241    -2.5769618687    -2.4611641979
   33      H      -3.0185256199    -3.1534266769    -3.2599157327
   34      C      -2.4742715162     2.0637955118    -3.6857801761
   35      H      -1.9950867663     2.9703520778    -3.3159173724
   36      H      -3.5314728772     2.2802087629    -3.8434773876
   37      H      -2.0473606466     1.8419296570    -4.6671398075
   38      B      -3.5682588008    -0.5407799688    -4.4025251061
   39      C      -5.0198632762    -0.2196784029    -4.7752897806
   40      C      -5.9631734274     0.1587595559    -3.7968083964
   41      H      -5.6490973539     0.2107410368    -2.7587277433
   42      C      -7.2598733811     0.4623884228    -4.1474641023
   43      C      -7.6515634020     0.4040339547    -5.5185708306
   44      C      -6.7493306419     0.0518921405    -6.4872492743
   45      H      -7.0624854071     0.0217433116    -7.5273854913
   46      C      -5.4207214506    -0.2711740345    -6.1462068118
   47      C      -9.0569475808     0.7764051336    -5.6132982525
   48      C      -9.9583826742     0.9010847139    -6.6405558699
   49      H      -9.6844249923     0.7004703616    -7.6695428375
   50      C      -9.4809126383     1.0516476456    -4.2989018497
   51      C     -10.7729130838     1.4476728677    -3.9675059189
   52      C      -8.4294430211     0.8767997363    -3.3724883895
   53      C      -8.6931729071     1.1133762433    -2.0468777609
   54      H      -7.9332950423     0.9986775217    -1.2839782829
   55      C     -11.2779714743     1.3010484819    -6.3316973289
   56      H     -11.9921230438     1.3994620716    -7.1397162507
   57      C     -11.6860803265     1.5684198492    -5.0442828367
   58      H     -12.7086383782     1.8720385284    -4.8557707710
   59      C      -9.9983440721     1.5173896542    -1.6790655110
   60      H     -10.2021602514     1.7028433090    -0.6321912262
   61      C     -11.0146016629     1.6832284972    -2.5924202994
   62      H     -11.9970569094     1.9941044730    -2.2588073768
   63      B      -4.4073329372    -0.6349339552    -7.2257983618
   64      C      -2.9846781566    -1.0482878640    -6.8613100678
   65      C      -2.0470960608    -1.4202095736    -7.8502713106
   66      H      -2.3398880905    -1.4321726435    -8.8963577785
   67      C      -0.7654474514    -1.7600678797    -7.5045766111
   68      C      -0.3640033012    -1.7416994426    -6.1363291991
   69      C      -1.2589029631    -1.3713575684    -5.1628534603
   70      H      -0.9377489294    -1.3479008349    -4.1272534070
   71      C      -2.5828223289    -1.0144111294    -5.4926607409
   72      C       1.0451282155    -2.1252858104    -6.0746364842
   73      C       1.9770796389    -2.2836867833    -5.0785168083
   74      H       1.7320282407    -2.1319670076    -4.0343213513
   75      C       1.4505121427    -2.3538540387    -7.4063829066
   76      C       2.7395224112    -2.7234365658    -7.7859907239
   77      C       0.3899108472    -2.1505478657    -8.3120644440
   78      C       0.6306351059    -2.3296243614    -9.6524420229
   79      H      -0.1429370958    -2.1849235577   -10.3970581140
   80      C       1.9293082918    -2.7081962349   -10.0648138296
   81      H       2.1167782653    -2.8476050720   -11.1222578671
   82      C       2.9600315404    -2.9015241555    -9.1738470458
   83      H       3.9403872825    -3.1887141056    -9.5348169732
   84      C       3.2943233286    -2.6588609304    -5.4351265776
   85      H       4.0242853509    -2.7808655202    -4.6447687282
   86      C       3.6803530918    -2.8737057966    -6.7385041837
   87      H       4.7015191684    -3.1579124725    -6.9624460661
   88      C      -4.7727266952    -0.4757274464    -8.7505723127
   89      C      -5.1979953095    -1.5812572231    -9.5310744290
   90      C      -5.3891596543    -1.4357344946   -10.8839819226
   91      H      -5.7467709816    -2.2684922081   -11.4766483482
   92      C      -5.2017856742    -0.1804195834   -11.4900029253
   93      N      -5.3373709719    -0.0545428684   -12.8515699556
   94      C      -4.8533323183    -0.9707946044   -13.7872080137
   95      C      -4.0847502542    -2.1113882192   -13.5876887755
   96      H      -3.7742279480    -2.4383953894   -12.6058948394
   97      C      -3.6944765753    -2.8234472722   -14.7122168049
   98      H      -3.1040144981    -3.7205460080   -14.5862277584
   99      C      -4.0315744048    -2.3950392984   -15.9928406206
  100      H      -3.7066316561    -2.9691087610   -16.8498847667
  101      C      -4.7565453529    -1.2234694703   -16.1833719914
  102      H      -4.9836848017    -0.8753708792   -17.1824928764
  103      C      -5.1625976832    -0.5088693229   -15.0727144109
  104      C      -5.9499385440     1.0016526956   -13.5340778103
  105      C      -6.6483934233     2.0895018579   -13.0317467943
  106      H      -6.7779748043     2.2549378545   -11.9719554104
  107      C      -7.2091706616     2.9620007013   -13.9537703815
  108      H      -7.7522766186     3.8255474705   -13.5959744273
  109      C      -7.1013962418     2.7372412395   -15.3235728471
  110      H      -7.5560548328     3.4341479415   -16.0142608207
  111      C      -6.4389071829     1.6172014395   -15.8145208727
  112      H      -6.3871894251     1.4286209410   -16.8788793211
  113      C      -5.8648437066     0.7459402697   -14.9114652447
  114      C      -4.8418715748     0.9353414517   -10.7175272624
  115      H      -4.6442601533     1.8812068539   -11.2051992911
  116      C      -4.6130321217     0.7927379878    -9.3698542165
  117      C      -5.4307434343    -2.9012999396    -8.8658237806
  118      H      -5.8174853250    -3.6450982833    -9.5615171560
  119      H      -6.1367930806    -2.8020606334    -8.0403141806
  120      H      -4.5030467188    -3.2839209565    -8.4360216162
  121      C      -4.1464705479     1.9615226118    -8.5595134947
  122      H      -4.0197022394     2.8524562722    -9.1734925356
  123      H      -4.8586957162     2.1894783690    -7.7654261743
  124      H      -3.1947431227     1.7438408298    -8.0725847116
 ----------------------------------------------------------------

   22   -2925.4585172791      9.36e-09  Convergence criterion met
 Total energy in the final basis set =    -2925.4585172791

         TDDFT/TDA Excitation Energies
 ---------------------------------------------------

 Excited state   1: excitation energy (eV) =    0.3673
 Total energy for state  1:                 -2925.44501767 au
    <S**2>     :  2.0691
    Trans. Mom.:  0.1588 X  -0.0629 Y   0.5410 Z
    Strength   :     0.0028968419
    D(250) --> S(  1) amplitude =  0.9824 beta
    D(251) --> S(  1) amplitude = -0.1665 beta

 Excited state   2: excitation energy (eV) =    0.6599
 Total energy for state  2:                 -2925.43426711 au
    <S**2>     :  2.0640
    Trans. Mom.: -0.2577 X   0.0976 Y  -0.5516 Z
    Strength   :     0.0061468789
    D(249) --> S(  1) amplitude =  0.9707 beta
    D(251) --> S(  1) amplitude = -0.1883 beta

 Excited state   3: excitation energy (eV) =    0.8036
 Total energy for state  3:                 -2925.42898559 au
    <S**2>     :  2.0703
    Trans. Mom.:  0.1320 X  -0.0172 Y   0.3212 Z
    Strength   :     0.0023797026
    D(248) --> S(  1) amplitude =  0.2607 beta
    D(249) --> S(  1) amplitude =  0.2034 beta
    D(250) --> S(  1) amplitude =  0.1639 beta
    D(251) --> S(  1) amplitude =  0.9243 beta

 Excited state   4: excitation energy (eV) =    0.8274
 Total energy for state  4:                 -2925.42811242 au
    <S**2>     :  2.0627
    Trans. Mom.:  0.1665 X  -0.0647 Y   0.1023 Z
    Strength   :     0.0008585594
    D(248) --> S(  1) amplitude =  0.9500 beta
    D(251) --> S(  1) amplitude = -0.2722 beta

 Excited state   5: excitation energy (eV) =    1.1362
 Total energy for state  5:                 -2925.41676106 au
    <S**2>     :  2.0672
    Trans. Mom.: -0.0044 X   0.0068 Y  -0.2306 Z
    Strength   :     0.0014822026
    D(246) --> S(  1) amplitude =  0.9915 beta

 Excited state   6: excitation energy (eV) =    1.2689
 Total energy for state  6:                 -2925.41188563 au
    <S**2>     :  2.0712
    Trans. Mom.:  0.0077 X  -0.0000 Y   0.0083 Z
    Strength   :     0.0000039992
    D(247) --> S(  1) amplitude =  0.9968 beta

 ---------------------------------------------------

                    Orbital Energies (a.u.)
 --------------------------------------------------------------

 Alpha MOs
 -- Occupied --
-14.784 -14.679 -10.551 -10.537 -10.536 -10.502 -10.501 -10.498
-10.498 -10.492 -10.492 -10.491 -10.491 -10.489 -10.489 -10.488
-10.488 -10.486 -10.485 -10.478 -10.477 -10.475 -10.475 -10.452
-10.452 -10.450 -10.449 -10.449 -10.448 -10.447 -10.447 -10.447
-10.447 -10.447 -10.447 -10.446 -10.446 -10.446 -10.446 -10.445
-10.445 -10.442 -10.442 -10.442 -10.442 -10.441 -10.441 -10.441
-10.440 -10.440 -10.439 -10.439 -10.439 -10.439 -10.438 -10.438
-10.438 -10.437 -10.435 -10.435 -10.434 -10.434 -10.432 -10.432
-10.432 -10.431 -10.431 -10.414 -10.414 -10.413 -10.412 -10.410
-10.408 -10.407  -6.905  -6.902  -1.181  -1.101  -1.026  -1.000
 -1.000  -0.999  -0.991  -0.964  -0.943  -0.943  -0.941  -0.936
 -0.934  -0.919  -0.919  -0.912  -0.899  -0.894  -0.889  -0.881
 -0.877  -0.862  -0.857  -0.856  -0.844  -0.838  -0.837  -0.836
 -0.833  -0.833  -0.805  -0.802  -0.802  -0.801  -0.796  -0.795
 -0.794  -0.785  -0.778  -0.757  -0.755  -0.743  -0.739  -0.723
 -0.718  -0.713  -0.712  -0.704  -0.701  -0.689  -0.685  -0.679
 -0.677  -0.673  -0.664  -0.661  -0.648  -0.645  -0.637  -0.635
 -0.634  -0.633  -0.629  -0.628  -0.621  -0.597  -0.593  -0.584
 -0.580  -0.579  -0.578  -0.574  -0.573  -0.568  -0.567  -0.562
 -0.560  -0.559  -0.555  -0.554  -0.544  -0.542  -0.536  -0.535
 -0.532  -0.528  -0.521  -0.515  -0.512  -0.512  -0.510  -0.505
 -0.505  -0.501  -0.496  -0.492  -0.490  -0.490  -0.486  -0.483
 -0.481  -0.480  -0.478  -0.477  -0.474  -0.474  -0.471  -0.471
 -0.470  -0.468  -0.466  -0.466  -0.464  -0.464  -0.461  -0.459
 -0.459  -0.457  -0.453  -0.451  -0.450  -0.448  -0.447  -0.440
 -0.440  -0.435  -0.428  -0.426  -0.424  -0.422  -0.421  -0.416
 -0.416  -0.415  -0.412  -0.412  -0.408  -0.407  -0.400  -0.391
 -0.387  -0.384  -0.384  -0.384  -0.383  -0.381  -0.380  -0.377
 -0.377  -0.373  -0.365  -0.360  -0.357  -0.355  -0.345  -0.339
 -0.334  -0.323  -0.323  -0.321  -0.319  -0.309  -0.302  -0.300
 -0.292  -0.289  -0.286  -0.284  -0.271  -0.269  -0.265  -0.253
 -0.247  -0.243  -0.240  -0.231  -0.151

 Beta MOs
 -- Occupied --
-14.776 -14.679 -10.550 -10.538 -10.538 -10.501 -10.500 -10.496
-10.496 -10.492 -10.492 -10.492 -10.492 -10.488 -10.487 -10.487
-10.487 -10.486 -10.486 -10.478 -10.477 -10.475 -10.471 -10.453
-10.452 -10.450 -10.449 -10.448 -10.448 -10.448 -10.448 -10.448
-10.447 -10.447 -10.446 -10.446 -10.446 -10.445 -10.445 -10.444
-10.444 -10.442 -10.442 -10.442 -10.441 -10.441 -10.441 -10.441
-10.440 -10.440 -10.439 -10.439 -10.439 -10.438 -10.438 -10.438
-10.437 -10.437 -10.435 -10.435 -10.434 -10.434 -10.432 -10.432
-10.432 -10.432 -10.431 -10.414 -10.414 -10.412 -10.411 -10.410
-10.407 -10.407  -6.902  -6.899  -1.169  -1.101  -1.022  -0.999
 -0.999  -0.998  -0.986  -0.963  -0.943  -0.942  -0.939  -0.934
 -0.932  -0.918  -0.918  -0.911  -0.895  -0.892  -0.887  -0.880
 -0.877  -0.862  -0.857  -0.848  -0.844  -0.838  -0.836  -0.835
 -0.832  -0.832  -0.802  -0.802  -0.800  -0.799  -0.795  -0.795
 -0.792  -0.783  -0.773  -0.756  -0.755  -0.741  -0.736  -0.722
 -0.716  -0.711  -0.711  -0.703  -0.699  -0.687  -0.685  -0.679
 -0.674  -0.673  -0.663  -0.657  -0.646  -0.645  -0.635  -0.634
 -0.633  -0.632  -0.628  -0.628  -0.618  -0.590  -0.585  -0.584
 -0.580  -0.578  -0.577  -0.573  -0.572  -0.567  -0.563  -0.562
 -0.559  -0.558  -0.552  -0.549  -0.543  -0.541  -0.535  -0.532
 -0.530  -0.526  -0.521  -0.515  -0.512  -0.511  -0.510  -0.502
 -0.502  -0.498  -0.494  -0.492  -0.490  -0.489  -0.485  -0.482
 -0.481  -0.480  -0.478  -0.475  -0.473  -0.473  -0.471  -0.469
 -0.469  -0.468  -0.464  -0.464  -0.464  -0.459  -0.458  -0.456
 -0.455  -0.454  -0.453  -0.450  -0.450  -0.447  -0.444  -0.439
 -0.438  -0.435  -0.426  -0.426  -0.423  -0.419  -0.417  -0.416
 -0.414  -0.411  -0.409  -0.407  -0.405  -0.399  -0.398  -0.390
 -0.387  -0.384  -0.382  -0.381  -0.381  -0.381  -0.380  -0.376
 -0.372  -0.368  -0.365  -0.357  -0.351  -0.348  -0.335  -0.333
 -0.327  -0.323  -0.321  -0.317  -0.302  -0.302  -0.298  -0.296
 -0.292  -0.282  -0.282  -0.269  -0.265  -0.260  -0.247  -0.245
 -0.240  -0.233  -0.231

          Ground-State Mulliken Net Atomic Charges

     Atom                 Charge (a.u.)    Spin (a.u.)
  --------------------------------------------------------
      1 N                    -0.725069      -0.000023
      2 C                     0.349128       0.000004
      3 C                     0.332549       0.000020
      4 C                    -0.297622       0.000013
      5 H                     0.250681      -0.000001
      6 C                    -0.258329      -0.000008
      7 H                     0.234998       0.000000
      8 C                    -0.296683       0.000070
      9 H                     0.261206      -0.000029
     10 C                    -0.261650       0.000001
     11 H                     0.239361       0.000045
     12 C                    -0.251673       0.000011
     13 H                     0.230833      -0.000001
     14 C                    -0.358666      -0.000006
     15 H                     0.226315       0.000000
     16 C                     0.071259       0.000007
     17 C                    -0.249209       0.000008
     18 H                     0.230687      -0.000001
     19 C                    -0.362507       0.000003
     20 H                     0.225838       0.000001
     21 C                     0.091996       0.000002
     22 C                     0.266430       0.000692
     23 C                    -0.326165      -0.000574
     24 H                     0.238226       0.000348
     25 C                    -0.343654      -0.000421
     26 H                     0.239116       0.000277
     27 C                     0.027468       0.003187
     28 C                     0.032241       0.003789
     29 C                    -0.181499      -0.024295
     30 C                    -0.752292       0.000443
     31 H                     0.238024       0.001356
     32 H                     0.244010      -0.000636
     33 H                     0.248463      -0.000594
     34 C                    -0.761334       0.000324
     35 H                     0.240366       0.001611
     36 H                     0.247686      -0.000766
     37 H                     0.247804      -0.000876
     38 B                     0.559324       0.274834
     39 C                    -0.145943       0.063460
     40 C                    -0.414224      -0.057023
     41 H                     0.221169       0.002315
     42 C                     0.083127       0.095886
     43 C                     0.062648       0.035329
     44 C                    -0.405724      -0.007632
     45 H                     0.203426      -0.001433
     46 C                    -0.130765       0.016736
     47 C                     0.182787      -0.043816
     48 C                    -0.399445       0.068432
     49 H                     0.222550      -0.004039
     50 C                    -0.076409       0.023321
     51 C                     0.232481      -0.037700
     52 C                     0.181988      -0.058287
     53 C                    -0.404897       0.085730
     54 H                     0.233774      -0.005022
     55 C                    -0.223846      -0.045433
     56 H                     0.234951       0.002248
     57 C                    -0.354727       0.063914
     58 H                     0.233387      -0.003731
     59 C                    -0.220425      -0.053375
     60 H                     0.238607       0.002583
     61 C                    -0.358852       0.077815
     62 H                     0.233518      -0.004587
     63 B                     0.540552       0.350178
     64 C                    -0.139360       0.011904
     65 C                    -0.405278       0.000775
     66 H                     0.200316      -0.002071
     67 C                     0.068620       0.025019
     68 C                     0.078376       0.098592
     69 C                    -0.398568      -0.059261
     70 H                     0.232936       0.002474
     71 C                    -0.138019       0.069982
     72 C                     0.190611      -0.057335
     73 C                    -0.411973       0.084169
     74 H                     0.243460      -0.005023
     75 C                    -0.078344       0.022454
     76 C                     0.229670      -0.035917
     77 C                     0.183739      -0.039465
     78 C                    -0.401729       0.062138
     79 H                     0.219527      -0.003666
     80 C                    -0.222700      -0.041906
     81 H                     0.234182       0.002084
     82 C                    -0.354066       0.057893
     83 H                     0.233940      -0.003366
     84 C                    -0.224002      -0.051779
     85 H                     0.241823       0.002493
     86 C                    -0.357245       0.076296
     87 H                     0.233757      -0.004495
     88 C                    -0.130447       0.311146
     89 C                     0.056975      -0.063020
     90 C                    -0.371585       0.089666
     91 H                     0.291717      -0.004988
     92 C                     0.378444       0.081939
     93 N                    -0.688473       0.288283
     94 C                     0.326726      -0.088338
     95 C                    -0.263156       0.135195
     96 H                     0.295301      -0.007304
     97 C                    -0.247008      -0.077930
     98 H                     0.267626       0.003557
     99 C                    -0.223763       0.128228
    100 H                     0.265623      -0.007089
    101 C                    -0.348869      -0.042797
    102 H                     0.253972       0.002224
    103 C                     0.110886       0.073070
    104 C                     0.335723      -0.088441
    105 C                    -0.263773       0.133582
    106 H                     0.293226      -0.007097
    107 C                    -0.248231      -0.077702
    108 H                     0.267380       0.003543
    109 C                    -0.224336       0.127603
    110 H                     0.265370      -0.007060
    111 C                    -0.346881      -0.043198
    112 H                     0.254306       0.002243
    113 C                     0.098578       0.072845
    114 C                    -0.375686       0.087867
    115 H                     0.287817      -0.005064
    116 C                     0.037185      -0.065744
    117 C                    -0.753308       0.006697
    118 H                     0.245043       0.001159
    119 H                     0.270077      -0.002738
    120 H                     0.271758      -0.000620
    121 C                    -0.758514       0.006004
    122 H                     0.246322       0.001320
    123 H                     0.272383      -0.000764
    124 H                     0.274561      -0.002956
  --------------------------------------------------------
  Sum of atomic charges =    -0.000000

                    Cartesian Multipole Moments
 -----------------------------------------------------------------
    Charge (ESU x 10^10)
                -0.0000
    Dipole Moment (Debye)
         X      -6.8574      Y       1.4258      Z     -26.3200
       Tot      27.2359
    Quadrupole Moments (Debye-Ang)
        XX    -380.6350     XY     -18.8382     YY    -424.8573
        XZ     164.0080     YZ      -7.4681     ZZ      64.1170

 Total job time:  22081.87s(wall), 81079.50s(cpu)
        *  Thank you very much for using Q-Chem.  Have a nice day.  *
