 Q-Chem 5.1, Q-Chem, Inc., Pleasanton, CA (2018)
 Q-Chem 5.1.1 for Intel X86 EM64T Linux

User input:
--------------------------------------------------------------
$solvent
dielectric      2.03
dielectric_infi 2.02
$end

$rem
threads 8
jobtype	sp
method PBEh-3c
basis def2-mSVP
mem_static	1024
mem_total	14000
sym_ignore	true
cis_n_roots             2
cis_singlets            false
cis_triplets		true
rpa                     false
calc_soc 		true
cis_moments             true
cis_relaxed_density	true
solvent_method		pcm
$end

$pcm
StateSpecific   1
ChargeSeparation Excited
$end

$molecule
read ut1opt_chx.mol
$end

--------------------------------------------------------------

   15   -2925.5389660542      5.70e-09  Convergence criterion met
 Total energy in the final basis set =    -2925.5389660542

                    Orbital Energies (a.u.)
 --------------------------------------------------------------

 Alpha MOs
 -- Occupied --
-14.694 -14.690 -10.494 -10.492 -10.491 -10.491 -10.487 -10.486
-10.471 -10.469 -10.469 -10.469 -10.469 -10.468 -10.468 -10.468
-10.467 -10.467 -10.467 -10.466 -10.465 -10.465 -10.465 -10.465
-10.464 -10.464 -10.463 -10.463 -10.462 -10.462 -10.462 -10.461
-10.460 -10.460 -10.460 -10.460 -10.459 -10.458 -10.452 -10.452
-10.452 -10.451 -10.451 -10.451 -10.450 -10.450 -10.450 -10.450
-10.449 -10.449 -10.449 -10.449 -10.448 -10.448 -10.448 -10.447
-10.447 -10.446 -10.444 -10.443 -10.443 -10.443 -10.443 -10.442
-10.441 -10.440 -10.440 -10.439 -10.434 -10.433 -10.432 -10.431
-10.430 -10.429  -6.956  -6.948  -1.112  -1.111  -1.020  -1.019
 -0.979  -0.978  -0.966  -0.963  -0.955  -0.951  -0.948  -0.947
 -0.937  -0.935  -0.913  -0.903  -0.891  -0.889  -0.882  -0.881
 -0.863  -0.860  -0.855  -0.853  -0.851  -0.849  -0.848  -0.846
 -0.828  -0.819  -0.815  -0.814  -0.810  -0.810  -0.809  -0.808
 -0.776  -0.773  -0.772  -0.771  -0.740  -0.739  -0.733  -0.731
 -0.728  -0.724  -0.701  -0.697  -0.692  -0.691  -0.688  -0.683
 -0.680  -0.671  -0.660  -0.656  -0.653  -0.651  -0.650  -0.646
 -0.644  -0.642  -0.602  -0.600  -0.596  -0.595  -0.594  -0.591
 -0.590  -0.588  -0.586  -0.579  -0.579  -0.576  -0.573  -0.559
 -0.553  -0.552  -0.547  -0.546  -0.531  -0.530  -0.528  -0.524
 -0.522  -0.520  -0.518  -0.513  -0.509  -0.507  -0.505  -0.504
 -0.500  -0.499  -0.497  -0.495  -0.493  -0.492  -0.492  -0.491
 -0.489  -0.488  -0.487  -0.486  -0.482  -0.482  -0.481  -0.480
 -0.476  -0.475  -0.473  -0.472  -0.470  -0.469  -0.468  -0.467
 -0.466  -0.459  -0.449  -0.445  -0.443  -0.443  -0.442  -0.434
 -0.431  -0.430  -0.428  -0.425  -0.425  -0.424  -0.423  -0.418
 -0.415  -0.414  -0.413  -0.406  -0.402  -0.401  -0.400  -0.399
 -0.398  -0.397  -0.397  -0.396  -0.394  -0.394  -0.391  -0.390
 -0.385  -0.378  -0.375  -0.373  -0.366  -0.358  -0.355  -0.344
 -0.333  -0.331  -0.326  -0.320  -0.301  -0.301  -0.300  -0.298
 -0.287  -0.287  -0.286  -0.286  -0.284  -0.266  -0.261  -0.260
 -0.259  -0.255  -0.241  -0.232

          Ground-State Mulliken Net Atomic Charges

     Atom                 Charge (a.u.)
  ----------------------------------------
      1 N                    -0.728326
      2 C                     0.349787
      3 C                     0.333183
      4 C                    -0.295561
      5 H                     0.246909
      6 C                    -0.255019
      7 H                     0.234526
      8 C                    -0.295445
      9 H                     0.253912
     10 C                    -0.259193
     11 H                     0.237335
     12 C                    -0.247765
     13 H                     0.231497
     14 C                    -0.356050
     15 H                     0.225863
     16 C                     0.074936
     17 C                    -0.245591
     18 H                     0.231347
     19 C                    -0.359695
     20 H                     0.225976
     21 C                     0.095939
     22 C                     0.271595
     23 C                    -0.321026
     24 H                     0.244884
     25 C                    -0.338670
     26 H                     0.246692
     27 C                     0.034303
     28 C                     0.040089
     29 C                    -0.207949
     30 C                    -0.759328
     31 H                     0.249001
     32 H                     0.246310
     33 H                     0.250207
     34 C                    -0.768598
     35 H                     0.252256
     36 H                     0.250585
     37 H                     0.251680
     38 B                     0.675952
     39 C                    -0.153546
     40 C                    -0.405361
     41 H                     0.234196
     42 C                     0.105264
     43 C                     0.084803
     44 C                    -0.390024
     45 H                     0.240896
     46 C                    -0.148448
     47 C                     0.187001
     48 C                    -0.382214
     49 H                     0.240648
     50 C                    -0.065013
     51 C                     0.234927
     52 C                     0.185014
     53 C                    -0.388950
     54 H                     0.239260
     55 C                    -0.222427
     56 H                     0.246879
     57 C                    -0.339675
     58 H                     0.242378
     59 C                    -0.220068
     60 H                     0.245959
     61 C                    -0.342826
     62 H                     0.242728
     63 B                     0.676775
     64 C                    -0.156244
     65 C                    -0.390072
     66 H                     0.240660
     67 C                     0.089521
     68 C                     0.099334
     69 C                    -0.389082
     70 H                     0.244126
     71 C                    -0.144518
     72 C                     0.193544
     73 C                    -0.397328
     74 H                     0.248674
     75 C                    -0.067534
     76 C                     0.231965
     77 C                     0.187863
     78 C                    -0.385689
     79 H                     0.239403
     80 C                    -0.221315
     81 H                     0.246352
     82 C                    -0.340074
     83 H                     0.242047
     84 C                    -0.224073
     85 H                     0.248401
     86 C                    -0.341847
     87 H                     0.242161
     88 C                    -0.232685
     89 C                     0.064977
     90 C                    -0.395079
     91 H                     0.262357
     92 C                     0.357532
     93 N                    -0.741849
     94 C                     0.330165
     95 C                    -0.293677
     96 H                     0.262499
     97 C                    -0.247181
     98 H                     0.236480
     99 C                    -0.249524
    100 H                     0.232937
    101 C                    -0.355677
    102 H                     0.228418
    103 C                     0.083829
    104 C                     0.338793
    105 C                    -0.294640
    106 H                     0.261764
    107 C                    -0.248196
    108 H                     0.237216
    109 C                    -0.249776
    110 H                     0.232987
    111 C                    -0.353601
    112 H                     0.228794
    113 C                     0.072420
    114 C                    -0.399141
    115 H                     0.258889
    116 C                     0.047056
    117 C                    -0.763254
    118 H                     0.247319
    119 H                     0.247972
    120 H                     0.248633
    121 C                    -0.768499
    122 H                     0.249154
    123 H                     0.250288
    124 H                     0.251305
  ----------------------------------------
  Sum of atomic charges =    -0.000000

                    Cartesian Multipole Moments
 -----------------------------------------------------------------
    Charge (ESU x 10^10)
                -0.0000
    Dipole Moment (Debye)
         X      -1.8475      Y      -0.3555      Z      -0.3471
       Tot       1.9132
    Quadrupole Moments (Debye-Ang)
        XX    -363.9775     XY     -24.1447     YY    -429.3679
        XZ     -11.7579     YZ       7.1569     ZZ    -413.8997

 Total job time:  14614.54s(wall), 46913.27s(cpu)
        *  Thank you very much for using Q-Chem.  Have a nice day.  *
 Q-Chem 5.1, Q-Chem, Inc., Pleasanton, CA (2018)
 Q-Chem 5.1.1 for Intel X86 EM64T Linux

User input:
--------------------------------------------------------------
$rem
threads 8
jobtype sp
method PBEh-3c
basis def2-mSVP
mem_static      1024
mem_total       14000
sym_ignore      true
cis_n_roots             6
cis_singlets            true
cis_triplets            true
rpa                     false
calc_soc                true
cis_moments             true
cis_relaxed_density     true
solvent_method          pcm
$end

$molecule
read
$end

$pcm
statespecific           Marcus
$end

$solvent
dielectric      2.03
dielectric_infi 2.02
$end

--------------------------------------------------------------

             Standard Nuclear Orientation (Angstroms)
    I     Atom           X                Y                Z
 ----------------------------------------------------------------
    1      N       0.0000000000     0.0000000000     0.0000000000
    2      C       0.0000000000     0.0000000000     1.3751620000
    3      C       1.3037020537     0.0000000000    -0.4439331060
    4      C      -1.0769474300    -0.0006159729     2.2517174053
    5      H      -2.0962374244    -0.0112427429     1.8878682661
    6      C      -0.7939855428     0.0148460472     3.6057823310
    7      H      -1.6116696109     0.0145733487     4.3148102036
    8      C       1.7841726412    -0.0281428674    -1.7507472356
    9      H       1.1140279329    -0.0380075519    -2.6009294902
   10      C       3.1558017378    -0.0325404140    -1.9288355262
   11      H       3.5546295046    -0.0520068020    -2.9355761162
   12      C       0.5227860782     0.0340029283     4.0784431074
   13      H       0.7052229519     0.0474549975     5.1447381027
   14      C       1.5888528824     0.0372733939     3.1973382121
   15      H       2.6074180449     0.0550418343     3.5652105617
   16      C       1.3325501379     0.0185749190     1.8309137485
   17      C       4.0332956115    -0.0085537128    -0.8392390127
   18      H       5.1010371356    -0.0088195680    -1.0144334287
   19      C       3.5472356392     0.0153091647     0.4553131363
   20      H       4.2297708281     0.0301325205     1.2960785393
   21      C       2.1700492334     0.0159957842     0.6615082592
   22      C      -1.1038719587    -0.0687786371    -0.8810879764
   23      C      -1.8018484968    -1.2554798296    -1.0397080927
   24      H      -1.5781670560    -2.0982133840    -0.3949610069
   25      C      -1.3793173382     1.0174462556    -1.6964937194
   26      H      -0.8362402469     1.9439803406    -1.5480367854
   27      C      -2.2756915135     0.8906998405    -2.7500209848
   28      C      -2.7154306141    -1.3899079675    -2.0804417613
   29      C      -2.9176748992    -0.3346257938    -2.9782622498
   30      C      -3.3895375020    -2.7110328885    -2.3228173572
   31      H      -3.2223131697    -3.4084924794    -1.5021224771
   32      H      -4.4664416968    -2.5927707611    -2.4507095631
   33      H      -3.0131598686    -3.1778837125    -3.2363051598
   34      C      -2.4698836440     2.0368811381    -3.7032392627
   35      H      -1.9925938660     2.9466876098    -3.3389482012
   36      H      -3.5267835395     2.2511629952    -3.8657191910
   37      H      -2.0396444543     1.8076433045    -4.6814850587
   38      B      -3.5601723084    -0.5732423457    -4.4022729352
   39      C      -5.0105703259    -0.2569154531    -4.7838758410
   40      C      -5.9587574864     0.1272624651    -3.8127156684
   41      H      -5.6492476936     0.1869172343    -2.7737120783
   42      C      -7.2539916246     0.4273863910    -4.1717492837
   43      C      -7.6389526971     0.3591079441    -5.5441478171
   44      C      -6.7320607966     0.0006817534    -6.5058499277
   45      H      -7.0405801997    -0.0378673337    -7.5471601855
   46      C      -5.4048922684    -0.3191071218    -6.1559595813
   47      C      -9.0442997289     0.7293087693    -5.6482672938
   48      C      -9.9408102936     0.8457183565    -6.6805574717
   49      H      -9.6617345754     0.6377934463    -7.7067118218
   50      C      -9.4747610368     1.0135452697    -4.3380520761
   51      C     -10.7685790623     1.4107097630    -4.0157303079
   52      C      -8.4276326393     0.8461194979    -3.4054670457
   53      C      -8.6980322508     1.0916108634    -2.0829883487
   54      H      -7.9417556458     0.9828178195    -1.3156963077
   55      C     -11.2621482368     1.2466649844    -6.3810551621
   56      H     -11.9725594226     1.3385549898    -7.1931173267
   57      C     -11.6765130626     1.5229397711    -5.0976770374
   58      H     -12.7002307873     1.8269517849    -4.9163027755
   59      C     -10.0052244028     1.4969968648    -1.7242877561
   60      H     -10.2142810795     1.6894876694    -0.6797404110
   61      C     -11.0170533301     1.6556377114    -2.6435910977
   62      H     -12.0013520722     1.9679181438    -2.3168531425
   63      B      -4.3857935432    -0.6904172497    -7.2270823616
   64      C      -2.9645918019    -1.0999393746    -6.8543589225
   65      C      -2.0211661015    -1.4767841382    -7.8362625751
   66      H      -2.3084023196    -1.4967163983    -8.8838259831
   67      C      -0.7409764136    -1.8118661186    -7.4818305066
   68      C      -0.3465685812    -1.7835809717    -6.1117445515
   69      C      -1.2469523319    -1.4077988562    -5.1453346125
   70      H      -0.9311408100    -1.3767091791    -4.1083354044
   71      C      -2.5692953333    -1.0546386531    -5.4841699971
   72      C       1.0625891791    -2.1642632463    -6.0402012575
   73      C       1.9895820967    -2.3141073972    -5.0382061275
   74      H       1.7390625522    -2.1557567017    -3.9963170980
   75      C       1.4753640520    -2.4010317192    -7.3682182993
   76      C       2.7669947052    -2.7704389722    -7.7385957843
   77      C       0.4192616674    -2.2057831856    -8.2806960316
   78      C       0.6674535317    -2.3929880971    -9.6184457986
   79      H      -0.1024321841    -2.2543467899   -10.3680218810
   80      C       1.9688747933    -2.7716093585   -10.0215904826
   81      H       2.1623278651    -2.9174090788   -11.0770860517
   82      C       2.9950741171    -2.9571201317    -9.1239561699
   83      H       3.9778698533    -3.2446512986    -9.4779122919
   84      C       3.3092783464    -2.6889335265    -5.3854392701
   85      H       4.0352365060    -2.8041159353    -4.5904057370
   86      C       3.7024932657    -2.9117685608    -6.6852264028
   87      H       4.7253822157    -3.1954063646    -6.9018389954
   88      C      -4.7403466493    -0.5352860006    -8.7538744058
   89      C      -5.1512469929    -1.6455920712    -9.5372677430
   90      C      -5.3300704497    -1.5036071916   -10.8916001912
   91      H      -5.6772104808    -2.3393577072   -11.4862598801
   92      C      -5.1453766474    -0.2477982754   -11.4986174143
   93      N      -5.2685963727    -0.1255148370   -12.8609040178
   94      C      -4.7715992200    -1.0415620095   -13.7906645770
   95      C      -3.9998599467    -2.1783578374   -13.5825732335
   96      H      -3.6972635018    -2.5026543111   -12.5974122555
   97      C      -3.5953837442    -2.8900686382   -14.7020845760
   98      H      -3.0019849606    -3.7842147693   -14.5689760992
   99      C      -3.9219820640    -2.4653218292   -15.9867087185
  100      H      -3.5861491494    -3.0392376312   -16.8396262648
  101      C      -4.6501735615    -1.2978744207   -16.1854723931
  102      H      -4.8694152855    -0.9521549966   -17.1871921416
  103      C      -5.0703609313    -0.5830930136   -15.0796371879
  104      C      -5.8791274941     0.9268471425   -13.5519879674
  105      C      -6.5878404473     2.0124278764   -13.0595319732
  106      H      -6.7289750307     2.1795187584   -12.0014843745
  107      C      -7.1438222605     2.8799835655   -13.9888543786
  108      H      -7.6947260105     3.7415483814   -13.6382376083
  109      C      -7.0215348733     2.6530244027   -15.3571314740
  110      H      -7.4727321109     3.3462641822   -16.0537322522
  111      C      -6.3490329384     1.5355245778   -15.8384083948
  112      H      -6.2857699454     1.3446991156   -16.9017507617
  113      C      -5.7795211778     0.6685762963   -14.9276740990
  114      C      -4.8008633458     0.8720690129   -10.7241045179
  115      H      -4.6045993025     1.8180177108   -11.2121323348
  116      C      -4.5836713478     0.7340901681    -9.3745632847
  117      C      -5.3819412813    -2.9647497248    -8.8704004524
  118      H      -5.7606797628    -3.7124106702    -9.5663799738
  119      H      -6.0931547499    -2.8663900082    -8.0491858617
  120      H      -4.4550533096    -3.3411822989    -8.4332959664
  121      C      -4.1312088687     1.9066639798    -8.5622286566
  122      H      -4.0016639965     2.7966436498    -9.1770129650
  123      H      -4.8527358367     2.1330448714    -7.7761644121
  124      H      -3.1840520456     1.6937319176    -8.0644883337
 ----------------------------------------------------------------

   15   -2925.5389651892      5.71e-09  Convergence criterion met
 Total energy in the final basis set =    -2925.5389651892

         TDDFT/TDA Excitation Energies
 ---------------------------------------------------

 Excited state   1: excitation energy (eV) =    2.2073
 Total energy for state  1:                 -2925.45784815 au
    Multiplicity: Triplet
    Trans. Mom.:  0.0000 X   0.0000 Y   0.0000 Z
    Strength   :     0.0000000000
    D(247) --> V(  1) amplitude =  0.9146

 Excited state   2: excitation energy (eV) =    2.4133
 Total energy for state  2:                 -2925.45027773 au
    Multiplicity: Triplet
    Trans. Mom.:  0.0000 X   0.0000 Y   0.0000 Z
    Strength   :     0.0000000000
    D(246) --> V(  2) amplitude =  0.4453
    D(249) --> V(  1) amplitude =  0.7857

 Excited state   3: excitation energy (eV) =    2.4784
 Total energy for state  3:                 -2925.44788451 au
    Multiplicity: Triplet
    Trans. Mom.:  0.0000 X   0.0000 Y   0.0000 Z
    Strength   :     0.0000000000
    D(246) --> V(  1) amplitude =  0.7259
    D(246) --> V(  4) amplitude = -0.2263
    D(249) --> V(  2) amplitude =  0.5039
    D(252) --> V(  1) amplitude =  0.2490

 Excited state   4: excitation energy (eV) =    2.5347
 Total energy for state  4:                 -2925.44581752 au
    Multiplicity: Triplet
    Trans. Mom.:  0.0000 X   0.0000 Y   0.0000 Z
    Strength   :     0.0000000000
    D(245) --> V(  1) amplitude = -0.2293
    D(252) --> V(  1) amplitude =  0.8822

 Excited state   5: excitation energy (eV) =    2.5533
 Total energy for state  5:                 -2925.44513237 au
    Multiplicity: Singlet
    Trans. Mom.:  0.2698 X  -0.0791 Y   0.2863 Z
    Strength   :     0.0100716354
    D(252) --> V(  1) amplitude =  0.9547

 Excited state   6: excitation energy (eV) =    2.7233
 Total energy for state  6:                 -2925.43888685 au
    Multiplicity: Triplet
    Trans. Mom.:  0.0000 X   0.0000 Y   0.0000 Z
    Strength   :     0.0000000000
    D(241) --> V(  1) amplitude = -0.2362
    D(242) --> V(  1) amplitude = -0.4471
    D(243) --> V(  1) amplitude = -0.4575
    D(247) --> V(  2) amplitude = -0.5463

 Excited state   7: excitation energy (eV) =    2.8640
 Total energy for state  7:                 -2925.43371416 au
    Multiplicity: Singlet
    Trans. Mom.: -0.0434 X   0.0260 Y   0.0014 Z
    Strength   :     0.0001798248
    D(247) --> V(  1) amplitude =  0.9631

 Excited state   8: excitation energy (eV) =    2.9979
 Total energy for state  8:                 -2925.42879590 au
    Multiplicity: Triplet
    Trans. Mom.:  0.0000 X   0.0000 Y   0.0000 Z
    Strength   :     0.0000000000
    D(251) --> V(  1) amplitude =  0.9385

 Excited state   9: excitation energy (eV) =    3.0083
 Total energy for state  9:                 -2925.42841045 au
    Multiplicity: Singlet
    Trans. Mom.:  0.6804 X  -0.2075 Y  -0.2766 Z
    Strength   :     0.0429313149
    D(251) --> V(  1) amplitude =  0.9393

 Excited state  10: excitation energy (eV) =    3.1081
 Total energy for state 10:                 -2925.42474533 au
    Multiplicity: Singlet
    Trans. Mom.: -3.6771 X   1.1211 Y   0.9612 Z
    Strength   :     1.1956529319
    D(249) --> V(  1) amplitude =  0.9330

 Excited state  11: excitation energy (eV) =    3.4148
 Total energy for state 11:                 -2925.41347244 au
    Multiplicity: Singlet
    Trans. Mom.: -0.4002 X   0.0254 Y   0.1736 Z
    Strength   :     0.0159763876
    D(246) --> V(  1) amplitude =  0.9338

 Excited state  12: excitation energy (eV) =    3.5121
 Total energy for state 12:                 -2925.40989685 au
    Multiplicity: Singlet
    Trans. Mom.: -0.0242 X   0.0219 Y   0.0291 Z
    Strength   :     0.0001643767
    D(250) --> V(  1) amplitude =  0.9898

 ---------------------------------------------------
