 Q-Chem 5.1, Q-Chem, Inc., Pleasanton, CA (2018)
 Q-Chem 5.1.1 for Intel X86 EM64T Linux

User input:
--------------------------------------------------------------
$solvent
dielectric      4.33
dielectric_infi 1.83
$end

$rem
threads 8
jobtype	sp
method PBEh-3c
basis def2-mSVP
mem_static	1024
mem_total	14000
sym_ignore	true
cis_n_roots             2
cis_singlets            false
cis_triplets		true
rpa                     false
calc_soc 		true
cis_moments             true
cis_relaxed_density	true
solvent_method		pcm
$end

$pcm
StateSpecific   1
ChargeSeparation Excited
$end

$molecule
read ut1opt_eth.mol
$end

--------------------------------------------------------------

   14   -2925.5523117554      9.62e-09  Convergence criterion met
 Total energy in the final basis set =    -2925.5523117554

                    Orbital Energies (a.u.)
 --------------------------------------------------------------

 Alpha MOs
 -- Occupied --
-14.696 -14.691 -10.495 -10.493 -10.493 -10.492 -10.489 -10.489
-10.472 -10.470 -10.470 -10.469 -10.469 -10.468 -10.468 -10.468
-10.467 -10.467 -10.467 -10.466 -10.465 -10.465 -10.465 -10.464
-10.464 -10.464 -10.463 -10.463 -10.463 -10.461 -10.461 -10.460
-10.460 -10.460 -10.460 -10.460 -10.460 -10.459 -10.454 -10.454
-10.453 -10.452 -10.452 -10.452 -10.452 -10.452 -10.451 -10.451
-10.451 -10.450 -10.450 -10.450 -10.450 -10.450 -10.449 -10.449
-10.448 -10.448 -10.445 -10.444 -10.444 -10.444 -10.444 -10.443
-10.442 -10.442 -10.441 -10.441 -10.435 -10.432 -10.431 -10.430
-10.430 -10.430  -6.956  -6.950  -1.114  -1.113  -1.020  -1.019
 -0.979  -0.979  -0.966  -0.963  -0.957  -0.954  -0.949  -0.949
 -0.936  -0.935  -0.913  -0.904  -0.892  -0.890  -0.882  -0.881
 -0.864  -0.860  -0.856  -0.854  -0.850  -0.850  -0.849  -0.848
 -0.829  -0.819  -0.816  -0.815  -0.812  -0.811  -0.810  -0.809
 -0.776  -0.773  -0.772  -0.772  -0.741  -0.740  -0.734  -0.730
 -0.728  -0.724  -0.702  -0.699  -0.692  -0.692  -0.689  -0.683
 -0.681  -0.671  -0.661  -0.656  -0.654  -0.652  -0.650  -0.647
 -0.645  -0.643  -0.602  -0.600  -0.596  -0.594  -0.593  -0.591
 -0.591  -0.590  -0.586  -0.579  -0.579  -0.577  -0.574  -0.560
 -0.553  -0.553  -0.547  -0.546  -0.531  -0.530  -0.529  -0.524
 -0.523  -0.521  -0.518  -0.513  -0.510  -0.507  -0.505  -0.505
 -0.501  -0.500  -0.498  -0.495  -0.494  -0.493  -0.493  -0.492
 -0.490  -0.489  -0.489  -0.486  -0.483  -0.482  -0.482  -0.481
 -0.475  -0.474  -0.472  -0.471  -0.470  -0.468  -0.468  -0.468
 -0.465  -0.459  -0.449  -0.444  -0.443  -0.442  -0.442  -0.433
 -0.430  -0.429  -0.428  -0.426  -0.426  -0.425  -0.423  -0.420
 -0.418  -0.414  -0.414  -0.406  -0.403  -0.400  -0.399  -0.399
 -0.398  -0.397  -0.397  -0.396  -0.395  -0.394  -0.392  -0.391
 -0.385  -0.380  -0.377  -0.374  -0.367  -0.358  -0.356  -0.345
 -0.336  -0.333  -0.327  -0.321  -0.303  -0.303  -0.300  -0.298
 -0.288  -0.287  -0.287  -0.286  -0.285  -0.267  -0.262  -0.262
 -0.260  -0.258  -0.244  -0.234

          Ground-State Mulliken Net Atomic Charges

     Atom                 Charge (a.u.)
  ----------------------------------------
      1 N                    -0.725858
      2 C                     0.348075
      3 C                     0.333142
      4 C                    -0.303175
      5 H                     0.254866
      6 C                    -0.264339
      7 H                     0.244706
      8 C                    -0.302057
      9 H                     0.261506
     10 C                    -0.266355
     11 H                     0.245663
     12 C                    -0.258451
     13 H                     0.241095
     14 C                    -0.362740
     15 H                     0.237595
     16 C                     0.066839
     17 C                    -0.256180
     18 H                     0.241090
     19 C                    -0.366328
     20 H                     0.237541
     21 C                     0.087215
     22 C                     0.268346
     23 C                    -0.326388
     24 H                     0.251441
     25 C                    -0.339958
     26 H                     0.252705
     27 C                     0.029504
     28 C                     0.038202
     29 C                    -0.207079
     30 C                    -0.763940
     31 H                     0.254162
     32 H                     0.248396
     33 H                     0.250634
     34 C                    -0.772300
     35 H                     0.257518
     36 H                     0.251417
     37 H                     0.252625
     38 B                     0.677549
     39 C                    -0.155696
     40 C                    -0.405657
     41 H                     0.241226
     42 C                     0.098836
     43 C                     0.078714
     44 C                    -0.390343
     45 H                     0.246471
     46 C                    -0.149861
     47 C                     0.179818
     48 C                    -0.385123
     49 H                     0.251278
     50 C                    -0.066381
     51 C                     0.223612
     52 C                     0.178955
     53 C                    -0.392123
     54 H                     0.250554
     55 C                    -0.231701
     56 H                     0.256814
     57 C                    -0.343562
     58 H                     0.253782
     59 C                    -0.229479
     60 H                     0.256030
     61 C                    -0.346816
     62 H                     0.254098
     63 B                     0.678628
     64 C                    -0.156405
     65 C                    -0.391786
     66 H                     0.246357
     67 C                     0.083337
     68 C                     0.093597
     69 C                    -0.391450
     70 H                     0.250616
     71 C                    -0.146708
     72 C                     0.186453
     73 C                    -0.397980
     74 H                     0.255067
     75 C                    -0.069141
     76 C                     0.220874
     77 C                     0.181019
     78 C                    -0.388846
     79 H                     0.250285
     80 C                    -0.230659
     81 H                     0.256415
     82 C                    -0.343979
     83 H                     0.253639
     84 C                    -0.231878
     85 H                     0.257022
     86 C                    -0.345789
     87 H                     0.253813
     88 C                    -0.228915
     89 C                     0.059100
     90 C                    -0.394985
     91 H                     0.268564
     92 C                     0.349940
     93 N                    -0.738383
     94 C                     0.327652
     95 C                    -0.300432
     96 H                     0.270269
     97 C                    -0.255510
     98 H                     0.246915
     99 C                    -0.261039
    100 H                     0.242210
    101 C                    -0.363695
    102 H                     0.240315
    103 C                     0.077635
    104 C                     0.335825
    105 C                    -0.301128
    106 H                     0.268842
    107 C                    -0.256550
    108 H                     0.247379
    109 C                    -0.261247
    110 H                     0.242252
    111 C                    -0.361637
    112 H                     0.240839
    113 C                     0.066657
    114 C                    -0.399350
    115 H                     0.265311
    116 C                     0.040513
    117 C                    -0.766951
    118 H                     0.252870
    119 H                     0.249120
    120 H                     0.249548
    121 C                    -0.772785
    122 H                     0.255277
    123 H                     0.250894
    124 H                     0.252043
  ----------------------------------------
  Sum of atomic charges =    -0.000000

                    Cartesian Multipole Moments
 -----------------------------------------------------------------
    Charge (ESU x 10^10)
                -0.0000
    Dipole Moment (Debye)
         X      -1.8873      Y      -0.4352      Z      -0.3673
       Tot       1.9714
    Quadrupole Moments (Debye-Ang)
        XX    -358.7095     XY     -23.8814     YY    -429.2894
        XZ     -16.5340     YZ       8.6321     ZZ    -410.5213

 Total job time:  14190.80s(wall), 45095.56s(cpu)
        *  Thank you very much for using Q-Chem.  Have a nice day.  *
 Q-Chem 5.1, Q-Chem, Inc., Pleasanton, CA (2018)
 Q-Chem 5.1.1 for Intel X86 EM64T Linux

User input:
--------------------------------------------------------------
$rem
threads 8
jobtype sp
method PBEh-3c
basis def2-mSVP
mem_static      1024
mem_total       14000
sym_ignore      true
cis_n_roots             6
cis_singlets            true
cis_triplets            true
rpa                     false
calc_soc                true
cis_moments             true
cis_relaxed_density     true
solvent_method          pcm
$end

$molecule
read
$end

$pcm
statespecific           Marcus
$end

$solvent
dielectric      4.33
dielectric_infi 1.83
$end

--------------------------------------------------------------

             Standard Nuclear Orientation (Angstroms)
    I     Atom           X                Y                Z
 ----------------------------------------------------------------
    1      N       0.0000000000     0.0000000000     0.0000000000
    2      C       0.0000000000     0.0000000000     1.3749400000
    3      C       1.3031106742     0.0000000000    -0.4441216147
    4      C      -1.0770634478     0.0077533626     2.2519223179
    5      H      -2.0969909758     0.0038398106     1.8893291261
    6      C      -0.7936030084     0.0226642064     3.6063489258
    7      H      -1.6112930048     0.0289684585     4.3154549425
    8      C       1.7814441418    -0.0158081994    -1.7521099417
    9      H       1.1101242713    -0.0187148377    -2.6015469022
   10      C       3.1531366484    -0.0169362107    -1.9318808837
   11      H       3.5515683639    -0.0262490506    -2.9389534895
   12      C       0.5239009751     0.0325022192     4.0790400732
   13      H       0.7065053702     0.0457435616     5.1453739673
   14      C       1.5903637450     0.0273947141     3.1976475700
   15      H       2.6092910882     0.0388367531     3.5650622593
   16      C       1.3331395339     0.0103932512     1.8307726751
   17      C       4.0322247992    -0.0024701049    -0.8426617137
   18      H       5.0998028137    -0.0002795346    -1.0193637667
   19      C       3.5482468982     0.0094602935     0.4532856181
   20      H       4.2318901304     0.0181251445     1.2933253755
   21      C       2.1706191349     0.0083764687     0.6608628259
   22      C      -1.1052375786    -0.0214094654    -0.8831256429
   23      C      -1.8063306059    -1.1967081153    -1.1016804886
   24      H      -1.5844535374    -2.0726788111    -0.5021864323
   25      C      -1.3780389170     1.1067378845    -1.6406531333
   26      H      -0.8290861318     2.0217133166    -1.4481147492
   27      C      -2.2817539936     1.0396167834    -2.6937852430
   28      C      -2.7259186916    -1.2724742064    -2.1438071202
   29      C      -2.9320011045    -0.1693569950    -2.9815869508
   30      C      -3.4106357781    -2.5752608287    -2.4480106512
   31      H      -3.2209964097    -3.3227731405    -1.6778591307
   32      H      -4.4907136886    -2.4478182523    -2.5354251747
   33      H      -3.0639823682    -2.9846503241    -3.3999829036
   34      C      -2.4766809554     2.2370997185    -3.5817058528
   35      H      -1.9940435037     3.1237432473    -3.1704396545
   36      H      -3.5334806341     2.4641758932    -3.7270615282
   37      H      -2.0527193729     2.0610161851    -4.5735009587
   38      B      -3.6088933465    -0.3207785944    -4.4025687786
   39      C      -5.0714239894     0.0090051652    -4.7212009115
   40      C      -5.9961461852     0.3132728117    -3.6990378424
   41      H      -5.6605147652     0.3024104080    -2.6663769695
   42      C      -7.3040109692     0.6220411426    -4.0004253324
   43      C      -7.7266633789     0.6479625815    -5.3639198847
   44      C      -6.8424815733     0.3708105977    -6.3736832244
   45      H      -7.1778099616     0.4059773012    -7.4064846284
   46      C      -5.5034756286     0.0413350666    -6.0841160769
   47      C      -9.1377197474     1.0080518489    -5.4027440569
   48      C     -10.0640211000     1.1884630754    -6.3998429011
   49      H      -9.8114077104     1.0599359863    -7.4456793465
   50      C      -9.5345859417     1.1910371616    -4.0636130712
   51      C     -10.8234123226     1.5478891640    -3.6782365209
   52      C      -8.4601674500     0.9699522323    -3.1738303235
   53      C      -8.6958549301     1.1162715455    -1.8295307062
   54      H      -7.9174306326     0.9621044773    -1.0926133622
   55      C     -11.3808608998     1.5503696296    -6.0356928421
   56      H     -12.1141649131     1.6927177777    -6.8196480976
   57      C     -11.7628227286     1.7271616870    -4.7243771476
   58      H     -12.7841566204     2.0046014155    -4.4935276047
   59      C      -9.9970902112     1.4785221699    -1.4072565380
   60      H     -10.1789148656     1.5928167784    -0.3462051669
   61      C     -11.0362705169     1.6901900639    -2.2853918120
   62      H     -12.0144133915     1.9659398209    -1.9106376620
   63      B      -4.5139284982    -0.2418438422    -7.2109692168
   64      C      -3.0820001695    -0.6721560108    -6.9007493367
   65      C      -2.1680504684    -0.9812836708    -7.9318456559
   66      H      -2.4857280605    -0.9286095717    -8.9691582162
   67      C      -0.8782386592    -1.3407650458    -7.6373814764
   68      C      -0.4443882941    -1.4057818597    -6.2799279692
   69      C      -1.3163505006    -1.0972366578    -5.2647584047
   70      H      -0.9707290643    -1.1367178847    -4.2373892466
   71      C      -2.6483788326    -0.7233504749    -5.5416973714
   72      C       0.9661560335    -1.7911279482    -6.2755794373
   73      C       1.9221056445    -2.0094468571    -5.3136548664
   74      H       1.7017490923    -1.9218242248    -4.2566287767
   75      C       1.3391545862    -1.9376361690    -7.6284058679
   76      C       2.6185793124    -2.2829549329    -8.0609043734
   77      C       0.2570253459    -1.6802946814    -8.4944884627
   78      C       0.4648168285    -1.7779085193    -9.8491740300
   79      H      -0.3265370351    -1.5897294321   -10.5647924718
   80      C       1.7532755509    -2.1301526981   -10.3147259018
   81      H       1.9145730956    -2.2053887860   -11.3829371071
   82      C       2.8056129387    -2.3764721969    -9.4623133467
   83      H       3.7767692883    -2.6407662210    -9.8634643021
   84      C       3.2302831563    -2.3616138295    -5.7241558959
   85      H       3.9794721847    -2.5311320154    -4.9609743628
   86      C       3.5846052156    -2.4963882821    -7.0475498646
   87      H       4.5997747595    -2.7657949955    -7.3132766295
   88      C      -4.9192475362     0.0096483560    -8.7154160099
   89      C      -5.3712014185    -1.0417887317    -9.5472957613
   90      C      -5.6086051866    -0.8112058855   -10.8833965956
   91      H      -5.9855939439    -1.6062635576   -11.5147133186
   92      C      -5.4358016419     0.4773997704   -11.4132067213
   93      N      -5.6157718156     0.6900315416   -12.7628639421
   94      C      -5.1517805565    -0.1576674036   -13.7669974816
   95      C      -4.3685344906    -1.3014785242   -13.6606156746
   96      H      -4.0277072735    -1.6861824366   -12.7102205952
   97      C      -4.0069182816    -1.9381510980   -14.8391349058
   98      H      -3.4062151915    -2.8357863670   -14.7879206574
   99      C      -4.3862797380    -1.4328716491   -16.0791341412
  100      H      -4.0828220594    -1.9485371325   -16.9801218805
  101      C      -5.1278930601    -0.2576890451   -16.1756214715
  102      H      -5.3883197837     0.1488914380   -17.1440444708
  103      C      -5.5056359658     0.3806847138   -15.0116713322
  104      C      -6.2598871052     1.7789308980   -13.3540801128
  105      C      -6.9497472317     2.8246156000   -12.7576988072
  106      H      -7.0439124328     2.9196193956   -11.6854985573
  107      C      -7.5474860674     3.7497686335   -13.6025603999
  108      H      -8.0853859289     4.5828920926   -13.1722201396
  109      C      -7.4823102105     3.6150232333   -14.9866876598
  110      H      -7.9650872415     4.3504552964   -15.6156517252
  111      C      -6.8256635746     2.5356117059   -15.5730945791
  112      H      -6.8066366390     2.4183536470   -16.6487278461
  113      C      -6.2158132750     1.6147750148   -14.7482498606
  114      C      -5.0438360361     1.5399348268   -10.5875286714
  115      H      -4.8608066333     2.5155874684   -11.0192138824
  116      C      -4.7727248235     1.3104828649    -9.2574955150
  117      C      -5.5846534090    -2.4048111644    -8.9645646061
  118      H      -5.9821446726    -3.1029295167    -9.7003204563
  119      H      -6.2763297408    -2.3651792683    -8.1219524476
  120      H      -4.6473795948    -2.8118014290    -8.5806494190
  121      C      -4.2802327886     2.4293362536    -8.3917173919
  122      H      -4.1678517487     3.3546428223    -8.9555907690
  123      H      -4.9707624812     2.6129222116    -7.5674289788
  124      H      -3.3155492543     2.1844284553    -7.9447246650
 ----------------------------------------------------------------

   15   -2925.5521938122      5.76e-09  Convergence criterion met
 Total energy in the final basis set =    -2925.5521938122

         TDDFT/TDA Excitation Energies
 ---------------------------------------------------

 Excited state   1: excitation energy (eV) =    2.2078
 Total energy for state  1:                 -2925.47105913 au
    Multiplicity: Triplet
    Trans. Mom.:  0.0000 X   0.0000 Y   0.0000 Z
    Strength   :     0.0000000000
    D(248) --> V(  1) amplitude =  0.9206

 Excited state   2: excitation energy (eV) =    2.4101
 Total energy for state  2:                 -2925.46362366 au
    Multiplicity: Triplet
    Trans. Mom.:  0.0000 X   0.0000 Y   0.0000 Z
    Strength   :     0.0000000000
    D(246) --> V(  2) amplitude =  0.4593
    D(249) --> V(  1) amplitude =  0.8047

 Excited state   3: excitation energy (eV) =    2.4772
 Total energy for state  3:                 -2925.46115797 au
    Multiplicity: Triplet
    Trans. Mom.:  0.0000 X   0.0000 Y   0.0000 Z
    Strength   :     0.0000000000
    D(246) --> V(  1) amplitude =  0.7466
    D(246) --> V(  4) amplitude = -0.2344
    D(249) --> V(  2) amplitude =  0.5335

 Excited state   4: excitation energy (eV) =    2.6058
 Total energy for state  4:                 -2925.45643199 au
    Multiplicity: Triplet
    Trans. Mom.:  0.0000 X   0.0000 Y   0.0000 Z
    Strength   :     0.0000000000
    D(252) --> V(  1) amplitude =  0.9224

 Excited state   5: excitation energy (eV) =    2.6287
 Total energy for state  5:                 -2925.45559173 au
    Multiplicity: Singlet
    Trans. Mom.:  0.2659 X  -0.0893 Y   0.1999 Z
    Strength   :     0.0076398260
    D(252) --> V(  1) amplitude =  0.9534

 Excited state   6: excitation energy (eV) =    2.7255
 Total energy for state  6:                 -2925.45203357 au
    Multiplicity: Triplet
    Trans. Mom.:  0.0000 X   0.0000 Y   0.0000 Z
    Strength   :     0.0000000000
    D(243) --> V(  1) amplitude =  0.5043
    D(244) --> V(  1) amplitude =  0.4742
    D(248) --> V(  2) amplitude = -0.5425

 Excited state   7: excitation energy (eV) =    2.8637
 Total energy for state  7:                 -2925.44695331 au
    Multiplicity: Singlet
    Trans. Mom.: -0.0139 X  -0.0096 Y   0.0033 Z
    Strength   :     0.0000209126
    D(248) --> V(  1) amplitude =  0.9667

 Excited state   8: excitation energy (eV) =    3.0752
 Total energy for state  8:                 -2925.43918203 au
    Multiplicity: Triplet
    Trans. Mom.:  0.0000 X   0.0000 Y   0.0000 Z
    Strength   :     0.0000000000
    D(245) --> V(  1) amplitude = -0.2730
    D(251) --> V(  1) amplitude =  0.9289

 Excited state   9: excitation energy (eV) =    3.0777
 Total energy for state  9:                 -2925.43908939 au
    Multiplicity: Singlet
    Trans. Mom.:  2.1252 X  -0.5903 Y  -0.7336 Z
    Strength   :     0.4073985767
    D(249) --> V(  1) amplitude = -0.5489
    D(251) --> V(  1) amplitude =  0.7793

 Excited state  10: excitation energy (eV) =    3.1152
 Total energy for state 10:                 -2925.43771334 au
    Multiplicity: Singlet
    Trans. Mom.: -3.0163 X   0.8506 Y   0.9140 Z
    Strength   :     0.8133202137
    D(249) --> V(  1) amplitude =  0.7809
    D(251) --> V(  1) amplitude =  0.5467

 Excited state  11: excitation energy (eV) =    3.4140
 Total energy for state 11:                 -2925.42673208 au
    Multiplicity: Singlet
    Trans. Mom.: -0.3097 X  -0.0321 Y   0.1501 Z
    Strength   :     0.0099942727
    D(246) --> V(  1) amplitude =  0.9398

 Excited state  12: excitation energy (eV) =    3.5841
 Total energy for state 12:                 -2925.42048239 au
    Multiplicity: Singlet
    Trans. Mom.: -0.0205 X   0.0122 Y   0.0149 Z
    Strength   :     0.0000694436
    D(250) --> V(  1) amplitude =  0.9883

 ---------------------------------------------------
