 Q-Chem 5.1, Q-Chem, Inc., Pleasanton, CA (2018)
 Q-Chem 5.1.1 for Intel X86 EM64T Linux

User input:
--------------------------------------------------------------
$solvent
dielectric      8.93
dielectric_infi 2.03
$end

$rem
threads 8
jobtype	sp
method PBEh-3c
basis def2-mSVP
mem_static	1024
mem_total	14000
sym_ignore	true
cis_n_roots             2
cis_singlets            false
cis_triplets		true
rpa                     false
calc_soc 		true
cis_moments             true
cis_relaxed_density	true
solvent_method		pcm
$end

$pcm
StateSpecific   1
ChargeSeparation Excited
$end

$molecule
read ut1opt_dcm.mol
$end

--------------------------------------------------------------

   14   -2925.5591837089      9.67e-09  Convergence criterion met
 Total energy in the final basis set =    -2925.5591837089
 Total job time:  13874.55s(wall), 44233.06s(cpu)
        *  Thank you very much for using Q-Chem.  Have a nice day.  *
 Q-Chem 5.1, Q-Chem, Inc., Pleasanton, CA (2018)
 Q-Chem 5.1.1 for Intel X86 EM64T Linux

User input:
--------------------------------------------------------------
$rem
threads 8
jobtype sp
method PBEh-3c
basis def2-mSVP
mem_static      1024
mem_total       14000
sym_ignore      true
cis_n_roots             6
cis_singlets            true
cis_triplets            true
rpa                     false
calc_soc                true
cis_moments             true
cis_relaxed_density     true
solvent_method          pcm
$end

$molecule
read
$end

$pcm
statespecific           Marcus
$end

$solvent
dielectric      8.93
dielectric_infi 2.03
$end

--------------------------------------------------------------

             Standard Nuclear Orientation (Angstroms)
    I     Atom           X                Y                Z
 ----------------------------------------------------------------
    1      N       0.0000000000     0.0000000000     0.0000000000
    2      C       0.0000000000     0.0000000000     1.3749110000
    3      C       1.3027527148     0.0000000000    -0.4441303444
    4      C      -1.0771495776     0.0141876245     2.2521441816
    5      H      -2.0975272312     0.0155098481     1.8905672630
    6      C      -0.7933810230     0.0284079244     3.6068038764
    7      H      -1.6110147348     0.0398288249     4.3159596876
    8      C       1.7794002142    -0.0056561689    -1.7527874584
    9      H       1.1070791962    -0.0036659959    -2.6016134878
   10      C       3.1510775600    -0.0036551371    -1.9340761385
   11      H       3.5489776254    -0.0048996862    -2.9413560438
   12      C       0.5244942979     0.0305210682     4.0795585532
   13      H       0.7071584252     0.0432489878     5.1459148492
   14      C       1.5911936162     0.0188016572     3.1980381712
   15      H       2.6103055845     0.0245518579     3.5651741069
   16      C       1.3334353098     0.0038557606     1.8308470444
   17      C       4.0312935206     0.0033234427    -0.8452610131
   18      H       5.0987415167     0.0075221793    -1.0228386751
   19      C       3.5487981799     0.0052760706     0.4515858635
   20      H       4.2333328880     0.0089912916     1.2909835785
   21      C       2.1709705645     0.0025030938     0.6605416602
   22      C      -1.1060850107     0.0142509734    -0.8830376527
   23      C      -1.8085932334    -1.1509503724    -1.1468472988
   24      H      -1.5855957406    -2.0508667885    -0.5844819067
   25      C      -1.3791102942     1.1725803873    -1.5935194441
   26      H      -0.8258348199     2.0773656961    -1.3678709340
   27      C      -2.2909375138     1.1510027478    -2.6419067393
   28      C      -2.7353258798    -1.1817565066    -2.1852511225
   29      C      -2.9485707294    -0.0431966860    -2.9725099634
   30      C      -3.4276320841    -2.4686122873    -2.5363015083
   31      H      -3.2159049699    -3.2543017904    -1.8113039921
   32      H      -4.5099336672    -2.3386822038    -2.5859107727
   33      H      -3.1085578284    -2.8278565427    -3.5176859192
   34      C      -2.4845641624     2.3841031433    -3.4801254945
   35      H      -2.0366192116     3.2611524527    -3.0128044323
   36      H      -3.5404409594     2.5954289314    -3.6527769519
   37      H      -2.0221820614     2.2627919506    -4.4628838915
   38      B      -3.6665175950    -0.1271762498    -4.3792633631
   39      C      -5.1470417811     0.1849661797    -4.6259503601
   40      C      -6.0406162742     0.4076934184    -3.5552293286
   41      H      -5.6688064923     0.3461391851    -2.5367567606
   42      C      -7.3654672468     0.7003792493    -3.7917901673
   43      C      -7.8387556882     0.7939378977    -5.1360425070
   44      C      -6.9860115853     0.5964978000    -6.1912973007
   45      H      -7.3592714503     0.6826411213    -7.2077734226
   46      C      -5.6302754880     0.2838658569    -5.9691296570
   47      C      -9.2577228137     1.1216465790    -5.1037270931
   48      C     -10.2237418823     1.3373927536    -6.0556017296
   49      H     -10.0068289681     1.2760361068    -7.1154486938
   50      C      -9.6089307830     1.2177220722    -3.7426652650
   51      C     -10.8903745508     1.5214061879    -3.2916320991
   52      C      -8.4979905398     0.9719236712    -2.9055240403
   53      C      -8.6870706835     1.0353536168    -1.5470908946
   54      H      -7.8789836385     0.8579763948    -0.8482145487
   55      C     -11.5339897904     1.6465277372    -5.6241192576
   56      H     -12.2982121159     1.8168237679    -6.3721089897
   57      C     -11.8715354309     1.7383998521    -4.2917176632
   58      H     -12.8893476753     1.9780700359    -4.0088799505
   59      C      -9.9797255956     1.3418393046    -1.0586760553
   60      H     -10.1248991603     1.3909891529     0.0129954076
   61      C     -11.0550151764     1.5788188276    -1.8859987985
   62      H     -12.0245201182     1.8096350911    -1.4616682273
   63      B      -4.6792997311     0.0877003246    -7.1483967855
   64      C      -3.2289038265    -0.3311556819    -6.9108942212
   65      C      -2.3506606637    -0.5700246501    -7.9902218647
   66      H      -2.7090999593    -0.4690467547    -9.0103748180
   67      C      -1.0446946707    -0.9220614673    -7.7633956705
   68      C      -0.5570768586    -1.0485627868    -6.4280956208
   69      C      -1.3943952838    -0.8093191319    -5.3657736606
   70      H      -1.0088825140    -0.8955123320    -4.3554420905
   71      C      -2.7426073379    -0.4464603918    -5.5730459744
   72      C       0.0608058954    -1.1983225255    -8.6797790415
   73      C       0.2159471383    -1.2240000629   -10.0451010855
   74      H      -0.6059116213    -1.0138643765   -10.7189762449
   75      C       1.1800433645    -1.4806273020    -7.8702052200
   76      C       2.4466880407    -1.7818270073    -8.3691610442
   77      C       0.8588620399    -1.4086403045    -6.4979913576
   78      C       1.8560129265    -1.6574583627    -5.5861829170
   79      H       1.6763781002    -1.6251310472    -4.5183148712
   80      C       1.4904925511    -1.5306044119   -10.5773790180
   81      H       1.6101539028    -1.5493820710   -11.6534905973
   82      C       2.5796670688    -1.8017161155    -9.7800046743
   83      H       3.5381324323    -2.0290188552   -10.2312276656
   84      C       3.1522972447    -1.9660216548    -6.0646265516
   85      H       3.9342900389    -2.1595595864    -5.3410986145
   86      C       3.4556220994    -2.0289311500    -7.4062797252
   87      H       4.4634086961    -2.2669273548    -7.7248756715
   88      C      -5.1495447380     0.4114621506    -8.6211656845
   89      C      -5.6120807429    -0.6008028348    -9.4900322981
   90      C      -5.9190636686    -0.3010506362   -10.8002524770
   91      H      -6.3030438361    -1.0699886276   -11.4592599875
   92      C      -5.8008240702     1.0174092865   -11.2596541254
   93      N      -6.0525005541     1.3031835060   -12.5889253357
   94      C      -5.6006085468     0.5392215338   -13.6594908048
   95      C      -4.7699373789    -0.5765097774   -13.6540570088
   96      H      -4.3737919439    -1.0015218623   -12.7429720223
   97      C      -4.4387245485    -1.1286268945   -14.8833447237
   98      H      -3.8023895100    -2.0023264173   -14.9127220155
   99      C      -4.8948642305    -0.5681762267   -16.0726730547
  100      H      -4.6138861841    -1.0177456769   -17.0154323261
  101      C      -6.7695621355     2.3927371661   -13.0798262480
  102      C      -7.4713908465     3.3687385869   -12.3859650751
  103      H      -7.5139881749     3.3946427618   -11.3064917449
  104      C      -8.1486485213     4.3154884218   -13.1427489811
  105      H      -8.6990424405     5.0964434053   -12.6370510858
  106      C      -8.1457840528     4.2670392135   -14.5340597234
  107      H      -8.6894069830     5.0165475839   -15.0929031513
  108      C      -7.4726965183     3.2555071745   -15.2189748811
  109      H      -7.5011928871     3.2057857020   -16.2996423928
  110      C      -6.7853333342     2.3158530034   -14.4831501619
  111      C      -5.6876523929     0.5794798168   -16.0678054636
  112      H      -6.0096947855     1.0281977255   -16.9983398966
  113      C      -6.0354406875     1.1327323480   -14.8535827922
  114      C      -5.3924095014     2.0396960686   -10.3964468361
  115      H      -5.2554023192     3.0437523833   -10.7775556963
  116      C      -5.0558793545     1.7409344202    -9.0931452888
  117      C      -5.7643737188    -2.0030590939    -8.9835572408
  118      H      -6.1736554599    -2.6659802498    -9.7449309929
  119      H      -6.4226310627    -2.0356857403    -8.1141543401
  120      H      -4.8016323656    -2.4070069418    -8.6650592163
  121      C      -4.5543389337     2.8256682488    -8.1881560063
  122      H      -4.4834261271     3.7806791618    -8.7074283933
  123      H      -5.2177070624     2.9529568855    -7.3314705043
  124      H      -3.5678692967     2.5826384717    -7.7901958163
 ----------------------------------------------------------------

   14   -2925.5590367094      9.80e-09  Convergence criterion met
 Total energy in the final basis set =    -2925.5590367094

         TDDFT/TDA Excitation Energies
 ---------------------------------------------------

 Excited state   1: excitation energy (eV) =    2.2075
 Total energy for state  1:                 -2925.47791247 au
    Multiplicity: Triplet
    Trans. Mom.:  0.0000 X   0.0000 Y   0.0000 Z
    Strength   :     0.0000000000
    D(248) --> V(  1) amplitude =  0.9211

 Excited state   2: excitation energy (eV) =    2.4074
 Total energy for state  2:                 -2925.47056696 au
    Multiplicity: Triplet
    Trans. Mom.:  0.0000 X   0.0000 Y   0.0000 Z
    Strength   :     0.0000000000
    D(246) --> V(  2) amplitude = -0.4611
    D(249) --> V(  1) amplitude = -0.5021
    D(250) --> V(  1) amplitude =  0.6366

 Excited state   3: excitation energy (eV) =    2.4752
 Total energy for state  3:                 -2925.46807395 au
    Multiplicity: Triplet
    Trans. Mom.:  0.0000 X   0.0000 Y   0.0000 Z
    Strength   :     0.0000000000
    D(246) --> V(  1) amplitude =  0.7493
    D(246) --> V(  4) amplitude = -0.2347
    D(249) --> V(  2) amplitude =  0.3325
    D(250) --> V(  2) amplitude = -0.4216

 Excited state   4: excitation energy (eV) =    2.6495
 Total energy for state  4:                 -2925.46166821 au
    Multiplicity: Triplet
    Trans. Mom.:  0.0000 X   0.0000 Y   0.0000 Z
    Strength   :     0.0000000000
    D(252) --> V(  1) amplitude =  0.9150

 Excited state   5: excitation energy (eV) =    2.6740
 Total energy for state  5:                 -2925.46076996 au
    Multiplicity: Singlet
    Trans. Mom.:  0.2963 X  -0.1007 Y   0.1764 Z
    Strength   :     0.0084523913
    D(252) --> V(  1) amplitude =  0.9518

 Excited state   6: excitation energy (eV) =    2.7272
 Total energy for state  6:                 -2925.45881273 au
    Multiplicity: Triplet
    Trans. Mom.:  0.0000 X   0.0000 Y   0.0000 Z
    Strength   :     0.0000000000
    D(243) --> V(  1) amplitude = -0.5779
    D(244) --> V(  1) amplitude = -0.3758
    D(248) --> V(  2) amplitude = -0.5358

 Excited state   7: excitation energy (eV) =    2.8614
 Total energy for state  7:                 -2925.45388168 au
    Multiplicity: Singlet
    Trans. Mom.: -0.0482 X  -0.0001 Y   0.0036 Z
    Strength   :     0.0001635194
    D(248) --> V(  1) amplitude =  0.9663

 Excited state   8: excitation energy (eV) =    3.0836
 Total energy for state  8:                 -2925.44571474 au
    Multiplicity: Singlet
    Trans. Mom.:  3.5661 X  -0.8616 Y  -1.3410 Z
    Strength   :     1.1527069424
    D(249) --> V(  1) amplitude = -0.5640
    D(250) --> V(  1) amplitude =  0.7181
    D(251) --> V(  1) amplitude =  0.2874

 Excited state   9: excitation energy (eV) =    3.1188
 Total energy for state  9:                 -2925.44442191 au
    Multiplicity: Triplet
    Trans. Mom.:  0.0000 X   0.0000 Y   0.0000 Z
    Strength   :     0.0000000000
    D(245) --> V(  1) amplitude = -0.2926
    D(251) --> V(  1) amplitude =  0.9248

 Excited state  10: excitation energy (eV) =    3.1388
 Total energy for state 10:                 -2925.44368724 au
    Multiplicity: Singlet
    Trans. Mom.: -1.0988 X   0.2839 Y   0.3755 Z
    Strength   :     0.1098854320
    D(245) --> V(  1) amplitude = -0.2332
    D(250) --> V(  1) amplitude = -0.2296
    D(251) --> V(  1) amplitude =  0.9074

 Excited state  11: excitation energy (eV) =    3.4027
 Total energy for state 11:                 -2925.43398981 au
    Multiplicity: Singlet
    Trans. Mom.: -0.2418 X  -0.0686 Y   0.1261 Z
    Strength   :     0.0065921200
    D(246) --> V(  1) amplitude =  0.9429

 Excited state  12: excitation energy (eV) =    3.6111
 Total energy for state 12:                 -2925.42633127 au
    Multiplicity: Singlet
    Trans. Mom.: -0.1373 X   0.0679 Y   0.0307 Z
    Strength   :     0.0021597807
    D(241) --> V(  1) amplitude = -0.2620
    D(245) --> V(  1) amplitude = -0.7543
    D(249) --> V(  1) amplitude = -0.3633
    D(250) --> V(  1) amplitude = -0.2761
    D(251) --> V(  1) amplitude = -0.2594

 ---------------------------------------------------

                    Orbital Energies (a.u.)
 --------------------------------------------------------------

 Alpha MOs
 -- Occupied --
-14.697 -14.693 -10.496 -10.494 -10.493 -10.493 -10.491 -10.490
-10.472 -10.470 -10.469 -10.469 -10.468 -10.468 -10.467 -10.467
-10.467 -10.467 -10.466 -10.466 -10.465 -10.464 -10.464 -10.463
-10.463 -10.463 -10.463 -10.463 -10.463 -10.461 -10.461 -10.460
-10.460 -10.460 -10.460 -10.459 -10.459 -10.459 -10.456 -10.455
-10.454 -10.453 -10.453 -10.453 -10.452 -10.452 -10.452 -10.452
-10.452 -10.452 -10.451 -10.451 -10.451 -10.450 -10.450 -10.450
-10.450 -10.449 -10.446 -10.445 -10.445 -10.445 -10.444 -10.443
-10.443 -10.443 -10.442 -10.441 -10.436 -10.432 -10.431 -10.431
-10.431 -10.430  -6.956  -6.951  -1.115  -1.115  -1.020  -1.019
 -0.980  -0.980  -0.966  -0.963  -0.958  -0.955  -0.950  -0.950
 -0.935  -0.935  -0.913  -0.903  -0.893  -0.891  -0.883  -0.882
 -0.864  -0.860  -0.857  -0.855  -0.851  -0.849  -0.849  -0.848
 -0.828  -0.818  -0.817  -0.815  -0.813  -0.812  -0.810  -0.808
 -0.776  -0.774  -0.773  -0.773  -0.741  -0.739  -0.735  -0.729
 -0.728  -0.724  -0.702  -0.699  -0.693  -0.691  -0.691  -0.682
 -0.680  -0.671  -0.662  -0.657  -0.654  -0.653  -0.650  -0.647
 -0.645  -0.645  -0.602  -0.600  -0.597  -0.595  -0.592  -0.592
 -0.591  -0.589  -0.585  -0.578  -0.578  -0.577  -0.575  -0.561
 -0.554  -0.553  -0.546  -0.546  -0.531  -0.529  -0.529  -0.524
 -0.523  -0.522  -0.518  -0.513  -0.511  -0.506  -0.505  -0.505
 -0.501  -0.500  -0.498  -0.496  -0.494  -0.494  -0.494  -0.492
 -0.490  -0.489  -0.489  -0.485  -0.483  -0.482  -0.482  -0.481
 -0.475  -0.474  -0.473  -0.471  -0.470  -0.468  -0.468  -0.467
 -0.465  -0.458  -0.449  -0.443  -0.442  -0.442  -0.442  -0.434
 -0.430  -0.430  -0.428  -0.427  -0.426  -0.426  -0.424  -0.421
 -0.420  -0.415  -0.414  -0.406  -0.404  -0.400  -0.399  -0.399
 -0.398  -0.398  -0.396  -0.396  -0.395  -0.394  -0.393  -0.392
 -0.385  -0.380  -0.378  -0.374  -0.368  -0.358  -0.356  -0.345
 -0.337  -0.335  -0.327  -0.320  -0.305  -0.304  -0.299  -0.298
 -0.289  -0.288  -0.287  -0.287  -0.286  -0.266  -0.264  -0.262
 -0.259  -0.259  -0.246  -0.236

          Ground-State Mulliken Net Atomic Charges

     Atom                 Charge (a.u.)
  ----------------------------------------
      1 N                    -0.724525
      2 C                     0.346758
      3 C                     0.334476
      4 C                    -0.307147
      5 H                     0.258472
      6 C                    -0.268657
      7 H                     0.249744
      8 C                    -0.307558
      9 H                     0.266067
     10 C                    -0.270478
     11 H                     0.250654
     12 C                    -0.263516
     13 H                     0.245831
     14 C                    -0.365874
     15 H                     0.243305
     16 C                     0.062878
     17 C                    -0.261295
     18 H                     0.245952
     19 C                    -0.369536
     20 H                     0.243092
     21 C                     0.082783
     22 C                     0.266741
     23 C                    -0.330974
     24 H                     0.254056
     25 C                    -0.338991
     26 H                     0.254804
     27 C                     0.026068
     28 C                     0.038423
     29 C                    -0.206467
     30 C                    -0.767162
     31 H                     0.256421
     32 H                     0.249541
     33 H                     0.250881
     34 C                    -0.774007
     35 H                     0.259483
     36 H                     0.252353
     37 H                     0.253169
     38 B                     0.677196
     39 C                    -0.154358
     40 C                    -0.405841
     41 H                     0.244010
     42 C                     0.097271
     43 C                     0.076950
     44 C                    -0.390513
     45 H                     0.248376
     46 C                    -0.151196
     47 C                     0.177116
     48 C                    -0.386676
     49 H                     0.255587
     50 C                    -0.065996
     51 C                     0.218582
     52 C                     0.176806
     53 C                    -0.393970
     54 H                     0.255317
     55 C                    -0.236077
     56 H                     0.261251
     57 C                    -0.345130
     58 H                     0.259080
     59 C                    -0.233775
     60 H                     0.260638
     61 C                    -0.348469
     62 H                     0.259389
     63 B                     0.677608
     64 C                    -0.154533
     65 C                    -0.392839
     66 H                     0.248343
     67 C                     0.081631
     68 C                     0.091349
     69 C                    -0.392812
     70 H                     0.253505
     71 C                    -0.149118
     72 C                     0.178090
     73 C                    -0.390372
     74 H                     0.254765
     75 C                    -0.068597
     76 C                     0.215850
     77 C                     0.183179
     78 C                    -0.399509
     79 H                     0.259690
     80 C                    -0.235009
     81 H                     0.260969
     82 C                    -0.345374
     83 H                     0.259073
     84 C                    -0.235981
     85 H                     0.260889
     86 C                    -0.347233
     87 H                     0.259264
     88 C                    -0.224382
     89 C                     0.054982
     90 C                    -0.392569
     91 H                     0.270696
     92 C                     0.344105
     93 N                    -0.736070
     94 C                     0.326655
     95 C                    -0.304353
     96 H                     0.273351
     97 C                    -0.259206
     98 H                     0.252037
     99 C                    -0.266778
    100 H                     0.246614
    101 C                     0.334091
    102 C                    -0.304530
    103 H                     0.271678
    104 C                    -0.260369
    105 H                     0.252307
    106 C                    -0.266954
    107 H                     0.246651
    108 C                    -0.365955
    109 H                     0.246539
    110 C                     0.064323
    111 C                    -0.367993
    112 H                     0.246018
    113 C                     0.075306
    114 C                    -0.397216
    115 H                     0.267773
    116 C                     0.035599
    117 C                    -0.768755
    118 H                     0.255370
    119 H                     0.249499
    120 H                     0.250312
    121 C                    -0.774886
    122 H                     0.257731
    123 H                     0.251782
    124 H                     0.252439
  ----------------------------------------
  Sum of atomic charges =    -0.000000

                    Cartesian Multipole Moments
 -----------------------------------------------------------------
    Charge (ESU x 10^10)
                -0.0000
    Dipole Moment (Debye)
         X      -1.8176      Y      -0.5022      Z      -0.3766
       Tot       1.9229
    Quadrupole Moments (Debye-Ang)
        XX    -355.9589     XY     -22.0108     YY    -431.1650
        XZ     -21.6418     YZ       9.8789     ZZ    -408.3369

 Total job time:  29114.73s(wall), 84994.63s(cpu)
        *  Thank you very much for using Q-Chem.  Have a nice day.  *
