 Q-Chem 5.1, Q-Chem, Inc., Pleasanton, CA (2018)
 Q-Chem 5.1.1 for Intel X86 EM64T Linux

User input:
--------------------------------------------------------------
$solvent
dielectric      4.33
dielectric_infi 1.83
$end

$rem
threads 8
jobtype	sp
method PBEh-3c
basis def2-mSVP
mem_static	1024
mem_total	14000
sym_ignore	true
cis_n_roots             2
cis_singlets            false
cis_triplets		true
rpa                     false
calc_soc 		true
cis_moments             true
cis_relaxed_density	true
solvent_method		pcm
$end

$pcm
StateSpecific   1
ChargeSeparation Excited
$end

$molecule
read ut1opt_eth.mol
$end

--------------------------------------------------------------

   22   -2925.4727443196      8.27e-09  Convergence criterion met
 Total energy in the final basis set =    -2925.4727443196

                    Orbital Energies (a.u.)
 --------------------------------------------------------------

 Alpha MOs
 -- Occupied --
-14.783 -14.684 -10.541 -10.531 -10.531 -10.496 -10.496 -10.493
-10.493 -10.485 -10.485 -10.484 -10.484 -10.483 -10.483 -10.483
-10.482 -10.482 -10.481 -10.480 -10.479 -10.479 -10.466 -10.456
-10.456 -10.453 -10.452 -10.452 -10.452 -10.451 -10.451 -10.451
-10.450 -10.450 -10.450 -10.450 -10.449 -10.449 -10.449 -10.448
-10.448 -10.447 -10.447 -10.446 -10.446 -10.446 -10.446 -10.444
-10.444 -10.444 -10.444 -10.443 -10.443 -10.443 -10.443 -10.439
-10.439 -10.438 -10.438 -10.438 -10.437 -10.437 -10.437 -10.437
-10.436 -10.436 -10.435 -10.419 -10.418 -10.415 -10.415 -10.414
-10.412 -10.412  -6.907  -6.905  -1.177  -1.106  -1.019  -1.003
 -1.003  -0.995  -0.984  -0.968  -0.948  -0.947  -0.944  -0.939
 -0.930  -0.922  -0.922  -0.905  -0.895  -0.890  -0.888  -0.884
 -0.882  -0.867  -0.851  -0.851  -0.848  -0.843  -0.840  -0.840
 -0.836  -0.836  -0.809  -0.807  -0.804  -0.799  -0.799  -0.796
 -0.790  -0.788  -0.772  -0.761  -0.760  -0.736  -0.734  -0.727
 -0.721  -0.716  -0.715  -0.707  -0.694  -0.690  -0.684  -0.683
 -0.677  -0.671  -0.667  -0.664  -0.651  -0.650  -0.639  -0.638
 -0.632  -0.632  -0.630  -0.628  -0.614  -0.592  -0.591  -0.588
 -0.584  -0.583  -0.580  -0.577  -0.571  -0.568  -0.567  -0.562
 -0.562  -0.561  -0.553  -0.549  -0.547  -0.537  -0.536  -0.530
 -0.530  -0.529  -0.519  -0.516  -0.515  -0.514  -0.513  -0.507
 -0.501  -0.496  -0.495  -0.494  -0.493  -0.491  -0.489  -0.488
 -0.484  -0.482  -0.478  -0.478  -0.476  -0.476  -0.475  -0.475
 -0.474  -0.472  -0.468  -0.463  -0.462  -0.460  -0.460  -0.458
 -0.458  -0.457  -0.455  -0.454  -0.453  -0.447  -0.442  -0.441
 -0.434  -0.430  -0.430  -0.429  -0.428  -0.425  -0.420  -0.419
 -0.417  -0.416  -0.414  -0.413  -0.412  -0.409  -0.402  -0.395
 -0.391  -0.388  -0.388  -0.387  -0.387  -0.385  -0.383  -0.380
 -0.377  -0.371  -0.370  -0.362  -0.361  -0.356  -0.340  -0.339
 -0.338  -0.328  -0.325  -0.316  -0.314  -0.312  -0.306  -0.298
 -0.294  -0.290  -0.288  -0.284  -0.275  -0.274  -0.270  -0.257
 -0.252  -0.246  -0.244  -0.237  -0.154

 Beta MOs
 -- Occupied --
-14.774 -14.684 -10.540 -10.533 -10.532 -10.495 -10.495 -10.491
-10.490 -10.486 -10.485 -10.484 -10.484 -10.483 -10.482 -10.481
-10.481 -10.480 -10.480 -10.480 -10.480 -10.480 -10.462 -10.457
-10.456 -10.453 -10.452 -10.452 -10.452 -10.452 -10.451 -10.451
-10.450 -10.450 -10.449 -10.449 -10.449 -10.449 -10.449 -10.448
-10.448 -10.447 -10.447 -10.446 -10.446 -10.446 -10.446 -10.444
-10.444 -10.443 -10.443 -10.443 -10.443 -10.442 -10.442 -10.439
-10.439 -10.439 -10.438 -10.438 -10.437 -10.437 -10.437 -10.437
-10.436 -10.436 -10.435 -10.419 -10.418 -10.415 -10.414 -10.414
-10.411 -10.411  -6.904  -6.903  -1.164  -1.106  -1.015  -1.003
 -1.003  -0.993  -0.979  -0.968  -0.948  -0.945  -0.943  -0.939
 -0.926  -0.922  -0.922  -0.904  -0.893  -0.887  -0.885  -0.884
 -0.882  -0.867  -0.851  -0.849  -0.843  -0.842  -0.839  -0.837
 -0.835  -0.835  -0.807  -0.806  -0.803  -0.798  -0.798  -0.792
 -0.787  -0.786  -0.767  -0.761  -0.759  -0.735  -0.730  -0.727
 -0.719  -0.714  -0.714  -0.706  -0.693  -0.690  -0.684  -0.681
 -0.676  -0.668  -0.666  -0.660  -0.650  -0.649  -0.639  -0.638
 -0.632  -0.631  -0.627  -0.626  -0.611  -0.589  -0.587  -0.584
 -0.581  -0.580  -0.578  -0.576  -0.570  -0.567  -0.566  -0.561
 -0.561  -0.556  -0.551  -0.546  -0.542  -0.536  -0.536  -0.529
 -0.529  -0.524  -0.519  -0.516  -0.515  -0.514  -0.513  -0.504
 -0.498  -0.495  -0.494  -0.493  -0.491  -0.490  -0.488  -0.488
 -0.484  -0.482  -0.478  -0.477  -0.476  -0.475  -0.474  -0.474
 -0.473  -0.471  -0.467  -0.462  -0.461  -0.458  -0.457  -0.457
 -0.456  -0.455  -0.452  -0.449  -0.448  -0.446  -0.440  -0.438
 -0.432  -0.429  -0.429  -0.428  -0.426  -0.423  -0.420  -0.418
 -0.414  -0.413  -0.412  -0.410  -0.409  -0.401  -0.395  -0.393
 -0.391  -0.387  -0.386  -0.385  -0.385  -0.385  -0.383  -0.379
 -0.375  -0.370  -0.362  -0.360  -0.353  -0.351  -0.337  -0.330
 -0.328  -0.327  -0.324  -0.310  -0.306  -0.302  -0.298  -0.297
 -0.293  -0.286  -0.286  -0.274  -0.269  -0.264  -0.252  -0.249
 -0.244  -0.237  -0.237

          Ground-State Mulliken Net Atomic Charges

     Atom                 Charge (a.u.)    Spin (a.u.)
  --------------------------------------------------------
      1 N                    -0.723348      -0.000027
      2 C                     0.347615       0.000006
      3 C                     0.332619       0.000017
      4 C                    -0.303391       0.000005
      5 H                     0.255626      -0.000000
      6 C                    -0.264951      -0.000003
      7 H                     0.243152       0.000000
      8 C                    -0.301941       0.000059
      9 H                     0.264617      -0.000026
     10 C                    -0.266874       0.000004
     11 H                     0.245331       0.000045
     12 C                    -0.259340       0.000003
     13 H                     0.238894      -0.000000
     14 C                    -0.363409      -0.000002
     15 H                     0.235693       0.000000
     16 C                     0.065591       0.000001
     17 C                    -0.256900      -0.000000
     18 H                     0.238842      -0.000000
     19 C                    -0.367163       0.000003
     20 H                     0.235275       0.000000
     21 C                     0.085848      -0.000002
     22 C                     0.263671       0.000546
     23 C                    -0.331187      -0.000499
     24 H                     0.243344       0.000352
     25 C                    -0.344548      -0.000384
     26 H                     0.244089       0.000281
     27 C                     0.022135       0.003160
     28 C                     0.029489       0.003629
     29 C                    -0.178645      -0.024763
     30 C                    -0.754845       0.000476
     31 H                     0.242622       0.001369
     32 H                     0.244039      -0.000641
     33 H                     0.247502      -0.000653
     34 C                    -0.762664       0.000312
     35 H                     0.245013       0.001667
     36 H                     0.246927      -0.000824
     37 H                     0.247851      -0.000860
     38 B                     0.545515       0.283280
     39 C                    -0.146057       0.056793
     40 C                    -0.417830      -0.052325
     41 H                     0.223550       0.002029
     42 C                     0.076513       0.088204
     43 C                     0.055925       0.046395
     44 C                    -0.407006      -0.018014
     45 H                     0.215237      -0.000725
     46 C                    -0.135119       0.024838
     47 C                     0.176247      -0.047287
     48 C                    -0.403211       0.073330
     49 H                     0.234237      -0.004294
     50 C                    -0.078200       0.023905
     51 C                     0.223414      -0.038756
     52 C                     0.175905      -0.057069
     53 C                    -0.409197       0.085047
     54 H                     0.240823      -0.004961
     55 C                    -0.231159      -0.047950
     56 H                     0.244339       0.002345
     57 C                    -0.359118       0.068243
     58 H                     0.242117      -0.003970
     59 C                    -0.228089      -0.053393
     60 H                     0.246340       0.002575
     61 C                    -0.362940       0.077491
     62 H                     0.242308      -0.004534
     63 B                     0.539850       0.336074
     64 C                    -0.141944       0.018555
     65 C                    -0.407936      -0.010118
     66 H                     0.213440      -0.001296
     67 C                     0.062065       0.036252
     68 C                     0.072158       0.089226
     69 C                    -0.403564      -0.054174
     70 H                     0.235043       0.002168
     71 C                    -0.139311       0.062137
     72 C                     0.183547      -0.055454
     73 C                    -0.414438       0.082212
     74 H                     0.246825      -0.004902
     75 C                    -0.080305       0.022557
     76 C                     0.220783      -0.036395
     77 C                     0.177439      -0.042586
     78 C                    -0.405723       0.066360
     79 H                     0.232525      -0.003883
     80 C                    -0.230153      -0.043880
     81 H                     0.244023       0.002153
     82 C                    -0.358368       0.061490
     83 H                     0.242775      -0.003564
     84 C                    -0.230527      -0.051054
     85 H                     0.248196       0.002455
     86 C                    -0.361205       0.074590
     87 H                     0.242660      -0.004363
     88 C                    -0.137890       0.270190
     89 C                     0.051130      -0.075420
     90 C                    -0.369536       0.103652
     91 H                     0.297409      -0.005464
     92 C                     0.368218       0.041419
     93 N                    -0.678027       0.326597
     94 C                     0.328738      -0.098748
     95 C                    -0.259968       0.157729
     96 H                     0.302421      -0.008448
     97 C                    -0.251636      -0.091504
     98 H                     0.274503       0.004121
     99 C                    -0.225362       0.151296
    100 H                     0.273712      -0.008313
    101 C                    -0.351027      -0.045930
    102 H                     0.264286       0.002352
    103 C                     0.111718       0.081302
    104 C                     0.337218      -0.098751
    105 C                    -0.260516       0.155385
    106 H                     0.300463      -0.008210
    107 C                    -0.252856      -0.090840
    108 H                     0.274345       0.004086
    109 C                    -0.225966       0.149944
    110 H                     0.273426      -0.008246
    111 C                    -0.349096      -0.046073
    112 H                     0.264632       0.002361
    113 C                     0.099496       0.080654
    114 C                    -0.373312       0.102660
    115 H                     0.293420      -0.005605
    116 C                     0.030921      -0.077853
    117 C                    -0.755548       0.007249
    118 H                     0.250857       0.001097
    119 H                     0.264000      -0.003230
    120 H                     0.265594      -0.001512
    121 C                    -0.761062       0.006933
    122 H                     0.252525       0.001300
    123 H                     0.266050      -0.001620
    124 H                     0.267743      -0.003569
  --------------------------------------------------------
  Sum of atomic charges =    -0.000000

                    Cartesian Multipole Moments
 -----------------------------------------------------------------
    Charge (ESU x 10^10)
                -0.0000
    Dipole Moment (Debye)
         X      -8.1320      Y       3.4589      Z     -29.0663
       Tot      30.3800
    Quadrupole Moments (Debye-Ang)
        XX    -363.5019     XY     -32.9936     YY    -421.1333
        XZ     193.6324     YZ     -39.7565     ZZ     119.1719

 Total job time:  20508.86s(wall), 72202.52s(cpu)
        *  Thank you very much for using Q-Chem.  Have a nice day.  *
 Q-Chem 5.1, Q-Chem, Inc., Pleasanton, CA (2018)
 Q-Chem 5.1.1 for Intel X86 EM64T Linux

User input:
--------------------------------------------------------------
$rem
threads 8
jobtype sp
method PBEh-3c
basis def2-mSVP
mem_static      1024
mem_total       14000
sym_ignore      true
cis_n_roots             6
cis_singlets            true
cis_triplets            true
rpa                     false
calc_soc                true
cis_moments             true
cis_relaxed_density     true
solvent_method          pcm
$end

$molecule
read
$end

$pcm
statespecific           Marcus
$end

$solvent
dielectric      4.33
dielectric_infi 1.83
$end

--------------------------------------------------------------

             Standard Nuclear Orientation (Angstroms)
    I     Atom           X                Y                Z
 ----------------------------------------------------------------
    1      N       0.0000000000     0.0000000000     0.0000000000
    2      C       0.0000000000     0.0000000000     1.3749400000
    3      C       1.3031106742     0.0000000000    -0.4441216147
    4      C      -1.0770634478     0.0077533626     2.2519223179
    5      H      -2.0969909758     0.0038398106     1.8893291261
    6      C      -0.7936030084     0.0226642064     3.6063489258
    7      H      -1.6112930048     0.0289684585     4.3154549425
    8      C       1.7814441418    -0.0158081994    -1.7521099417
    9      H       1.1101242713    -0.0187148377    -2.6015469022
   10      C       3.1531366484    -0.0169362107    -1.9318808837
   11      H       3.5515683639    -0.0262490506    -2.9389534895
   12      C       0.5239009751     0.0325022192     4.0790400732
   13      H       0.7065053702     0.0457435616     5.1453739673
   14      C       1.5903637450     0.0273947141     3.1976475700
   15      H       2.6092910882     0.0388367531     3.5650622593
   16      C       1.3331395339     0.0103932512     1.8307726751
   17      C       4.0322247992    -0.0024701049    -0.8426617137
   18      H       5.0998028137    -0.0002795346    -1.0193637667
   19      C       3.5482468982     0.0094602935     0.4532856181
   20      H       4.2318901304     0.0181251445     1.2933253755
   21      C       2.1706191349     0.0083764687     0.6608628259
   22      C      -1.1052375786    -0.0214094654    -0.8831256429
   23      C      -1.8063306059    -1.1967081153    -1.1016804886
   24      H      -1.5844535374    -2.0726788111    -0.5021864323
   25      C      -1.3780389170     1.1067378845    -1.6406531333
   26      H      -0.8290861318     2.0217133166    -1.4481147492
   27      C      -2.2817539936     1.0396167834    -2.6937852430
   28      C      -2.7259186916    -1.2724742064    -2.1438071202
   29      C      -2.9320011045    -0.1693569950    -2.9815869508
   30      C      -3.4106357781    -2.5752608287    -2.4480106512
   31      H      -3.2209964097    -3.3227731405    -1.6778591307
   32      H      -4.4907136886    -2.4478182523    -2.5354251747
   33      H      -3.0639823682    -2.9846503241    -3.3999829036
   34      C      -2.4766809554     2.2370997185    -3.5817058528
   35      H      -1.9940435037     3.1237432473    -3.1704396545
   36      H      -3.5334806341     2.4641758932    -3.7270615282
   37      H      -2.0527193729     2.0610161851    -4.5735009587
   38      B      -3.6088933465    -0.3207785944    -4.4025687786
   39      C      -5.0714239894     0.0090051652    -4.7212009115
   40      C      -5.9961461852     0.3132728117    -3.6990378424
   41      H      -5.6605147652     0.3024104080    -2.6663769695
   42      C      -7.3040109692     0.6220411426    -4.0004253324
   43      C      -7.7266633789     0.6479625815    -5.3639198847
   44      C      -6.8424815733     0.3708105977    -6.3736832244
   45      H      -7.1778099616     0.4059773012    -7.4064846284
   46      C      -5.5034756286     0.0413350666    -6.0841160769
   47      C      -9.1377197474     1.0080518489    -5.4027440569
   48      C     -10.0640211000     1.1884630754    -6.3998429011
   49      H      -9.8114077104     1.0599359863    -7.4456793465
   50      C      -9.5345859417     1.1910371616    -4.0636130712
   51      C     -10.8234123226     1.5478891640    -3.6782365209
   52      C      -8.4601674500     0.9699522323    -3.1738303235
   53      C      -8.6958549301     1.1162715455    -1.8295307062
   54      H      -7.9174306326     0.9621044773    -1.0926133622
   55      C     -11.3808608998     1.5503696296    -6.0356928421
   56      H     -12.1141649131     1.6927177777    -6.8196480976
   57      C     -11.7628227286     1.7271616870    -4.7243771476
   58      H     -12.7841566204     2.0046014155    -4.4935276047
   59      C      -9.9970902112     1.4785221699    -1.4072565380
   60      H     -10.1789148656     1.5928167784    -0.3462051669
   61      C     -11.0362705169     1.6901900639    -2.2853918120
   62      H     -12.0144133915     1.9659398209    -1.9106376620
   63      B      -4.5139284982    -0.2418438422    -7.2109692168
   64      C      -3.0820001695    -0.6721560108    -6.9007493367
   65      C      -2.1680504684    -0.9812836708    -7.9318456559
   66      H      -2.4857280605    -0.9286095717    -8.9691582162
   67      C      -0.8782386592    -1.3407650458    -7.6373814764
   68      C      -0.4443882941    -1.4057818597    -6.2799279692
   69      C      -1.3163505006    -1.0972366578    -5.2647584047
   70      H      -0.9707290643    -1.1367178847    -4.2373892466
   71      C      -2.6483788326    -0.7233504749    -5.5416973714
   72      C       0.9661560335    -1.7911279482    -6.2755794373
   73      C       1.9221056445    -2.0094468571    -5.3136548664
   74      H       1.7017490923    -1.9218242248    -4.2566287767
   75      C       1.3391545862    -1.9376361690    -7.6284058679
   76      C       2.6185793124    -2.2829549329    -8.0609043734
   77      C       0.2570253459    -1.6802946814    -8.4944884627
   78      C       0.4648168285    -1.7779085193    -9.8491740300
   79      H      -0.3265370351    -1.5897294321   -10.5647924718
   80      C       1.7532755509    -2.1301526981   -10.3147259018
   81      H       1.9145730956    -2.2053887860   -11.3829371071
   82      C       2.8056129387    -2.3764721969    -9.4623133467
   83      H       3.7767692883    -2.6407662210    -9.8634643021
   84      C       3.2302831563    -2.3616138295    -5.7241558959
   85      H       3.9794721847    -2.5311320154    -4.9609743628
   86      C       3.5846052156    -2.4963882821    -7.0475498646
   87      H       4.5997747595    -2.7657949955    -7.3132766295
   88      C      -4.9192475362     0.0096483560    -8.7154160099
   89      C      -5.3712014185    -1.0417887317    -9.5472957613
   90      C      -5.6086051866    -0.8112058855   -10.8833965956
   91      H      -5.9855939439    -1.6062635576   -11.5147133186
   92      C      -5.4358016419     0.4773997704   -11.4132067213
   93      N      -5.6157718156     0.6900315416   -12.7628639421
   94      C      -5.1517805565    -0.1576674036   -13.7669974816
   95      C      -4.3685344906    -1.3014785242   -13.6606156746
   96      H      -4.0277072735    -1.6861824366   -12.7102205952
   97      C      -4.0069182816    -1.9381510980   -14.8391349058
   98      H      -3.4062151915    -2.8357863670   -14.7879206574
   99      C      -4.3862797380    -1.4328716491   -16.0791341412
  100      H      -4.0828220594    -1.9485371325   -16.9801218805
  101      C      -5.1278930601    -0.2576890451   -16.1756214715
  102      H      -5.3883197837     0.1488914380   -17.1440444708
  103      C      -5.5056359658     0.3806847138   -15.0116713322
  104      C      -6.2598871052     1.7789308980   -13.3540801128
  105      C      -6.9497472317     2.8246156000   -12.7576988072
  106      H      -7.0439124328     2.9196193956   -11.6854985573
  107      C      -7.5474860674     3.7497686335   -13.6025603999
  108      H      -8.0853859289     4.5828920926   -13.1722201396
  109      C      -7.4823102105     3.6150232333   -14.9866876598
  110      H      -7.9650872415     4.3504552964   -15.6156517252
  111      C      -6.8256635746     2.5356117059   -15.5730945791
  112      H      -6.8066366390     2.4183536470   -16.6487278461
  113      C      -6.2158132750     1.6147750148   -14.7482498606
  114      C      -5.0438360361     1.5399348268   -10.5875286714
  115      H      -4.8608066333     2.5155874684   -11.0192138824
  116      C      -4.7727248235     1.3104828649    -9.2574955150
  117      C      -5.5846534090    -2.4048111644    -8.9645646061
  118      H      -5.9821446726    -3.1029295167    -9.7003204563
  119      H      -6.2763297408    -2.3651792683    -8.1219524476
  120      H      -4.6473795948    -2.8118014290    -8.5806494190
  121      C      -4.2802327886     2.4293362536    -8.3917173919
  122      H      -4.1678517487     3.3546428223    -8.9555907690
  123      H      -4.9707624812     2.6129222116    -7.5674289788
  124      H      -3.3155492543     2.1844284553    -7.9447246650
 ----------------------------------------------------------------

   27   -2925.4622139489      8.59e-09  Convergence criterion met
 Total energy in the final basis set =    -2925.4622139489

         TDDFT/TDA Excitation Energies
 ---------------------------------------------------

 Excited state   1: excitation energy (eV) =    0.1206
 Total energy for state  1:                 -2925.45778380 au
    <S**2>     :  2.0645
    Trans. Mom.: -0.4180 X   0.2467 Y  -1.5571 Z
    Strength   :     0.0078562620
    D(251) --> S(  1) amplitude =  0.9907 beta

 Excited state   2: excitation energy (eV) =    0.4082
 Total energy for state  2:                 -2925.44721306 au
    <S**2>     :  2.0591
    Trans. Mom.: -0.3880 X   0.1813 Y  -0.7939 Z
    Strength   :     0.0081368077
    D(249) --> S(  1) amplitude =  0.9751 beta
    D(250) --> S(  1) amplitude = -0.1560 beta

 Excited state   3: excitation energy (eV) =    0.5710
 Total energy for state  3:                 -2925.44123187 au
    <S**2>     :  2.0571
    Trans. Mom.:  0.3616 X  -0.1255 Y   0.2018 Z
    Strength   :     0.0026191542
    D(248) --> S(  1) amplitude =  0.9828 beta

 Excited state   4: excitation energy (eV) =    0.6398
 Total energy for state  4:                 -2925.43870158 au
    <S**2>     :  2.0661
    Trans. Mom.:  0.1137 X  -0.0170 Y   0.3800 Z
    Strength   :     0.0024706148
    D(250) --> S(  1) amplitude =  0.9753 beta

 Excited state   5: excitation energy (eV) =    0.8735
 Total energy for state  5:                 -2925.43011354 au
    <S**2>     :  2.0633
    Trans. Mom.: -0.3509 X   0.1168 Y  -0.1132 Z
    Strength   :     0.0032005687
    D(246) --> S(  1) amplitude =  0.9857 beta

 Excited state   6: excitation energy (eV) =    1.1021
 Total energy for state  6:                 -2925.42171192 au
    <S**2>     :  2.0661
    Trans. Mom.:  0.0029 X   0.0021 Y   0.0070 Z
    Strength   :     0.0000016575
    D(247) --> S(  1) amplitude =  0.9994 beta

 ---------------------------------------------------
