 Q-Chem 5.1, Q-Chem, Inc., Pleasanton, CA (2018)
 Q-Chem 5.1.1 for Intel X86 EM64T Linux

User input:
--------------------------------------------------------------
$solvent
dielectric      2.03
dielectric_infi 2.02
$end

$rem
threads 8
jobtype	sp
method PBEh-3c
basis def2-mSVP
mem_static	1024
mem_total	14000
sym_ignore	true
cis_n_roots             2
cis_singlets            false
cis_triplets		true
rpa                     false
calc_soc 		true
cis_moments             true
cis_relaxed_density	true
solvent_method		pcm
$end

$pcm
StateSpecific   1
ChargeSeparation Excited
$end

$molecule
read ut1opt_chx.mol
$end

--------------------------------------------------------------

   23   -2925.4544464171      7.86e-09  Convergence criterion met
 Total energy in the final basis set =    -2925.4544464171

                    Orbital Energies (a.u.)
 --------------------------------------------------------------

 Alpha MOs
 -- Occupied --
-14.784 -14.678 -10.553 -10.538 -10.537 -10.502 -10.502 -10.499
-10.498 -10.493 -10.493 -10.492 -10.492 -10.491 -10.490 -10.489
-10.489 -10.487 -10.486 -10.477 -10.477 -10.476 -10.474 -10.452
-10.451 -10.450 -10.449 -10.448 -10.448 -10.447 -10.447 -10.447
-10.447 -10.446 -10.446 -10.446 -10.445 -10.445 -10.445 -10.444
-10.444 -10.443 -10.441 -10.441 -10.441 -10.440 -10.440 -10.440
-10.440 -10.439 -10.439 -10.438 -10.438 -10.438 -10.438 -10.437
-10.437 -10.436 -10.435 -10.434 -10.434 -10.433 -10.431 -10.431
-10.431 -10.430 -10.430 -10.414 -10.414 -10.412 -10.411 -10.409
-10.407 -10.407  -6.904  -6.901  -1.182  -1.100  -1.027  -1.001
 -0.999  -0.999  -0.992  -0.962  -0.943  -0.942  -0.940  -0.936
 -0.933  -0.919  -0.918  -0.914  -0.900  -0.895  -0.888  -0.880
 -0.876  -0.862  -0.857  -0.856  -0.843  -0.837  -0.836  -0.835
 -0.832  -0.832  -0.805  -0.803  -0.801  -0.800  -0.796  -0.795
 -0.794  -0.784  -0.778  -0.756  -0.754  -0.744  -0.740  -0.722
 -0.717  -0.713  -0.711  -0.703  -0.702  -0.690  -0.684  -0.679
 -0.678  -0.673  -0.663  -0.661  -0.648  -0.644  -0.638  -0.635
 -0.634  -0.633  -0.628  -0.628  -0.622  -0.598  -0.594  -0.583
 -0.579  -0.579  -0.577  -0.574  -0.574  -0.569  -0.567  -0.561
 -0.560  -0.559  -0.556  -0.555  -0.545  -0.541  -0.537  -0.536
 -0.531  -0.527  -0.522  -0.515  -0.512  -0.511  -0.510  -0.506
 -0.505  -0.502  -0.496  -0.492  -0.490  -0.489  -0.485  -0.482
 -0.481  -0.479  -0.478  -0.477  -0.474  -0.474  -0.470  -0.470
 -0.469  -0.468  -0.467  -0.467  -0.465  -0.464  -0.461  -0.459
 -0.458  -0.456  -0.452  -0.450  -0.450  -0.449  -0.448  -0.441
 -0.440  -0.436  -0.428  -0.426  -0.424  -0.423  -0.420  -0.416
 -0.415  -0.414  -0.412  -0.411  -0.408  -0.406  -0.399  -0.390
 -0.386  -0.383  -0.383  -0.383  -0.382  -0.381  -0.379  -0.378
 -0.377  -0.373  -0.364  -0.359  -0.357  -0.354  -0.346  -0.340
 -0.334  -0.324  -0.321  -0.321  -0.319  -0.308  -0.301  -0.301
 -0.291  -0.289  -0.285  -0.284  -0.270  -0.268  -0.264  -0.252
 -0.246  -0.242  -0.239  -0.230  -0.151

 Beta MOs
 -- Occupied --
-14.776 -14.678 -10.552 -10.539 -10.538 -10.501 -10.501 -10.497
-10.496 -10.494 -10.494 -10.493 -10.492 -10.489 -10.489 -10.488
-10.488 -10.487 -10.487 -10.477 -10.476 -10.474 -10.473 -10.452
-10.452 -10.449 -10.449 -10.448 -10.448 -10.448 -10.447 -10.447
-10.447 -10.446 -10.446 -10.446 -10.445 -10.445 -10.444 -10.444
-10.444 -10.443 -10.441 -10.441 -10.440 -10.440 -10.440 -10.440
-10.439 -10.439 -10.438 -10.438 -10.438 -10.437 -10.437 -10.437
-10.436 -10.436 -10.435 -10.434 -10.434 -10.433 -10.431 -10.431
-10.431 -10.431 -10.430 -10.414 -10.413 -10.412 -10.411 -10.409
-10.406 -10.406  -6.901  -6.899  -1.170  -1.100  -1.023  -0.999
 -0.999  -0.998  -0.987  -0.962  -0.942  -0.941  -0.939  -0.933
 -0.933  -0.918  -0.918  -0.912  -0.896  -0.892  -0.887  -0.880
 -0.876  -0.861  -0.858  -0.849  -0.843  -0.837  -0.835  -0.834
 -0.832  -0.831  -0.802  -0.801  -0.800  -0.799  -0.794  -0.794
 -0.793  -0.782  -0.774  -0.756  -0.754  -0.742  -0.736  -0.721
 -0.716  -0.711  -0.710  -0.703  -0.701  -0.688  -0.684  -0.678
 -0.675  -0.672  -0.662  -0.657  -0.646  -0.644  -0.636  -0.633
 -0.633  -0.632  -0.628  -0.628  -0.619  -0.590  -0.586  -0.583
 -0.579  -0.578  -0.576  -0.573  -0.572  -0.567  -0.564  -0.561
 -0.559  -0.558  -0.552  -0.550  -0.544  -0.540  -0.536  -0.531
 -0.531  -0.526  -0.522  -0.514  -0.511  -0.510  -0.509  -0.503
 -0.502  -0.498  -0.495  -0.491  -0.489  -0.489  -0.484  -0.482
 -0.481  -0.479  -0.477  -0.475  -0.473  -0.472  -0.470  -0.469
 -0.468  -0.467  -0.465  -0.465  -0.464  -0.459  -0.458  -0.456
 -0.456  -0.455  -0.452  -0.450  -0.449  -0.447  -0.445  -0.439
 -0.439  -0.435  -0.426  -0.425  -0.423  -0.419  -0.417  -0.415
 -0.414  -0.410  -0.408  -0.406  -0.404  -0.400  -0.398  -0.389
 -0.386  -0.383  -0.382  -0.381  -0.381  -0.380  -0.379  -0.376
 -0.372  -0.369  -0.364  -0.356  -0.351  -0.348  -0.336  -0.332
 -0.327  -0.321  -0.321  -0.318  -0.303  -0.301  -0.298  -0.296
 -0.291  -0.282  -0.281  -0.268  -0.264  -0.259  -0.246  -0.245
 -0.239  -0.232  -0.230

          Ground-State Mulliken Net Atomic Charges

     Atom                 Charge (a.u.)    Spin (a.u.)
  --------------------------------------------------------
      1 N                    -0.725719      -0.000017
      2 C                     0.349676       0.000002
      3 C                     0.332895       0.000018
      4 C                    -0.295599       0.000016
      5 H                     0.248668      -0.000001
      6 C                    -0.255814      -0.000010
      7 H                     0.232107       0.000001
      8 C                    -0.295208       0.000075
      9 H                     0.259552      -0.000030
     10 C                    -0.259793      -0.000000
     11 H                     0.237139       0.000046
     12 C                    -0.248765       0.000015
     13 H                     0.228036      -0.000001
     14 C                    -0.356877      -0.000008
     15 H                     0.222985       0.000001
     16 C                     0.073410       0.000009
     17 C                    -0.246325       0.000010
     18 H                     0.227844      -0.000001
     19 C                    -0.360737       0.000002
     20 H                     0.222529       0.000001
     21 C                     0.094261       0.000003
     22 C                     0.267133       0.000695
     23 C                    -0.324756      -0.000555
     24 H                     0.236365       0.000346
     25 C                    -0.342680      -0.000413
     26 H                     0.237351       0.000274
     27 C                     0.029131       0.003194
     28 C                     0.033353       0.003761
     29 C                    -0.182281      -0.024139
     30 C                    -0.751281       0.000438
     31 H                     0.236567       0.001351
     32 H                     0.243775      -0.000635
     33 H                     0.248441      -0.000585
     34 C                    -0.760521       0.000325
     35 H                     0.238942       0.001608
     36 H                     0.247642      -0.000763
     37 H                     0.247550      -0.000871
     38 B                     0.562446       0.272815
     39 C                    -0.145427       0.064763
     40 C                    -0.413346      -0.057987
     41 H                     0.219838       0.002375
     42 C                     0.085122       0.097391
     43 C                     0.064502       0.033097
     44 C                    -0.405323      -0.005608
     45 H                     0.200470      -0.001565
     46 C                    -0.130153       0.015117
     47 C                     0.184792      -0.043083
     48 C                    -0.398094       0.067377
     49 H                     0.218995      -0.003986
     50 C                    -0.075987       0.023255
     51 C                     0.235521      -0.037485
     52 C                     0.183911      -0.058473
     53 C                    -0.403573       0.085803
     54 H                     0.230990      -0.005035
     55 C                    -0.221211      -0.044902
     56 H                     0.231949       0.002230
     57 C                    -0.353220       0.063004
     58 H                     0.230294      -0.003685
     59 C                    -0.217736      -0.053352
     60 H                     0.235861       0.002587
     61 C                    -0.357441       0.077861
     62 H                     0.230411      -0.004601
     63 B                     0.539990       0.353063
     64 C                    -0.138453       0.011188
     65 C                    -0.404442       0.003226
     66 H                     0.197084      -0.002224
     67 C                     0.070597       0.022470
     68 C                     0.079992       0.101297
     69 C                    -0.397253      -0.060635
     70 H                     0.231920       0.002554
     71 C                    -0.137977       0.071870
     72 C                     0.192735      -0.057943
     73 C                    -0.411419       0.085021
     74 H                     0.242220      -0.005078
     75 C                    -0.077926       0.022662
     76 C                     0.232681      -0.036017
     77 C                     0.185750      -0.038889
     78 C                    -0.400293       0.061369
     79 H                     0.215626      -0.003632
     80 C                    -0.220040      -0.041623
     81 H                     0.231073       0.002078
     82 C                    -0.352610       0.057286
     83 H                     0.230816      -0.003336
     84 C                    -0.221784      -0.052212
     85 H                     0.239583       0.002516
     86 C                    -0.355837       0.077203
     87 H                     0.230628      -0.004559
     88 C                    -0.129127       0.317411
     89 C                     0.058725      -0.059491
     90 C                    -0.371482       0.086078
     91 H                     0.289694      -0.004850
     92 C                     0.380650       0.089440
     93 N                    -0.690889       0.280362
     94 C                     0.326797      -0.086094
     95 C                    -0.262921       0.130803
     96 H                     0.292705      -0.007083
     97 C                    -0.245021      -0.075367
     98 H                     0.264891       0.003453
     99 C                    -0.222050       0.123895
    100 H                     0.262819      -0.006863
    101 C                    -0.347480      -0.042133
    102 H                     0.250452       0.002198
    103 C                     0.111583       0.071451
    104 C                     0.335922      -0.086223
    105 C                    -0.263636       0.129358
    106 H                     0.290695      -0.006884
    107 C                    -0.246226      -0.075226
    108 H                     0.264666       0.003443
    109 C                    -0.222621       0.123401
    110 H                     0.262579      -0.006842
    111 C                    -0.345466      -0.042554
    112 H                     0.250785       0.002218
    113 C                     0.099292       0.071284
    114 C                    -0.375741       0.084252
    115 H                     0.285777      -0.004922
    116 C                     0.038613      -0.062612
    117 C                    -0.752199       0.006554
    118 H                     0.243280       0.001179
    119 H                     0.270883      -0.002615
    120 H                     0.272702      -0.000418
    121 C                    -0.757346       0.005738
    122 H                     0.244449       0.001312
    123 H                     0.273368      -0.000568
    124 H                     0.275632      -0.002814
  --------------------------------------------------------
  Sum of atomic charges =    -0.000000

                    Cartesian Multipole Moments
 -----------------------------------------------------------------
    Charge (ESU x 10^10)
                -0.0000
    Dipole Moment (Debye)
         X      -6.5649      Y       1.2762      Z     -25.7089
       Tot      26.5645
    Quadrupole Moments (Debye-Ang)
        XX    -384.5854     XY     -17.6100     YY    -425.5675
        XZ     157.3989     YZ      -5.0827     ZZ      51.7532

 Total job time:  21737.21s(wall), 78406.22s(cpu)
        *  Thank you very much for using Q-Chem.  Have a nice day.  *
 Q-Chem 5.1, Q-Chem, Inc., Pleasanton, CA (2018)
 Q-Chem 5.1.1 for Intel X86 EM64T Linux

User input:
--------------------------------------------------------------
$rem
threads 8
jobtype sp
method PBEh-3c
basis def2-mSVP
mem_static      1024
mem_total       14000
sym_ignore      true
cis_n_roots             6
cis_singlets            true
cis_triplets            true
rpa                     false
calc_soc                true
cis_moments             true
cis_relaxed_density     true
solvent_method          pcm
$end

$molecule
read
$end

$pcm
statespecific           Marcus
$end

$solvent
dielectric      2.03
dielectric_infi 2.02
$end

--------------------------------------------------------------

             Standard Nuclear Orientation (Angstroms)
    I     Atom           X                Y                Z
 ----------------------------------------------------------------
    1      N       0.0000000000     0.0000000000     0.0000000000
    2      C       0.0000000000     0.0000000000     1.3751620000
    3      C       1.3037020537     0.0000000000    -0.4439331060
    4      C      -1.0769474300    -0.0006159729     2.2517174053
    5      H      -2.0962374244    -0.0112427429     1.8878682661
    6      C      -0.7939855428     0.0148460472     3.6057823310
    7      H      -1.6116696109     0.0145733487     4.3148102036
    8      C       1.7841726412    -0.0281428674    -1.7507472356
    9      H       1.1140279329    -0.0380075519    -2.6009294902
   10      C       3.1558017378    -0.0325404140    -1.9288355262
   11      H       3.5546295046    -0.0520068020    -2.9355761162
   12      C       0.5227860782     0.0340029283     4.0784431074
   13      H       0.7052229519     0.0474549975     5.1447381027
   14      C       1.5888528824     0.0372733939     3.1973382121
   15      H       2.6074180449     0.0550418343     3.5652105617
   16      C       1.3325501379     0.0185749190     1.8309137485
   17      C       4.0332956115    -0.0085537128    -0.8392390127
   18      H       5.1010371356    -0.0088195680    -1.0144334287
   19      C       3.5472356392     0.0153091647     0.4553131363
   20      H       4.2297708281     0.0301325205     1.2960785393
   21      C       2.1700492334     0.0159957842     0.6615082592
   22      C      -1.1038719587    -0.0687786371    -0.8810879764
   23      C      -1.8018484968    -1.2554798296    -1.0397080927
   24      H      -1.5781670560    -2.0982133840    -0.3949610069
   25      C      -1.3793173382     1.0174462556    -1.6964937194
   26      H      -0.8362402469     1.9439803406    -1.5480367854
   27      C      -2.2756915135     0.8906998405    -2.7500209848
   28      C      -2.7154306141    -1.3899079675    -2.0804417613
   29      C      -2.9176748992    -0.3346257938    -2.9782622498
   30      C      -3.3895375020    -2.7110328885    -2.3228173572
   31      H      -3.2223131697    -3.4084924794    -1.5021224771
   32      H      -4.4664416968    -2.5927707611    -2.4507095631
   33      H      -3.0131598686    -3.1778837125    -3.2363051598
   34      C      -2.4698836440     2.0368811381    -3.7032392627
   35      H      -1.9925938660     2.9466876098    -3.3389482012
   36      H      -3.5267835395     2.2511629952    -3.8657191910
   37      H      -2.0396444543     1.8076433045    -4.6814850587
   38      B      -3.5601723084    -0.5732423457    -4.4022729352
   39      C      -5.0105703259    -0.2569154531    -4.7838758410
   40      C      -5.9587574864     0.1272624651    -3.8127156684
   41      H      -5.6492476936     0.1869172343    -2.7737120783
   42      C      -7.2539916246     0.4273863910    -4.1717492837
   43      C      -7.6389526971     0.3591079441    -5.5441478171
   44      C      -6.7320607966     0.0006817534    -6.5058499277
   45      H      -7.0405801997    -0.0378673337    -7.5471601855
   46      C      -5.4048922684    -0.3191071218    -6.1559595813
   47      C      -9.0442997289     0.7293087693    -5.6482672938
   48      C      -9.9408102936     0.8457183565    -6.6805574717
   49      H      -9.6617345754     0.6377934463    -7.7067118218
   50      C      -9.4747610368     1.0135452697    -4.3380520761
   51      C     -10.7685790623     1.4107097630    -4.0157303079
   52      C      -8.4276326393     0.8461194979    -3.4054670457
   53      C      -8.6980322508     1.0916108634    -2.0829883487
   54      H      -7.9417556458     0.9828178195    -1.3156963077
   55      C     -11.2621482368     1.2466649844    -6.3810551621
   56      H     -11.9725594226     1.3385549898    -7.1931173267
   57      C     -11.6765130626     1.5229397711    -5.0976770374
   58      H     -12.7002307873     1.8269517849    -4.9163027755
   59      C     -10.0052244028     1.4969968648    -1.7242877561
   60      H     -10.2142810795     1.6894876694    -0.6797404110
   61      C     -11.0170533301     1.6556377114    -2.6435910977
   62      H     -12.0013520722     1.9679181438    -2.3168531425
   63      B      -4.3857935432    -0.6904172497    -7.2270823616
   64      C      -2.9645918019    -1.0999393746    -6.8543589225
   65      C      -2.0211661015    -1.4767841382    -7.8362625751
   66      H      -2.3084023196    -1.4967163983    -8.8838259831
   67      C      -0.7409764136    -1.8118661186    -7.4818305066
   68      C      -0.3465685812    -1.7835809717    -6.1117445515
   69      C      -1.2469523319    -1.4077988562    -5.1453346125
   70      H      -0.9311408100    -1.3767091791    -4.1083354044
   71      C      -2.5692953333    -1.0546386531    -5.4841699971
   72      C       1.0625891791    -2.1642632463    -6.0402012575
   73      C       1.9895820967    -2.3141073972    -5.0382061275
   74      H       1.7390625522    -2.1557567017    -3.9963170980
   75      C       1.4753640520    -2.4010317192    -7.3682182993
   76      C       2.7669947052    -2.7704389722    -7.7385957843
   77      C       0.4192616674    -2.2057831856    -8.2806960316
   78      C       0.6674535317    -2.3929880971    -9.6184457986
   79      H      -0.1024321841    -2.2543467899   -10.3680218810
   80      C       1.9688747933    -2.7716093585   -10.0215904826
   81      H       2.1623278651    -2.9174090788   -11.0770860517
   82      C       2.9950741171    -2.9571201317    -9.1239561699
   83      H       3.9778698533    -3.2446512986    -9.4779122919
   84      C       3.3092783464    -2.6889335265    -5.3854392701
   85      H       4.0352365060    -2.8041159353    -4.5904057370
   86      C       3.7024932657    -2.9117685608    -6.6852264028
   87      H       4.7253822157    -3.1954063646    -6.9018389954
   88      C      -4.7403466493    -0.5352860006    -8.7538744058
   89      C      -5.1512469929    -1.6455920712    -9.5372677430
   90      C      -5.3300704497    -1.5036071916   -10.8916001912
   91      H      -5.6772104808    -2.3393577072   -11.4862598801
   92      C      -5.1453766474    -0.2477982754   -11.4986174143
   93      N      -5.2685963727    -0.1255148370   -12.8609040178
   94      C      -4.7715992200    -1.0415620095   -13.7906645770
   95      C      -3.9998599467    -2.1783578374   -13.5825732335
   96      H      -3.6972635018    -2.5026543111   -12.5974122555
   97      C      -3.5953837442    -2.8900686382   -14.7020845760
   98      H      -3.0019849606    -3.7842147693   -14.5689760992
   99      C      -3.9219820640    -2.4653218292   -15.9867087185
  100      H      -3.5861491494    -3.0392376312   -16.8396262648
  101      C      -4.6501735615    -1.2978744207   -16.1854723931
  102      H      -4.8694152855    -0.9521549966   -17.1871921416
  103      C      -5.0703609313    -0.5830930136   -15.0796371879
  104      C      -5.8791274941     0.9268471425   -13.5519879674
  105      C      -6.5878404473     2.0124278764   -13.0595319732
  106      H      -6.7289750307     2.1795187584   -12.0014843745
  107      C      -7.1438222605     2.8799835655   -13.9888543786
  108      H      -7.6947260105     3.7415483814   -13.6382376083
  109      C      -7.0215348733     2.6530244027   -15.3571314740
  110      H      -7.4727321109     3.3462641822   -16.0537322522
  111      C      -6.3490329384     1.5355245778   -15.8384083948
  112      H      -6.2857699454     1.3446991156   -16.9017507617
  113      C      -5.7795211778     0.6685762963   -14.9276740990
  114      C      -4.8008633458     0.8720690129   -10.7241045179
  115      H      -4.6045993025     1.8180177108   -11.2121323348
  116      C      -4.5836713478     0.7340901681    -9.3745632847
  117      C      -5.3819412813    -2.9647497248    -8.8704004524
  118      H      -5.7606797628    -3.7124106702    -9.5663799738
  119      H      -6.0931547499    -2.8663900082    -8.0491858617
  120      H      -4.4550533096    -3.3411822989    -8.4332959664
  121      C      -4.1312088687     1.9066639798    -8.5622286566
  122      H      -4.0016639965     2.7966436498    -9.1770129650
  123      H      -4.8527358367     2.1330448714    -7.7761644121
  124      H      -3.1840520456     1.6937319176    -8.0644883337
 ----------------------------------------------------------------

   23   -2925.4543794799      8.06e-09  Convergence criterion met
 Total energy in the final basis set =    -2925.4543794799

         TDDFT/TDA Excitation Energies
 ---------------------------------------------------

 Excited state   1: excitation energy (eV) =    0.3109
 Total energy for state  1:                 -2925.44295280 au
    <S**2>     :  2.0678
    Trans. Mom.:  0.1917 X  -0.0741 Y   0.6794 Z
    Strength   :     0.0038379912
    D(250) --> S(  1) amplitude =  0.9894 beta

 Excited state   2: excitation energy (eV) =    0.6087
 Total energy for state  2:                 -2925.43200997 au
    <S**2>     :  2.0629
    Trans. Mom.: -0.2957 X   0.1074 Y  -0.6143 Z
    Strength   :     0.0071044731
    D(249) --> S(  1) amplitude =  0.9677 beta
    D(251) --> S(  1) amplitude = -0.1999 beta

 Excited state   3: excitation energy (eV) =    0.7389
 Total energy for state  3:                 -2925.42722532 au
    <S**2>     :  2.0696
    Trans. Mom.:  0.1192 X  -0.0060 Y   0.3223 Z
    Strength   :     0.0021387242
    D(249) --> S(  1) amplitude =  0.2098 beta
    D(251) --> S(  1) amplitude =  0.9548 beta

 Excited state   4: excitation energy (eV) =    0.7763
 Total energy for state  4:                 -2925.42585260 au
    <S**2>     :  2.0610
    Trans. Mom.:  0.2107 X  -0.0764 Y   0.1590 Z
    Strength   :     0.0014357834
    D(248) --> S(  1) amplitude =  0.9677 beta
    D(251) --> S(  1) amplitude = -0.1624 beta

 Excited state   5: excitation energy (eV) =    1.0792
 Total energy for state  5:                 -2925.41471914 au
    <S**2>     :  2.0660
    Trans. Mom.: -0.0517 X   0.0205 Y  -0.2371 Z
    Strength   :     0.0015676320
    D(246) --> S(  1) amplitude =  0.9908 beta

 Excited state   6: excitation energy (eV) =    1.2040
 Total energy for state  6:                 -2925.41013501 au
    <S**2>     :  2.0701
    Trans. Mom.:  0.0061 X   0.0011 Y   0.0099 Z
    Strength   :     0.0000040055
    D(247) --> S(  1) amplitude =  0.9906 beta

 ---------------------------------------------------
