 Q-Chem 5.1, Q-Chem, Inc., Pleasanton, CA (2018)
 Q-Chem 5.1.1 for Intel X86 EM64T Linux

User input:
--------------------------------------------------------------
$solvent
dielectric      2.38
dielectric_infi 2.25
$end

$rem
threads 8
jobtype	sp
method PBEh-3c
basis def2-mSVP
mem_static	1024
mem_total	14000
sym_ignore	true
cis_n_roots             2
cis_singlets            false
cis_triplets		true
rpa                     false
calc_soc 		true
cis_moments             true
cis_relaxed_density	true
solvent_method		pcm
$end

$pcm
StateSpecific   1
ChargeSeparation Excited
$end

$molecule
read ut1opt_tol.mol
$end

--------------------------------------------------------------

   15   -2925.5424589026      5.51e-09  Convergence criterion met
 Total energy in the final basis set =    -2925.5424589026

                    Orbital Energies (a.u.)
 --------------------------------------------------------------

 Alpha MOs
 -- Occupied --
-14.695 -14.690 -10.494 -10.492 -10.492 -10.491 -10.487 -10.487
-10.472 -10.469 -10.469 -10.469 -10.469 -10.468 -10.468 -10.468
-10.467 -10.467 -10.467 -10.465 -10.465 -10.465 -10.465 -10.465
-10.464 -10.464 -10.463 -10.463 -10.462 -10.462 -10.462 -10.460
-10.460 -10.460 -10.460 -10.460 -10.459 -10.458 -10.453 -10.453
-10.452 -10.451 -10.451 -10.451 -10.450 -10.450 -10.450 -10.450
-10.450 -10.449 -10.449 -10.449 -10.449 -10.448 -10.448 -10.448
-10.447 -10.447 -10.444 -10.443 -10.443 -10.443 -10.443 -10.442
-10.441 -10.441 -10.440 -10.440 -10.434 -10.433 -10.432 -10.431
-10.430 -10.429  -6.956  -6.948  -1.112  -1.112  -1.020  -1.019
 -0.979  -0.978  -0.966  -0.963  -0.956  -0.952  -0.948  -0.948
 -0.937  -0.935  -0.913  -0.904  -0.891  -0.889  -0.882  -0.881
 -0.863  -0.860  -0.855  -0.853  -0.850  -0.849  -0.848  -0.847
 -0.828  -0.819  -0.815  -0.815  -0.811  -0.810  -0.809  -0.808
 -0.776  -0.773  -0.772  -0.772  -0.740  -0.739  -0.733  -0.730
 -0.728  -0.724  -0.702  -0.698  -0.692  -0.691  -0.688  -0.683
 -0.680  -0.671  -0.660  -0.656  -0.653  -0.651  -0.650  -0.646
 -0.644  -0.642  -0.602  -0.600  -0.596  -0.594  -0.594  -0.591
 -0.590  -0.589  -0.586  -0.579  -0.579  -0.576  -0.573  -0.560
 -0.553  -0.552  -0.547  -0.546  -0.531  -0.530  -0.528  -0.524
 -0.522  -0.520  -0.518  -0.513  -0.510  -0.507  -0.505  -0.504
 -0.500  -0.499  -0.498  -0.495  -0.493  -0.492  -0.492  -0.492
 -0.490  -0.488  -0.488  -0.486  -0.482  -0.482  -0.481  -0.480
 -0.475  -0.475  -0.473  -0.471  -0.470  -0.469  -0.468  -0.467
 -0.466  -0.459  -0.449  -0.444  -0.443  -0.443  -0.442  -0.433
 -0.431  -0.430  -0.428  -0.426  -0.425  -0.424  -0.423  -0.419
 -0.416  -0.414  -0.413  -0.406  -0.402  -0.401  -0.399  -0.399
 -0.398  -0.397  -0.397  -0.396  -0.394  -0.394  -0.391  -0.390
 -0.385  -0.378  -0.375  -0.373  -0.366  -0.358  -0.355  -0.344
 -0.334  -0.331  -0.326  -0.320  -0.302  -0.301  -0.300  -0.298
 -0.287  -0.287  -0.286  -0.286  -0.284  -0.266  -0.261  -0.261
 -0.259  -0.256  -0.242  -0.232

          Ground-State Mulliken Net Atomic Charges

     Atom                 Charge (a.u.)
  ----------------------------------------
      1 N                    -0.727672
      2 C                     0.349307
      3 C                     0.332891
      4 C                    -0.297554
      5 H                     0.249087
      6 C                    -0.257547
      7 H                     0.237276
      8 C                    -0.296902
      9 H                     0.255896
     10 C                    -0.261048
     11 H                     0.239514
     12 C                    -0.250670
     13 H                     0.234096
     14 C                    -0.357844
     15 H                     0.229040
     16 C                     0.072749
     17 C                    -0.248466
     18 H                     0.233985
     19 C                    -0.361472
     20 H                     0.229111
     21 C                     0.093631
     22 C                     0.270939
     23 C                    -0.322224
     24 H                     0.246735
     25 C                    -0.339513
     26 H                     0.248390
     27 C                     0.033030
     28 C                     0.039285
     29 C                    -0.207754
     30 C                    -0.760483
     31 H                     0.250381
     32 H                     0.246896
     33 H                     0.250387
     34 C                    -0.769620
     35 H                     0.253624
     36 H                     0.250834
     37 H                     0.251952
     38 B                     0.676327
     39 C                    -0.154420
     40 C                    -0.405513
     41 H                     0.236126
     42 C                     0.103561
     43 C                     0.083331
     44 C                    -0.390142
     45 H                     0.242404
     46 C                    -0.148459
     47 C                     0.185164
     48 C                    -0.383074
     49 H                     0.243540
     50 C                    -0.065358
     51 C                     0.231972
     52 C                     0.183333
     53 C                    -0.389827
     54 H                     0.242310
     55 C                    -0.224937
     56 H                     0.249552
     57 C                    -0.340800
     58 H                     0.245438
     59 C                    -0.222623
     60 H                     0.248669
     61 C                    -0.343939
     62 H                     0.245784
     63 B                     0.677713
     64 C                    -0.156621
     65 C                    -0.390554
     66 H                     0.242208
     67 C                     0.087893
     68 C                     0.097987
     69 C                    -0.389694
     70 H                     0.245780
     71 C                    -0.144759
     72 C                     0.191700
     73 C                    -0.397467
     74 H                     0.250265
     75 C                    -0.067887
     76 C                     0.229038
     77 C                     0.186035
     78 C                    -0.386630
     79 H                     0.242378
     80 C                    -0.223832
     81 H                     0.249060
     82 C                    -0.341203
     83 H                     0.245149
     84 C                    -0.226164
     85 H                     0.250705
     86 C                    -0.342978
     87 H                     0.245278
     88 C                    -0.232261
     89 C                     0.063446
     90 C                    -0.395599
     91 H                     0.264085
     92 C                     0.355774
     93 N                    -0.741008
     94 C                     0.329469
     95 C                    -0.295505
     96 H                     0.264727
     97 C                    -0.249477
     98 H                     0.239319
     99 C                    -0.252579
    100 H                     0.235476
    101 C                    -0.357763
    102 H                     0.231651
    103 C                     0.082135
    104 C                     0.337993
    105 C                    -0.296350
    106 H                     0.263799
    107 C                    -0.250509
    108 H                     0.239976
    109 C                    -0.252815
    110 H                     0.235518
    111 C                    -0.355697
    112 H                     0.232054
    113 C                     0.070755
    114 C                    -0.399661
    115 H                     0.260676
    116 C                     0.045713
    117 C                    -0.764406
    118 H                     0.248775
    119 H                     0.248364
    120 H                     0.248893
    121 C                    -0.769792
    122 H                     0.250748
    123 H                     0.250439
    124 H                     0.251553
  ----------------------------------------
  Sum of atomic charges =    -0.000000

                    Cartesian Multipole Moments
 -----------------------------------------------------------------
    Charge (ESU x 10^10)
                -0.0000
    Dipole Moment (Debye)
         X      -1.8563      Y      -0.3574      Z      -0.3536
       Tot       1.9232
    Quadrupole Moments (Debye-Ang)
        XX    -362.7172     XY     -24.5030     YY    -428.9342
        XZ     -12.4856     YZ       7.4143     ZZ    -413.1407

 Total job time:  14551.29s(wall), 46247.53s(cpu)
        *  Thank you very much for using Q-Chem.  Have a nice day.  *
 Q-Chem 5.1, Q-Chem, Inc., Pleasanton, CA (2018)
 Q-Chem 5.1.1 for Intel X86 EM64T Linux

User input:
--------------------------------------------------------------
$rem
threads 8
jobtype sp
method PBEh-3c
basis def2-mSVP
mem_static      1024
mem_total       14000
sym_ignore      true
cis_n_roots             6
cis_singlets            true
cis_triplets            true
rpa                     false
calc_soc                true
cis_moments             true
cis_relaxed_density     true
solvent_method          pcm
$end

$molecule
read
$end

$pcm
statespecific           Marcus
$end

$solvent
dielectric      2.38
dielectric_infi 2.25
$end

--------------------------------------------------------------

             Standard Nuclear Orientation (Angstroms)
    I     Atom           X                Y                Z
 ----------------------------------------------------------------
    1      N       0.0000000000     0.0000000000     0.0000000000
    2      C       0.0000000000     0.0000000000     1.3751210000
    3      C       1.3036046611     0.0000000000    -0.4439740325
    4      C      -1.0769609831     0.0000164657     2.2518215460
    5      H      -2.0964013331    -0.0101011563     1.8882900282
    6      C      -0.7938504379     0.0151976455     3.6059668742
    7      H      -1.6115224100     0.0153800891     4.3150377266
    8      C       1.7838414527    -0.0271501163    -1.7509718192
    9      H       1.1136579502    -0.0369712730    -2.6011418250
   10      C       3.1555194261    -0.0310216206    -1.9292006562
   11      H       3.5543768349    -0.0497560126    -2.9359498454
   12      C       0.5230973210     0.0334074377     4.0786124873
   13      H       0.7055809282     0.0466058531     5.1449239626
   14      C       1.5892336579     0.0360674736     3.1974185711
   15      H       2.6078872904     0.0531399065     3.5651583853
   16      C       1.3326639841     0.0177711252     1.8309064759
   17      C       4.0332611630    -0.0076389504    -0.8396095797
   18      H       5.1009906389    -0.0075356541    -1.0150195150
   19      C       3.5474693773     0.0150110408     0.4551654323
   20      H       4.2301021476     0.0293153013     1.2958850786
   21      C       2.1701551521     0.0153628315     0.6614194035
   22      C      -1.1042284825    -0.0629020947    -0.8813981042
   23      C      -1.8016034385    -1.2488401449    -1.0483121905
   24      H      -1.5774322677    -2.0962010310    -0.4097965473
   25      C      -1.3804422570     1.0292129930    -1.6886884555
   26      H      -0.8373584627     1.9547778694    -1.5341802458
   27      C      -2.2781799710     0.9100804537    -2.7420789841
   28      C      -2.7160984504    -1.3758573739    -2.0893219801
   29      C      -2.9201835456    -0.3137744470    -2.9788241050
   30      C      -3.3903567060    -2.6953748488    -2.3401581277
   31      H      -3.2180358204    -3.4000911625    -1.5267570612
   32      H      -4.4680651241    -2.5769618687    -2.4611641979
   33      H      -3.0185256199    -3.1534266769    -3.2599157327
   34      C      -2.4742715162     2.0637955118    -3.6857801761
   35      H      -1.9950867663     2.9703520778    -3.3159173724
   36      H      -3.5314728772     2.2802087629    -3.8434773876
   37      H      -2.0473606466     1.8419296570    -4.6671398075
   38      B      -3.5682588008    -0.5407799688    -4.4025251061
   39      C      -5.0198632762    -0.2196784029    -4.7752897806
   40      C      -5.9631734274     0.1587595559    -3.7968083964
   41      H      -5.6490973539     0.2107410368    -2.7587277433
   42      C      -7.2598733811     0.4623884228    -4.1474641023
   43      C      -7.6515634020     0.4040339547    -5.5185708306
   44      C      -6.7493306419     0.0518921405    -6.4872492743
   45      H      -7.0624854071     0.0217433116    -7.5273854913
   46      C      -5.4207214506    -0.2711740345    -6.1462068118
   47      C      -9.0569475808     0.7764051336    -5.6132982525
   48      C      -9.9583826742     0.9010847139    -6.6405558699
   49      H      -9.6844249923     0.7004703616    -7.6695428375
   50      C      -9.4809126383     1.0516476456    -4.2989018497
   51      C     -10.7729130838     1.4476728677    -3.9675059189
   52      C      -8.4294430211     0.8767997363    -3.3724883895
   53      C      -8.6931729071     1.1133762433    -2.0468777609
   54      H      -7.9332950423     0.9986775217    -1.2839782829
   55      C     -11.2779714743     1.3010484819    -6.3316973289
   56      H     -11.9921230438     1.3994620716    -7.1397162507
   57      C     -11.6860803265     1.5684198492    -5.0442828367
   58      H     -12.7086383782     1.8720385284    -4.8557707710
   59      C      -9.9983440721     1.5173896542    -1.6790655110
   60      H     -10.2021602514     1.7028433090    -0.6321912262
   61      C     -11.0146016629     1.6832284972    -2.5924202994
   62      H     -11.9970569094     1.9941044730    -2.2588073768
   63      B      -4.4073329372    -0.6349339552    -7.2257983618
   64      C      -2.9846781566    -1.0482878640    -6.8613100678
   65      C      -2.0470960608    -1.4202095736    -7.8502713106
   66      H      -2.3398880905    -1.4321726435    -8.8963577785
   67      C      -0.7654474514    -1.7600678797    -7.5045766111
   68      C      -0.3640033012    -1.7416994426    -6.1363291991
   69      C      -1.2589029631    -1.3713575684    -5.1628534603
   70      H      -0.9377489294    -1.3479008349    -4.1272534070
   71      C      -2.5828223289    -1.0144111294    -5.4926607409
   72      C       1.0451282155    -2.1252858104    -6.0746364842
   73      C       1.9770796389    -2.2836867833    -5.0785168083
   74      H       1.7320282407    -2.1319670076    -4.0343213513
   75      C       1.4505121427    -2.3538540387    -7.4063829066
   76      C       2.7395224112    -2.7234365658    -7.7859907239
   77      C       0.3899108472    -2.1505478657    -8.3120644440
   78      C       0.6306351059    -2.3296243614    -9.6524420229
   79      H      -0.1429370958    -2.1849235577   -10.3970581140
   80      C       1.9293082918    -2.7081962349   -10.0648138296
   81      H       2.1167782653    -2.8476050720   -11.1222578671
   82      C       2.9600315404    -2.9015241555    -9.1738470458
   83      H       3.9403872825    -3.1887141056    -9.5348169732
   84      C       3.2943233286    -2.6588609304    -5.4351265776
   85      H       4.0242853509    -2.7808655202    -4.6447687282
   86      C       3.6803530918    -2.8737057966    -6.7385041837
   87      H       4.7015191684    -3.1579124725    -6.9624460661
   88      C      -4.7727266952    -0.4757274464    -8.7505723127
   89      C      -5.1979953095    -1.5812572231    -9.5310744290
   90      C      -5.3891596543    -1.4357344946   -10.8839819226
   91      H      -5.7467709816    -2.2684922081   -11.4766483482
   92      C      -5.2017856742    -0.1804195834   -11.4900029253
   93      N      -5.3373709719    -0.0545428684   -12.8515699556
   94      C      -4.8533323183    -0.9707946044   -13.7872080137
   95      C      -4.0847502542    -2.1113882192   -13.5876887755
   96      H      -3.7742279480    -2.4383953894   -12.6058948394
   97      C      -3.6944765753    -2.8234472722   -14.7122168049
   98      H      -3.1040144981    -3.7205460080   -14.5862277584
   99      C      -4.0315744048    -2.3950392984   -15.9928406206
  100      H      -3.7066316561    -2.9691087610   -16.8498847667
  101      C      -4.7565453529    -1.2234694703   -16.1833719914
  102      H      -4.9836848017    -0.8753708792   -17.1824928764
  103      C      -5.1625976832    -0.5088693229   -15.0727144109
  104      C      -5.9499385440     1.0016526956   -13.5340778103
  105      C      -6.6483934233     2.0895018579   -13.0317467943
  106      H      -6.7779748043     2.2549378545   -11.9719554104
  107      C      -7.2091706616     2.9620007013   -13.9537703815
  108      H      -7.7522766186     3.8255474705   -13.5959744273
  109      C      -7.1013962418     2.7372412395   -15.3235728471
  110      H      -7.5560548328     3.4341479415   -16.0142608207
  111      C      -6.4389071829     1.6172014395   -15.8145208727
  112      H      -6.3871894251     1.4286209410   -16.8788793211
  113      C      -5.8648437066     0.7459402697   -14.9114652447
  114      C      -4.8418715748     0.9353414517   -10.7175272624
  115      H      -4.6442601533     1.8812068539   -11.2051992911
  116      C      -4.6130321217     0.7927379878    -9.3698542165
  117      C      -5.4307434343    -2.9012999396    -8.8658237806
  118      H      -5.8174853250    -3.6450982833    -9.5615171560
  119      H      -6.1367930806    -2.8020606334    -8.0403141806
  120      H      -4.5030467188    -3.2839209565    -8.4360216162
  121      C      -4.1464705479     1.9615226118    -8.5595134947
  122      H      -4.0197022394     2.8524562722    -9.1734925356
  123      H      -4.8586957162     2.1894783690    -7.7654261743
  124      H      -3.1947431227     1.7438408298    -8.0725847116
 ----------------------------------------------------------------

   15   -2925.5424499993      5.57e-09  Convergence criterion met
 Total energy in the final basis set =    -2925.5424499993

         TDDFT/TDA Excitation Energies
 ---------------------------------------------------

 Excited state   1: excitation energy (eV) =    2.2091
 Total energy for state  1:                 -2925.46126652 au
    Multiplicity: Triplet
    Trans. Mom.:  0.0000 X   0.0000 Y   0.0000 Z
    Strength   :     0.0000000000
    D(247) --> V(  1) amplitude =  0.9173

 Excited state   2: excitation energy (eV) =    2.4135
 Total energy for state  2:                 -2925.45375690 au
    Multiplicity: Triplet
    Trans. Mom.:  0.0000 X   0.0000 Y   0.0000 Z
    Strength   :     0.0000000000
    D(246) --> V(  2) amplitude =  0.4515
    D(249) --> V(  1) amplitude =  0.7936

 Excited state   3: excitation energy (eV) =    2.4791
 Total energy for state  3:                 -2925.45134644 au
    Multiplicity: Triplet
    Trans. Mom.:  0.0000 X   0.0000 Y   0.0000 Z
    Strength   :     0.0000000000
    D(246) --> V(  1) amplitude =  0.7354
    D(246) --> V(  4) amplitude =  0.2301
    D(249) --> V(  2) amplitude =  0.5181

 Excited state   4: excitation energy (eV) =    2.5469
 Total energy for state  4:                 -2925.44885165 au
    Multiplicity: Triplet
    Trans. Mom.:  0.0000 X   0.0000 Y   0.0000 Z
    Strength   :     0.0000000000
    D(245) --> V(  1) amplitude = -0.2224
    D(252) --> V(  1) amplitude =  0.9021

 Excited state   5: excitation energy (eV) =    2.5670
 Total energy for state  5:                 -2925.44811564 au
    Multiplicity: Singlet
    Trans. Mom.:  0.2673 X  -0.0787 Y   0.2585 Z
    Strength   :     0.0090852534
    D(252) --> V(  1) amplitude =  0.9546

 Excited state   6: excitation energy (eV) =    2.7249
 Total energy for state  6:                 -2925.44231004 au
    Multiplicity: Triplet
    Trans. Mom.:  0.0000 X   0.0000 Y   0.0000 Z
    Strength   :     0.0000000000
    D(241) --> V(  1) amplitude = -0.2751
    D(242) --> V(  1) amplitude = -0.3705
    D(243) --> V(  1) amplitude = -0.5016
    D(247) --> V(  2) amplitude = -0.5465

 Excited state   7: excitation energy (eV) =    2.8642
 Total energy for state  7:                 -2925.43719341 au
    Multiplicity: Singlet
    Trans. Mom.: -0.0282 X   0.0218 Y  -0.0004 Z
    Strength   :     0.0000889419
    D(247) --> V(  1) amplitude =  0.9653

 Excited state   8: excitation energy (eV) =    3.0124
 Total energy for state  8:                 -2925.43174468 au
    Multiplicity: Triplet
    Trans. Mom.:  0.0000 X   0.0000 Y   0.0000 Z
    Strength   :     0.0000000000
    D(245) --> V(  1) amplitude = -0.2241
    D(251) --> V(  1) amplitude =  0.9359

 Excited state   9: excitation energy (eV) =    3.0222
 Total energy for state  9:                 -2925.43138660 au
    Multiplicity: Singlet
    Trans. Mom.:  0.9046 X  -0.2762 Y  -0.3460 Z
    Strength   :     0.0750975212
    D(249) --> V(  1) amplitude = -0.2334
    D(251) --> V(  1) amplitude =  0.9263

 Excited state  10: excitation energy (eV) =    3.0994
 Total energy for state 10:                 -2925.42855018 au
    Multiplicity: Singlet
    Trans. Mom.: -3.6895 X   1.1253 Y   0.9909 Z
    Strength   :     1.2043624240
    D(249) --> V(  1) amplitude =  0.9240
    D(251) --> V(  1) amplitude =  0.2290

 Excited state  11: excitation energy (eV) =    3.4062
 Total energy for state 11:                 -2925.41727491 au
    Multiplicity: Singlet
    Trans. Mom.: -0.3713 X   0.0168 Y   0.1546 Z
    Strength   :     0.0135232765
    D(246) --> V(  1) amplitude =  0.9357

 Excited state  12: excitation energy (eV) =    3.5285
 Total energy for state 12:                 -2925.41278130 au
    Multiplicity: Singlet
    Trans. Mom.: -0.0277 X   0.0206 Y   0.0297 Z
    Strength   :     0.0001790270
    D(250) --> V(  1) amplitude =  0.9901

 ---------------------------------------------------
