 Q-Chem 5.1, Q-Chem, Inc., Pleasanton, CA (2018)
 Q-Chem 5.1.1 for Intel X86 EM64T Linux

User input:
--------------------------------------------------------------
$solvent
dielectric      8.93
dielectric_infi 2.03
$end

$rem
threads 8
jobtype	sp
method PBEh-3c
basis def2-mSVP
mem_static	1024
mem_total	14000
sym_ignore	true
cis_n_roots             2
cis_singlets            false
cis_triplets		true
rpa                     false
calc_soc 		true
cis_moments             true
cis_relaxed_density	true
solvent_method		pcm
$end

$pcm
StateSpecific   1
ChargeSeparation Excited
$end

$molecule
read ut1opt_dcm.mol
$end

--------------------------------------------------------------

   22   -2925.4822453432      7.21e-09  Convergence criterion met
 Total energy in the final basis set =    -2925.4822453432

                    Orbital Energies (a.u.)
 --------------------------------------------------------------

 Alpha MOs
 -- Occupied --
-14.781 -14.688 -10.533 -10.528 -10.527 -10.493 -10.493 -10.490
-10.490 -10.487 -10.486 -10.483 -10.482 -10.481 -10.480 -10.480
-10.478 -10.478 -10.476 -10.476 -10.475 -10.475 -10.459 -10.459
-10.458 -10.455 -10.455 -10.455 -10.454 -10.454 -10.453 -10.453
-10.453 -10.452 -10.452 -10.452 -10.452 -10.451 -10.451 -10.451
-10.451 -10.450 -10.450 -10.450 -10.450 -10.449 -10.449 -10.447
-10.447 -10.447 -10.447 -10.447 -10.446 -10.446 -10.445 -10.442
-10.441 -10.441 -10.441 -10.441 -10.440 -10.440 -10.440 -10.439
-10.439 -10.435 -10.433 -10.422 -10.421 -10.419 -10.417 -10.416
-10.415 -10.415  -6.909  -6.908  -1.175  -1.110  -1.015  -1.006
 -1.006  -0.991  -0.980  -0.972  -0.952  -0.949  -0.947  -0.942
 -0.926  -0.925  -0.925  -0.900  -0.896  -0.887  -0.887  -0.885
 -0.884  -0.870  -0.852  -0.847  -0.847  -0.846  -0.843  -0.841
 -0.838  -0.838  -0.811  -0.810  -0.807  -0.801  -0.801  -0.792
 -0.791  -0.787  -0.768  -0.764  -0.763  -0.733  -0.731  -0.730
 -0.723  -0.718  -0.717  -0.709  -0.693  -0.690  -0.687  -0.680
 -0.678  -0.669  -0.667  -0.665  -0.654  -0.653  -0.643  -0.641
 -0.635  -0.634  -0.626  -0.625  -0.610  -0.592  -0.591  -0.588
 -0.587  -0.584  -0.582  -0.579  -0.573  -0.570  -0.566  -0.564
 -0.563  -0.557  -0.551  -0.550  -0.545  -0.539  -0.533  -0.532
 -0.527  -0.525  -0.522  -0.519  -0.516  -0.516  -0.511  -0.508
 -0.500  -0.498  -0.497  -0.495  -0.492  -0.491  -0.489  -0.489
 -0.487  -0.485  -0.480  -0.479  -0.479  -0.478  -0.477  -0.477
 -0.474  -0.473  -0.470  -0.465  -0.464  -0.461  -0.458  -0.458
 -0.457  -0.456  -0.455  -0.454  -0.451  -0.447  -0.443  -0.438
 -0.433  -0.432  -0.431  -0.430  -0.427  -0.425  -0.423  -0.421
 -0.420  -0.416  -0.416  -0.415  -0.413  -0.405  -0.404  -0.398
 -0.394  -0.391  -0.390  -0.390  -0.389  -0.388  -0.385  -0.382
 -0.378  -0.373  -0.368  -0.364  -0.363  -0.357  -0.341  -0.338
 -0.337  -0.332  -0.328  -0.315  -0.314  -0.310  -0.308  -0.301
 -0.293  -0.291  -0.291  -0.281  -0.278  -0.277  -0.273  -0.259
 -0.256  -0.249  -0.247  -0.241  -0.156

 Beta MOs
 -- Occupied --
-14.772 -14.688 -10.533 -10.529 -10.529 -10.492 -10.491 -10.487
-10.487 -10.487 -10.486 -10.483 -10.482 -10.482 -10.479 -10.479
-10.478 -10.478 -10.476 -10.476 -10.475 -10.474 -10.459 -10.459
-10.456 -10.456 -10.455 -10.455 -10.454 -10.453 -10.453 -10.453
-10.452 -10.452 -10.452 -10.452 -10.451 -10.451 -10.451 -10.450
-10.450 -10.450 -10.450 -10.450 -10.450 -10.449 -10.449 -10.447
-10.447 -10.447 -10.446 -10.446 -10.446 -10.445 -10.445 -10.442
-10.442 -10.441 -10.441 -10.441 -10.441 -10.440 -10.440 -10.439
-10.439 -10.434 -10.433 -10.422 -10.421 -10.419 -10.416 -10.416
-10.414 -10.414  -6.906  -6.905  -1.161  -1.110  -1.011  -1.006
 -1.006  -0.989  -0.975  -0.972  -0.952  -0.948  -0.946  -0.942
 -0.924  -0.924  -0.922  -0.899  -0.895  -0.886  -0.886  -0.883
 -0.882  -0.870  -0.852  -0.848  -0.846  -0.843  -0.842  -0.838
 -0.837  -0.835  -0.810  -0.809  -0.805  -0.801  -0.800  -0.789
 -0.788  -0.784  -0.764  -0.764  -0.763  -0.731  -0.730  -0.727
 -0.722  -0.716  -0.716  -0.709  -0.693  -0.688  -0.687  -0.679
 -0.677  -0.668  -0.664  -0.661  -0.653  -0.652  -0.642  -0.641
 -0.635  -0.633  -0.623  -0.623  -0.607  -0.591  -0.588  -0.587
 -0.583  -0.581  -0.578  -0.574  -0.572  -0.569  -0.565  -0.563
 -0.562  -0.552  -0.549  -0.549  -0.539  -0.537  -0.532  -0.531
 -0.525  -0.521  -0.520  -0.519  -0.516  -0.515  -0.511  -0.506
 -0.499  -0.497  -0.497  -0.493  -0.491  -0.490  -0.488  -0.487
 -0.487  -0.484  -0.480  -0.478  -0.478  -0.477  -0.476  -0.476
 -0.473  -0.473  -0.470  -0.465  -0.464  -0.461  -0.458  -0.457
 -0.454  -0.453  -0.453  -0.446  -0.444  -0.444  -0.441  -0.434
 -0.432  -0.431  -0.429  -0.428  -0.426  -0.424  -0.423  -0.421
 -0.416  -0.416  -0.414  -0.412  -0.407  -0.402  -0.398  -0.394
 -0.391  -0.390  -0.389  -0.388  -0.388  -0.388  -0.385  -0.381
 -0.377  -0.373  -0.362  -0.358  -0.356  -0.353  -0.340  -0.332
 -0.331  -0.326  -0.321  -0.309  -0.305  -0.304  -0.301  -0.293
 -0.290  -0.289  -0.288  -0.277  -0.273  -0.267  -0.256  -0.252
 -0.246  -0.241  -0.240

          Ground-State Mulliken Net Atomic Charges

     Atom                 Charge (a.u.)    Spin (a.u.)
  --------------------------------------------------------
      1 N                    -0.722141      -0.000023
      2 C                     0.346287       0.000005
      3 C                     0.334036       0.000011
      4 C                    -0.307358       0.000003
      5 H                     0.258770      -0.000000
      6 C                    -0.269094      -0.000001
      7 H                     0.248573       0.000000
      8 C                    -0.307375       0.000046
      9 H                     0.267275      -0.000017
     10 C                    -0.270874       0.000005
     11 H                     0.249782       0.000035
     12 C                    -0.264252       0.000001
     13 H                     0.244287      -0.000000
     14 C                    -0.366370      -0.000001
     15 H                     0.241936       0.000000
     16 C                     0.061827      -0.000000
     17 C                    -0.261956      -0.000003
     18 H                     0.244314      -0.000000
     19 C                    -0.370126       0.000002
     20 H                     0.241552       0.000000
     21 C                     0.081630      -0.000002
     22 C                     0.262035       0.000445
     23 C                    -0.335943      -0.000394
     24 H                     0.246698       0.000352
     25 C                    -0.343564      -0.000375
     26 H                     0.247094       0.000287
     27 C                     0.017617       0.003211
     28 C                     0.028365       0.003363
     29 C                    -0.177306      -0.024983
     30 C                    -0.757015       0.000519
     31 H                     0.245913       0.001379
     32 H                     0.244119      -0.000640
     33 H                     0.246542      -0.000721
     34 C                    -0.762949       0.000308
     35 H                     0.248170       0.001731
     36 H                     0.246906      -0.001004
     37 H                     0.246855      -0.000697
     38 B                     0.537398       0.288866
     39 C                    -0.145176       0.052323
     40 C                    -0.420314      -0.048602
     41 H                     0.225288       0.001802
     42 C                     0.072237       0.082578
     43 C                     0.051394       0.053615
     44 C                    -0.407636      -0.024542
     45 H                     0.222722      -0.000270
     46 C                    -0.138989       0.030116
     47 C                     0.171867      -0.049499
     48 C                    -0.405142       0.076307
     49 H                     0.241950      -0.004444
     50 C                    -0.079493       0.024240
     51 C                     0.217225      -0.039287
     52 C                     0.171629      -0.056045
     53 C                    -0.411933       0.084137
     54 H                     0.245408      -0.004894
     55 C                    -0.235920      -0.049461
     56 H                     0.250744       0.002400
     57 C                    -0.361609       0.070834
     58 H                     0.248110      -0.004108
     59 C                    -0.233130      -0.053169
     60 H                     0.251605       0.002558
     61 C                    -0.365216       0.076856
     62 H                     0.248368      -0.004473
     63 B                     0.538500       0.327547
     64 C                    -0.142500       0.023592
     65 C                    -0.409728      -0.016684
     66 H                     0.221864      -0.000779
     67 C                     0.057648       0.043453
     68 C                     0.067241       0.083513
     69 C                    -0.407014      -0.050578
     70 H                     0.236774       0.001945
     71 C                    -0.141953       0.056672
     72 C                     0.172783      -0.044737
     73 C                    -0.407750       0.069183
     74 H                     0.241097      -0.004026
     75 C                    -0.081346       0.022784
     76 C                     0.214624      -0.036817
     77 C                     0.178167      -0.054353
     78 C                    -0.416902       0.081129
     79 H                     0.251139      -0.004842
     80 C                    -0.234948      -0.045266
     81 H                     0.250757       0.002203
     82 C                    -0.360685       0.063886
     83 H                     0.248828      -0.003693
     84 C                    -0.235351      -0.050725
     85 H                     0.252570       0.002437
     86 C                    -0.363261       0.073744
     87 H                     0.248791      -0.004290
     88 C                    -0.142727       0.231819
     89 C                     0.046049      -0.077556
     90 C                    -0.367264       0.106617
     91 H                     0.299854      -0.005452
     92 C                     0.357894       0.014400
     93 N                    -0.670451       0.351432
     94 C                     0.330855      -0.105157
     95 C                    -0.257639       0.175196
     96 H                     0.306688      -0.009310
     97 C                    -0.254361      -0.102245
     98 H                     0.279103       0.004558
     99 C                    -0.225725       0.169928
    100 H                     0.279285      -0.009298
    101 C                     0.338439      -0.105113
    102 C                    -0.257646       0.172295
    103 H                     0.304802      -0.009061
    104 C                    -0.255695      -0.101120
    105 H                     0.278955       0.004504
    106 C                    -0.226397       0.167756
    107 H                     0.278961      -0.009188
    108 C                    -0.350291      -0.047309
    109 H                     0.271636       0.002402
    110 C                     0.100987       0.085688
    111 C                    -0.352153      -0.047570
    112 H                     0.271390       0.002411
    113 C                     0.113363       0.086855
    114 C                    -0.371018       0.106273
    115 H                     0.296200      -0.005626
    116 C                     0.025460      -0.079877
    117 C                    -0.756870       0.007256
    118 H                     0.254684       0.001093
    119 H                     0.259480      -0.003378
    120 H                     0.261118      -0.001894
    121 C                    -0.762496       0.007138
    122 H                     0.256470       0.001294
    123 H                     0.261416      -0.001993
    124 H                     0.262653      -0.003749
  --------------------------------------------------------
  Sum of atomic charges =    -0.000000

                    Cartesian Multipole Moments
 -----------------------------------------------------------------
    Charge (ESU x 10^10)
                -0.0000
    Dipole Moment (Debye)
         X      -9.8517      Y       5.3252      Z     -30.6444
       Tot      32.6266
    Quadrupole Moments (Debye-Ang)
        XX    -337.8181     XY     -49.0420     YY    -415.9091
        XZ     225.4768     YZ     -69.3216     ZZ     147.4615

 Total job time:  20552.53s(wall), 70844.91s(cpu)
        *  Thank you very much for using Q-Chem.  Have a nice day.  *
 Q-Chem 5.1, Q-Chem, Inc., Pleasanton, CA (2018)
 Q-Chem 5.1.1 for Intel X86 EM64T Linux

User input:
--------------------------------------------------------------
$rem
threads 8
jobtype sp
method PBEh-3c
basis def2-mSVP
mem_static      1024
mem_total       14000
sym_ignore      true
cis_n_roots             6
cis_singlets            true
cis_triplets            true
rpa                     false
calc_soc                true
cis_moments             true
cis_relaxed_density     true
solvent_method          pcm
$end

$molecule
read
$end

$pcm
statespecific           Marcus
$end

$solvent
dielectric      8.93
dielectric_infi 2.03
$end

--------------------------------------------------------------

             Standard Nuclear Orientation (Angstroms)
    I     Atom           X                Y                Z
 ----------------------------------------------------------------
    1      N       0.0000000000     0.0000000000     0.0000000000
    2      C       0.0000000000     0.0000000000     1.3749110000
    3      C       1.3027527148     0.0000000000    -0.4441303444
    4      C      -1.0771495776     0.0141876245     2.2521441816
    5      H      -2.0975272312     0.0155098481     1.8905672630
    6      C      -0.7933810230     0.0284079244     3.6068038764
    7      H      -1.6110147348     0.0398288249     4.3159596876
    8      C       1.7794002142    -0.0056561689    -1.7527874584
    9      H       1.1070791962    -0.0036659959    -2.6016134878
   10      C       3.1510775600    -0.0036551371    -1.9340761385
   11      H       3.5489776254    -0.0048996862    -2.9413560438
   12      C       0.5244942979     0.0305210682     4.0795585532
   13      H       0.7071584252     0.0432489878     5.1459148492
   14      C       1.5911936162     0.0188016572     3.1980381712
   15      H       2.6103055845     0.0245518579     3.5651741069
   16      C       1.3334353098     0.0038557606     1.8308470444
   17      C       4.0312935206     0.0033234427    -0.8452610131
   18      H       5.0987415167     0.0075221793    -1.0228386751
   19      C       3.5487981799     0.0052760706     0.4515858635
   20      H       4.2333328880     0.0089912916     1.2909835785
   21      C       2.1709705645     0.0025030938     0.6605416602
   22      C      -1.1060850107     0.0142509734    -0.8830376527
   23      C      -1.8085932334    -1.1509503724    -1.1468472988
   24      H      -1.5855957406    -2.0508667885    -0.5844819067
   25      C      -1.3791102942     1.1725803873    -1.5935194441
   26      H      -0.8258348199     2.0773656961    -1.3678709340
   27      C      -2.2909375138     1.1510027478    -2.6419067393
   28      C      -2.7353258798    -1.1817565066    -2.1852511225
   29      C      -2.9485707294    -0.0431966860    -2.9725099634
   30      C      -3.4276320841    -2.4686122873    -2.5363015083
   31      H      -3.2159049699    -3.2543017904    -1.8113039921
   32      H      -4.5099336672    -2.3386822038    -2.5859107727
   33      H      -3.1085578284    -2.8278565427    -3.5176859192
   34      C      -2.4845641624     2.3841031433    -3.4801254945
   35      H      -2.0366192116     3.2611524527    -3.0128044323
   36      H      -3.5404409594     2.5954289314    -3.6527769519
   37      H      -2.0221820614     2.2627919506    -4.4628838915
   38      B      -3.6665175950    -0.1271762498    -4.3792633631
   39      C      -5.1470417811     0.1849661797    -4.6259503601
   40      C      -6.0406162742     0.4076934184    -3.5552293286
   41      H      -5.6688064923     0.3461391851    -2.5367567606
   42      C      -7.3654672468     0.7003792493    -3.7917901673
   43      C      -7.8387556882     0.7939378977    -5.1360425070
   44      C      -6.9860115853     0.5964978000    -6.1912973007
   45      H      -7.3592714503     0.6826411213    -7.2077734226
   46      C      -5.6302754880     0.2838658569    -5.9691296570
   47      C      -9.2577228137     1.1216465790    -5.1037270931
   48      C     -10.2237418823     1.3373927536    -6.0556017296
   49      H     -10.0068289681     1.2760361068    -7.1154486938
   50      C      -9.6089307830     1.2177220722    -3.7426652650
   51      C     -10.8903745508     1.5214061879    -3.2916320991
   52      C      -8.4979905398     0.9719236712    -2.9055240403
   53      C      -8.6870706835     1.0353536168    -1.5470908946
   54      H      -7.8789836385     0.8579763948    -0.8482145487
   55      C     -11.5339897904     1.6465277372    -5.6241192576
   56      H     -12.2982121159     1.8168237679    -6.3721089897
   57      C     -11.8715354309     1.7383998521    -4.2917176632
   58      H     -12.8893476753     1.9780700359    -4.0088799505
   59      C      -9.9797255956     1.3418393046    -1.0586760553
   60      H     -10.1248991603     1.3909891529     0.0129954076
   61      C     -11.0550151764     1.5788188276    -1.8859987985
   62      H     -12.0245201182     1.8096350911    -1.4616682273
   63      B      -4.6792997311     0.0877003246    -7.1483967855
   64      C      -3.2289038265    -0.3311556819    -6.9108942212
   65      C      -2.3506606637    -0.5700246501    -7.9902218647
   66      H      -2.7090999593    -0.4690467547    -9.0103748180
   67      C      -1.0446946707    -0.9220614673    -7.7633956705
   68      C      -0.5570768586    -1.0485627868    -6.4280956208
   69      C      -1.3943952838    -0.8093191319    -5.3657736606
   70      H      -1.0088825140    -0.8955123320    -4.3554420905
   71      C      -2.7426073379    -0.4464603918    -5.5730459744
   72      C       0.0608058954    -1.1983225255    -8.6797790415
   73      C       0.2159471383    -1.2240000629   -10.0451010855
   74      H      -0.6059116213    -1.0138643765   -10.7189762449
   75      C       1.1800433645    -1.4806273020    -7.8702052200
   76      C       2.4466880407    -1.7818270073    -8.3691610442
   77      C       0.8588620399    -1.4086403045    -6.4979913576
   78      C       1.8560129265    -1.6574583627    -5.5861829170
   79      H       1.6763781002    -1.6251310472    -4.5183148712
   80      C       1.4904925511    -1.5306044119   -10.5773790180
   81      H       1.6101539028    -1.5493820710   -11.6534905973
   82      C       2.5796670688    -1.8017161155    -9.7800046743
   83      H       3.5381324323    -2.0290188552   -10.2312276656
   84      C       3.1522972447    -1.9660216548    -6.0646265516
   85      H       3.9342900389    -2.1595595864    -5.3410986145
   86      C       3.4556220994    -2.0289311500    -7.4062797252
   87      H       4.4634086961    -2.2669273548    -7.7248756715
   88      C      -5.1495447380     0.4114621506    -8.6211656845
   89      C      -5.6120807429    -0.6008028348    -9.4900322981
   90      C      -5.9190636686    -0.3010506362   -10.8002524770
   91      H      -6.3030438361    -1.0699886276   -11.4592599875
   92      C      -5.8008240702     1.0174092865   -11.2596541254
   93      N      -6.0525005541     1.3031835060   -12.5889253357
   94      C      -5.6006085468     0.5392215338   -13.6594908048
   95      C      -4.7699373789    -0.5765097774   -13.6540570088
   96      H      -4.3737919439    -1.0015218623   -12.7429720223
   97      C      -4.4387245485    -1.1286268945   -14.8833447237
   98      H      -3.8023895100    -2.0023264173   -14.9127220155
   99      C      -4.8948642305    -0.5681762267   -16.0726730547
  100      H      -4.6138861841    -1.0177456769   -17.0154323261
  101      C      -6.7695621355     2.3927371661   -13.0798262480
  102      C      -7.4713908465     3.3687385869   -12.3859650751
  103      H      -7.5139881749     3.3946427618   -11.3064917449
  104      C      -8.1486485213     4.3154884218   -13.1427489811
  105      H      -8.6990424405     5.0964434053   -12.6370510858
  106      C      -8.1457840528     4.2670392135   -14.5340597234
  107      H      -8.6894069830     5.0165475839   -15.0929031513
  108      C      -7.4726965183     3.2555071745   -15.2189748811
  109      H      -7.5011928871     3.2057857020   -16.2996423928
  110      C      -6.7853333342     2.3158530034   -14.4831501619
  111      C      -5.6876523929     0.5794798168   -16.0678054636
  112      H      -6.0096947855     1.0281977255   -16.9983398966
  113      C      -6.0354406875     1.1327323480   -14.8535827922
  114      C      -5.3924095014     2.0396960686   -10.3964468361
  115      H      -5.2554023192     3.0437523833   -10.7775556963
  116      C      -5.0558793545     1.7409344202    -9.0931452888
  117      C      -5.7643737188    -2.0030590939    -8.9835572408
  118      H      -6.1736554599    -2.6659802498    -9.7449309929
  119      H      -6.4226310627    -2.0356857403    -8.1141543401
  120      H      -4.8016323656    -2.4070069418    -8.6650592163
  121      C      -4.5543389337     2.8256682488    -8.1881560063
  122      H      -4.4834261271     3.7806791618    -8.7074283933
  123      H      -5.2177070624     2.9529568855    -7.3314705043
  124      H      -3.5678692967     2.5826384717    -7.7901958163
 ----------------------------------------------------------------

   26   -2925.4678312653      9.16e-09  Convergence criterion met
 Total energy in the final basis set =    -2925.4678312653

         TDDFT/TDA Excitation Energies
 ---------------------------------------------------

 Excited state   1: excitation energy (eV) =    0.1221
 Total energy for state  1:                 -2925.46334587 au
    <S**2>     :  2.0654
    Trans. Mom.: -0.4535 X   0.3031 Y  -1.4134 Z
    Strength   :     0.0068637168
    D(251) --> S(  1) amplitude =  0.9950 beta

 Excited state   2: excitation energy (eV) =    0.4040
 Total energy for state  2:                 -2925.45298328 au
    <S**2>     :  2.0597
    Trans. Mom.: -0.4160 X   0.2161 Y  -0.7532 Z
    Strength   :     0.0077906273
    D(249) --> S(  1) amplitude =  0.9752 beta
    D(250) --> S(  1) amplitude = -0.1637 beta

 Excited state   3: excitation energy (eV) =    0.5666
 Total energy for state  3:                 -2925.44701031 au
    <S**2>     :  2.0578
    Trans. Mom.:  0.3665 X  -0.1308 Y   0.1809 Z
    Strength   :     0.0025556256
    D(248) --> S(  1) amplitude =  0.9877 beta

 Excited state   4: excitation energy (eV) =    0.6846
 Total energy for state  4:                 -2925.44267089 au
    <S**2>     :  2.0667
    Trans. Mom.:  0.1408 X  -0.0453 Y   0.3649 Z
    Strength   :     0.0025999648
    D(249) --> S(  1) amplitude =  0.1629 beta
    D(250) --> S(  1) amplitude =  0.9803 beta

 Excited state   5: excitation energy (eV) =    0.8786
 Total energy for state  5:                 -2925.43554435 au
    <S**2>     :  2.0639
    Trans. Mom.: -0.3346 X   0.1116 Y  -0.1158 Z
    Strength   :     0.0029660938
    D(246) --> S(  1) amplitude =  0.9877 beta

 Excited state   6: excitation energy (eV) =    1.1365
 Total energy for state  6:                 -2925.42606417 au
    <S**2>     :  2.0669
    Trans. Mom.: -0.0047 X   0.0058 Y  -0.0138 Z
    Strength   :     0.0000068281
    D(247) --> S(  1) amplitude =  0.9987 beta

 ---------------------------------------------------
