 Q-Chem 5.1, Q-Chem, Inc., Pleasanton, CA (2018)
 Q-Chem 5.1.1 for Intel X86 EM64T Linux

User input:
--------------------------------------------------------------
$solvent
dielectric      4.33
dielectric_infi 1.83
$end

$rem
threads 8
jobtype	sp
method PBEh-3c
basis def2-mSVP
mem_static	1024
mem_total	14000
sym_ignore	true
cis_n_roots             2
cis_singlets            false
cis_triplets		true
rpa                     false
calc_soc 		true
cis_moments             true
cis_relaxed_density	true
solvent_method		pcm
$end

$pcm
StateSpecific   1
ChargeSeparation Excited
$end

$molecule
read utleopt_eth.mol
$end

--------------------------------------------------------------

   27   -2925.4801880874      6.82e-09  Convergence criterion met
 Total energy in the final basis set =    -2925.4801880874

                    Orbital Energies (a.u.)
 --------------------------------------------------------------

 Alpha MOs
 -- Occupied --
-14.692 -14.692 -10.491 -10.490 -10.489 -10.489 -10.489 -10.488
-10.483 -10.482 -10.482 -10.482 -10.471 -10.471 -10.471 -10.470
-10.470 -10.470 -10.469 -10.469 -10.469 -10.469 -10.467 -10.467
-10.467 -10.467 -10.465 -10.465 -10.463 -10.463 -10.462 -10.462
-10.461 -10.460 -10.460 -10.459 -10.458 -10.458 -10.458 -10.458
-10.455 -10.454 -10.453 -10.453 -10.452 -10.451 -10.451 -10.451
-10.450 -10.450 -10.450 -10.450 -10.449 -10.449 -10.449 -10.449
-10.448 -10.448 -10.448 -10.448 -10.445 -10.445 -10.445 -10.445
-10.441 -10.441 -10.441 -10.441 -10.428 -10.428 -10.428 -10.428
-10.428 -10.428  -6.928  -6.927  -1.111  -1.111  -1.028  -1.028
 -0.977  -0.976  -0.971  -0.969  -0.953  -0.953  -0.947  -0.947
 -0.940  -0.940  -0.918  -0.909  -0.890  -0.889  -0.877  -0.877
 -0.870  -0.868  -0.855  -0.854  -0.854  -0.854  -0.848  -0.848
 -0.832  -0.822  -0.820  -0.814  -0.812  -0.811  -0.810  -0.809
 -0.772  -0.771  -0.769  -0.769  -0.743  -0.743  -0.737  -0.732
 -0.730  -0.728  -0.701  -0.697  -0.695  -0.689  -0.689  -0.687
 -0.684  -0.678  -0.656  -0.656  -0.655  -0.652  -0.648  -0.647
 -0.645  -0.644  -0.605  -0.601  -0.598  -0.595  -0.594  -0.594
 -0.589  -0.589  -0.589  -0.583  -0.582  -0.574  -0.574  -0.556
 -0.555  -0.553  -0.550  -0.546  -0.534  -0.532  -0.529  -0.524
 -0.521  -0.520  -0.519  -0.517  -0.510  -0.508  -0.503  -0.502
 -0.501  -0.501  -0.500  -0.500  -0.499  -0.499  -0.493  -0.493
 -0.492  -0.489  -0.489  -0.489  -0.485  -0.480  -0.480  -0.480
 -0.475  -0.474  -0.472  -0.470  -0.468  -0.467  -0.465  -0.464
 -0.464  -0.460  -0.450  -0.447  -0.447  -0.441  -0.440  -0.437
 -0.434  -0.430  -0.429  -0.425  -0.425  -0.425  -0.423  -0.418
 -0.417  -0.415  -0.406  -0.406  -0.405  -0.405  -0.404  -0.401
 -0.399  -0.397  -0.397  -0.397  -0.395  -0.393  -0.393  -0.392
 -0.387  -0.387  -0.377  -0.376  -0.364  -0.363  -0.357  -0.344
 -0.340  -0.333  -0.333  -0.332  -0.309  -0.306  -0.302  -0.302
 -0.299  -0.287  -0.284  -0.283  -0.283  -0.277  -0.277  -0.266
 -0.258  -0.257  -0.242  -0.241  -0.181

 Beta MOs
 -- Occupied --
-14.692 -14.692 -10.491 -10.490 -10.489 -10.489 -10.489 -10.488
-10.480 -10.479 -10.479 -10.478 -10.473 -10.473 -10.473 -10.472
-10.471 -10.471 -10.467 -10.467 -10.467 -10.467 -10.465 -10.465
-10.465 -10.465 -10.464 -10.464 -10.464 -10.464 -10.463 -10.463
-10.463 -10.462 -10.461 -10.460 -10.458 -10.458 -10.458 -10.458
-10.452 -10.451 -10.451 -10.451 -10.451 -10.451 -10.450 -10.450
-10.450 -10.450 -10.450 -10.450 -10.449 -10.449 -10.449 -10.449
-10.448 -10.448 -10.448 -10.448 -10.445 -10.445 -10.445 -10.445
-10.441 -10.441 -10.441 -10.441 -10.429 -10.428 -10.428 -10.428
-10.428 -10.428  -6.926  -6.925  -1.111  -1.111  -1.024  -1.024
 -0.976  -0.976  -0.966  -0.964  -0.953  -0.953  -0.947  -0.947
 -0.939  -0.939  -0.913  -0.905  -0.889  -0.888  -0.877  -0.877
 -0.868  -0.866  -0.854  -0.854  -0.852  -0.852  -0.848  -0.848
 -0.823  -0.821  -0.818  -0.812  -0.811  -0.809  -0.809  -0.803
 -0.772  -0.771  -0.769  -0.769  -0.740  -0.739  -0.734  -0.732
 -0.730  -0.725  -0.699  -0.696  -0.694  -0.689  -0.689  -0.684
 -0.680  -0.673  -0.656  -0.655  -0.654  -0.651  -0.647  -0.647
 -0.644  -0.643  -0.603  -0.598  -0.596  -0.594  -0.594  -0.592
 -0.589  -0.589  -0.588  -0.581  -0.580  -0.574  -0.573  -0.555
 -0.554  -0.551  -0.548  -0.545  -0.533  -0.531  -0.528  -0.523
 -0.521  -0.520  -0.518  -0.515  -0.508  -0.507  -0.502  -0.502
 -0.501  -0.500  -0.499  -0.498  -0.493  -0.493  -0.490  -0.489
 -0.489  -0.489  -0.489  -0.488  -0.484  -0.480  -0.480  -0.479
 -0.475  -0.474  -0.472  -0.470  -0.467  -0.467  -0.464  -0.464
 -0.464  -0.458  -0.446  -0.444  -0.441  -0.440  -0.436  -0.433
 -0.430  -0.425  -0.425  -0.424  -0.424  -0.423  -0.421  -0.418
 -0.417  -0.413  -0.406  -0.406  -0.404  -0.401  -0.400  -0.400
 -0.398  -0.397  -0.397  -0.396  -0.394  -0.393  -0.392  -0.391
 -0.383  -0.377  -0.376  -0.363  -0.362  -0.354  -0.345  -0.342
 -0.333  -0.333  -0.331  -0.326  -0.302  -0.302  -0.301  -0.300
 -0.287  -0.284  -0.283  -0.283  -0.267  -0.261  -0.258  -0.257
 -0.257  -0.242  -0.241

          Ground-State Mulliken Net Atomic Charges

     Atom                 Charge (a.u.)    Spin (a.u.)
  --------------------------------------------------------
      1 N                    -0.729990       0.000016
      2 C                     0.335566      -0.000006
      3 C                     0.338879      -0.000007
      4 C                    -0.300846      -0.000002
      5 H                     0.254892       0.000000
      6 C                    -0.262185       0.000002
      7 H                     0.244110      -0.000000
      8 C                    -0.297968      -0.000001
      9 H                     0.255335       0.000001
     10 C                    -0.261906       0.000002
     11 H                     0.243942      -0.000000
     12 C                    -0.258338      -0.000003
     13 H                     0.241104       0.000000
     14 C                    -0.361469       0.000003
     15 H                     0.237341      -0.000000
     16 C                     0.072842      -0.000003
     17 C                    -0.258364      -0.000003
     18 H                     0.241053       0.000000
     19 C                    -0.361128       0.000003
     20 H                     0.237548      -0.000000
     21 C                     0.072348      -0.000003
     22 C                     0.294632      -0.000227
     23 C                    -0.353783      -0.000124
     24 H                     0.248589       0.000284
     25 C                    -0.353200      -0.000105
     26 H                     0.250614       0.000248
     27 C                     0.032992       0.001770
     28 C                     0.038510       0.001983
     29 C                    -0.199257      -0.018944
     30 C                    -0.760276       0.000837
     31 H                     0.249232       0.001061
     32 H                     0.246520      -0.000551
     33 H                     0.247219      -0.000599
     34 C                    -0.764450       0.001106
     35 H                     0.251098       0.001184
     36 H                     0.247848      -0.000706
     37 H                     0.248087      -0.000688
     38 B                     0.597539       0.215610
     39 C                    -0.127030       0.207303
     40 C                    -0.392713      -0.139276
     41 H                     0.248069       0.005367
     42 C                     0.085007       0.236601
     43 C                     0.182816      -0.112667
     44 C                    -0.382859       0.135974
     45 H                     0.252642      -0.007948
     46 C                    -0.229773      -0.096713
     47 H                     0.258979       0.004621
     48 C                    -0.344284       0.146295
     49 H                     0.255499      -0.008375
     50 C                    -0.060487       0.140051
     51 C                     0.224326      -0.091380
     52 C                     0.188946      -0.112615
     53 C                    -0.389267       0.131518
     54 H                     0.252969      -0.007679
     55 C                    -0.228517      -0.095071
     56 H                     0.258668       0.004579
     57 C                    -0.347026       0.139342
     58 H                     0.255265      -0.007974
     59 C                     0.095917       0.232256
     60 C                    -0.393748      -0.139930
     61 H                     0.250813       0.005388
     62 C                    -0.121161       0.224426
     63 C                    -0.121192       0.214136
     64 C                    -0.386289      -0.142225
     65 H                     0.251294       0.005483
     66 C                     0.080622       0.240044
     67 C                     0.185980      -0.114222
     68 C                    -0.383324       0.137436
     69 H                     0.252745      -0.008035
     70 C                    -0.230214      -0.097698
     71 H                     0.259123       0.004671
     72 C                    -0.343674       0.147255
     73 H                     0.255492      -0.008432
     74 C                    -0.060241       0.142408
     75 C                     0.225080      -0.092462
     76 C                     0.186126      -0.113620
     77 C                    -0.390127       0.133097
     78 H                     0.252526      -0.007782
     79 C                    -0.228416      -0.096196
     80 H                     0.258480       0.004629
     81 C                    -0.346892       0.141485
     82 H                     0.255557      -0.008090
     83 C                     0.101413       0.236313
     84 C                    -0.400218      -0.142248
     85 H                     0.248570       0.005482
     86 C                    -0.126996       0.226134
     87 B                     0.598166       0.208846
     88 C                    -0.196658      -0.018549
     89 C                     0.039152       0.002081
     90 C                    -0.352658      -0.000314
     91 H                     0.250703       0.000270
     92 C                     0.301113      -0.000020
     93 C                    -0.363076      -0.000219
     94 H                     0.251104       0.000260
     95 C                     0.031848       0.001866
     96 N                    -0.731769       0.000014
     97 C                     0.336423      -0.000006
     98 C                     0.332348      -0.000007
     99 C                    -0.299573       0.000006
    100 H                     0.256881      -0.000000
    101 C                    -0.262831      -0.000005
    102 H                     0.244560       0.000000
    103 C                    -0.299132       0.000010
    104 H                     0.257229      -0.000000
    105 C                    -0.262702      -0.000007
    106 H                     0.244391       0.000000
    107 C                    -0.257764       0.000008
    108 H                     0.240943      -0.000001
    109 C                    -0.365023      -0.000006
    110 H                     0.237440       0.000000
    111 C                     0.080245       0.000002
    112 C                    -0.258185       0.000005
    113 H                     0.240994      -0.000000
    114 C                    -0.364081      -0.000003
    115 H                     0.237539       0.000000
    116 C                     0.073975      -0.000000
    117 C                    -0.761116       0.001030
    118 H                     0.249389       0.001078
    119 H                     0.246958      -0.000641
    120 H                     0.247479      -0.000512
    121 C                    -0.765682       0.001201
    122 H                     0.251160       0.001209
    123 H                     0.248031      -0.000550
    124 H                     0.249021      -0.000839
  --------------------------------------------------------
  Sum of atomic charges =    -0.000000

                    Cartesian Multipole Moments
 -----------------------------------------------------------------
    Charge (ESU x 10^10)
                -0.0000
    Dipole Moment (Debye)
         X       0.1716      Y       0.3874      Z      -0.1820
       Tot       0.4611
    Quadrupole Moments (Debye-Ang)
        XX    -430.4897     XY     -24.7024     YY    -425.4224
        XZ     -43.7380     YZ      31.8273     ZZ    -371.6905

 Total job time:  19322.73s(wall), 71942.54s(cpu)
        *  Thank you very much for using Q-Chem.  Have a nice day.  *
 Q-Chem 5.1, Q-Chem, Inc., Pleasanton, CA (2018)
 Q-Chem 5.1.1 for Intel X86 EM64T Linux

User input:
--------------------------------------------------------------
$rem
threads 8
jobtype sp
method PBEh-3c
basis def2-mSVP
mem_static      1024
mem_total       14000
sym_ignore      true
cis_n_roots             6
cis_singlets            true
cis_triplets            true
rpa                     false
calc_soc                true
cis_moments             true
cis_relaxed_density     true
solvent_method          pcm
$end

$molecule
read
$end

$pcm
statespecific           Marcus
$end

$solvent
dielectric      4.33
dielectric_infi 1.83
$end

--------------------------------------------------------------

             Standard Nuclear Orientation (Angstroms)
    I     Atom           X                Y                Z
 ----------------------------------------------------------------
    1      N       0.0000000000     0.0000000000     0.0000000000
    2      C       0.0000000000     0.0000000000     1.3789620000
    3      C       1.3063310808     0.0000000000    -0.4423861879
    4      C       1.8001156838    -0.0369132280    -1.7410714360
    5      H       1.1391927525    -0.0540003242    -2.5975733905
    6      C       3.1751557870    -0.0565124455    -1.9023095991
    7      H       3.5868636424    -0.0855698826    -2.9028774351
    8      C      -1.0736323407    -0.0040811537     2.2640008037
    9      H      -2.0972538350    -0.0127185349     1.9134694411
   10      C      -0.7888403540    -0.0030327690     3.6185884169
   11      H      -1.6066353463    -0.0093002070     4.3277614286
   12      C       0.5277341856     0.0040212317     4.0917634840
   13      H       0.7121105030     0.0023866169     5.1579677902
   14      C       1.5904700833     0.0117645917     3.2070796272
   15      H       2.6102500994     0.0171450155     3.5723051344
   16      C       1.3289233121     0.0089852380     1.8397483605
   17      C       4.0436665127    -0.0446418981    -0.8054904570
   18      H       5.1127426313    -0.0631651743    -0.9714208098
   19      C       3.5460045064    -0.0150493927     0.4844147302
   20      H       4.2170296688    -0.0149805996     1.3348653657
   21      C       2.1672716534     0.0060947467     0.6719402146
   22      C      -1.1582873646    -0.1101110912    -0.8029939435
   23      C      -1.5337120888     0.9245610459    -1.6447033943
   24      H      -0.9221154162     1.8179395220    -1.7008216259
   25      C      -1.9387661407    -1.2526846079    -0.7159270238
   26      H      -1.6281280928    -2.0633969166    -0.0664023403
   27      C      -3.1197584328    -1.3530377502    -1.4403495808
   28      C      -2.7059816098     0.8306842679    -2.3888416608
   29      C      -3.5214594443    -0.3036020586    -2.2800743000
   30      C      -3.1149730955     1.9714799373    -3.2769025728
   31      H      -2.3821985884     2.7776645499    -3.2582760298
   32      H      -3.2289953957     1.6490969744    -4.3135537201
   33      H      -4.0755429351     2.3896453448    -2.9683824610
   34      C      -3.9690352925    -2.5852214751    -1.2997412165
   35      H      -3.4955217151    -3.3249276665    -0.6548532490
   36      H      -4.1556814017    -3.0563993743    -2.2664426111
   37      H      -4.9446467820    -2.3478154467    -0.8697735808
   38      B      -4.9209845411    -0.3867283257    -3.0086327446
   39      C      -5.0808239876    -0.9863009612    -4.4040527327
   40      C      -3.9488942938    -1.4160996839    -5.1168113149
   41      H      -2.9677144052    -1.3254630656    -4.6631675743
   42      C      -4.0852331320    -1.9492129762    -6.3728367155
   43      C      -3.1121176369    -2.4691047337    -7.3060333958
   44      C      -1.7449322449    -2.6284671246    -7.2903705061
   45      H      -1.1447547805    -2.3288308210    -6.4404342505
   46      C      -1.1265211682    -3.2037794896    -8.4193206051
   47      H      -0.0520114618    -3.3329181186    -8.4116855687
   48      C      -1.8394668906    -3.6082098681    -9.5288594411
   49      H      -1.3183573012    -4.0457153747   -10.3714851192
   50      C      -3.8364314631    -2.8868296577    -8.4444163700
   51      C      -3.2476082774    -3.4565412928    -9.5699311899
   52      C      -5.2235644198    -2.6672467548    -8.2953531229
   53      C      -6.0593329550    -3.0296461555    -9.3256272085
   54      H      -7.1307116235    -2.8856058721    -9.2688685049
   55      C      -5.4878188897    -3.6041090773   -10.4814359684
   56      H      -6.1437384035    -3.8885850076   -11.2937398230
   57      C      -4.1319639798    -3.8179074569   -10.6150942121
   58      H      -3.7439683956    -4.2650594566   -11.5219517091
   59      C      -5.4026420132    -2.0753759516    -6.9835399000
   60      C      -6.5186554742    -1.6773349341    -6.2949661847
   61      H      -7.5004216062    -1.7877954164    -6.7411168864
   62      C      -6.4027609092    -1.1288172146    -5.0022617147
   63      C      -6.1737161768     0.0990790524    -2.2760142711
   64      C      -6.0470818311     0.7004997087    -1.0140039976
   65      H      -5.0616503022     0.8466170021    -0.5863139227
   66      C      -7.1602293469     1.0812780215    -0.3133332254
   67      C      -7.3018599948     1.6782732482     0.9940953673
   68      C      -6.4249391892     2.0973192181     1.9690488528
   69      H      -5.3520268893     2.0259482015     1.8412026278
   70      C      -6.9556247748     2.6286293225     3.1623950824
   71      H      -6.2700007400     2.9610277921     3.9309470933
   72      C      -8.3124638227     2.7360824617     3.3858007915
   73      H      -8.6734294185     3.1470135167     4.3205456769
   74      C      -8.6883162168     1.7959992778     1.2263454683
   75      C      -9.2345365708     2.3088801600     2.3999803530
   76      C      -9.4471021283     1.3132909724     0.1366049736
   77      C     -10.8187615918     1.3458780691     0.2324488527
   78      H     -11.4548428183     0.9850577530    -0.5655874327
   79      C     -11.3984687293     1.8617341985     1.4115466493
   80      H     -12.4776083343     1.8854770575     1.4869460826
   81      C     -10.6474723120     2.3321193534     2.4679660293
   82      H     -11.1404006811     2.7163503425     3.3524279210
   83      C      -8.4927864865     0.8592242008    -0.8575380236
   84      C      -8.6356059570     0.2952280008    -2.0998517447
   85      H      -9.6232196900     0.1341100382    -2.5173642943
   86      C      -7.5023027312    -0.0892969001    -2.8448322371
   87      B      -7.6622712430    -0.7205497392    -4.2297230183
   88      C      -9.0852627615    -1.0091792142    -4.8540500316
   89      C      -9.6989356688    -0.1025805001    -5.7276029292
   90      C     -10.9108256081    -0.4244836656    -6.3310987091
   91      H     -11.3680053554     0.2649298932    -7.0315286030
   92      C     -11.5308735733    -1.6342649694    -6.0539481983
   93      C     -10.9445956671    -2.5253894177    -5.1670392529
   94      H     -11.4428416361    -3.4610029007    -4.9415562707
   95      C      -9.7235949846    -2.2253799549    -4.5731253872
   96      N     -12.7490698488    -1.9711094692    -6.6897408312
   97      C     -13.9372129453    -1.2756538238    -6.5969192107
   98      C     -12.9242972907    -3.0221787231    -7.5663893993
   99      C     -14.2330639054    -0.1522040450    -5.8328706420
  100      H     -13.4898594593     0.3105117728    -5.1964787779
  101      C     -15.5164299811     0.3568945461    -5.9176975330
  102      H     -15.7754519604     1.2325900479    -5.3366932239
  103      C     -11.9947221936    -3.9644449096    -7.9943533913
  104      H     -10.9743780856    -3.9571709915    -7.6337627093
  105      C     -12.4216498926    -4.9143176162    -8.9044962218
  106      H     -11.7206188238    -5.6607253768    -9.2554860307
  107      C     -13.7366985010    -4.9282208154    -9.3816164022
  108      H     -14.0372349554    -5.6865323816   -10.0923441079
  109      C     -14.6506517627    -3.9805022938    -8.9572880756
  110      H     -15.6653414154    -3.9888210693    -9.3350597275
  111      C     -14.2456513676    -3.0127036974    -8.0424663628
  112      C     -16.4837546583    -0.2359112487    -6.7365734317
  113      H     -17.4774721831     0.1896031788    -6.7808179805
  114      C     -16.1821053506    -1.3589723936    -7.4858794108
  115      H     -16.9346282789    -1.8171189886    -8.1155830445
  116      C     -14.8975203421    -1.8899657709    -7.4195126200
  117      C      -9.0317162096     1.2083963371    -6.0356847827
  118      H      -9.6357814385     1.8228412969    -6.7025016608
  119      H      -8.8497818274     1.7844604105    -5.1261076200
  120      H      -8.0608919059     1.0582089966    -6.5128463213
  121      C      -9.0907122994    -3.2081921995    -3.6274200563
  122      H      -9.6929206189    -4.1098163878    -3.5180937984
  123      H      -8.9597779918    -2.7758083166    -2.6335569568
  124      H      -8.1000163694    -3.5121167624    -3.9719971496
 ----------------------------------------------------------------

   29   -2925.4801331309      7.89e-09  Convergence criterion met
 Total energy in the final basis set =    -2925.4801331309

         TDDFT/TDA Excitation Energies
 ---------------------------------------------------

 Excited state   1: excitation energy (eV) =    0.4902
 Total energy for state  1:                 -2925.46211925 au
    <S**2>     :  2.1165
    Trans. Mom.: -0.6769 X   0.6538 Y   1.3386 Z
    Strength   :     0.0321540568
    S(  2) --> V(  1) amplitude =  0.5479 alpha
    D(248) --> S(  1) amplitude =  0.8084 beta

 Excited state   2: excitation energy (eV) =    0.7435
 Total energy for state  2:                 -2925.45281032 au
    <S**2>     :  2.0964
    Trans. Mom.: -0.2964 X  -0.0347 Y  -0.1127 Z
    Strength   :     0.0018537962
    D(236) --> S(  1) amplitude =  0.1752 beta
    D(246) --> S(  1) amplitude =  0.9698 beta

 Excited state   3: excitation energy (eV) =    0.8652
 Total energy for state  3:                 -2925.44833907 au
    <S**2>     :  2.1047
    Trans. Mom.:  0.0982 X   0.0219 Y   0.0533 Z
    Strength   :     0.0002746392
    D(242) --> S(  1) amplitude =  0.2285 beta
    D(245) --> S(  1) amplitude = -0.1544 beta
    D(250) --> S(  1) amplitude =  0.2115 beta
    D(251) --> S(  1) amplitude =  0.9224 beta

 Excited state   4: excitation energy (eV) =    0.9184
 Total energy for state  4:                 -2925.44638220 au
    <S**2>     :  2.0999
    Trans. Mom.:  0.0609 X  -0.0290 Y  -0.0149 Z
    Strength   :     0.0001073666
    D(245) --> S(  1) amplitude =  0.6999 beta
    D(250) --> S(  1) amplitude =  0.6713 beta

 Excited state   5: excitation energy (eV) =    0.9208
 Total energy for state  5:                 -2925.44629549 au
    <S**2>     :  2.1003
    Trans. Mom.: -0.0062 X   0.0304 Y   0.0390 Z
    Strength   :     0.0000560077
    D(245) --> S(  1) amplitude = -0.6606 beta
    D(250) --> S(  1) amplitude =  0.6629 beta
    D(251) --> S(  1) amplitude = -0.2714 beta

 Excited state   6: excitation energy (eV) =    1.4648
 Total energy for state  6:                 -2925.42630118 au
    <S**2>     :  2.1046
    Trans. Mom.: -0.0113 X  -0.0021 Y  -0.0075 Z
    Strength   :     0.0000068252
    D(249) --> S(  1) amplitude =  0.9960 beta

 ---------------------------------------------------
