 Q-Chem 5.1, Q-Chem, Inc., Pleasanton, CA (2018)
 Q-Chem 5.1.1 for Intel X86 EM64T Linux

User input:
--------------------------------------------------------------
$solvent
dielectric      2.03
dielectric_infi 2.02
$end

$rem
threads 8
jobtype	sp
method PBEh-3c
basis def2-mSVP
mem_static	1024
mem_total	14000
sym_ignore	true
cis_n_roots             2
cis_singlets            false
cis_triplets		true
rpa                     false
calc_soc 		true
cis_moments             true
cis_relaxed_density	true
solvent_method		pcm
$end

$pcm
StateSpecific   1
ChargeSeparation Excited
$end

$molecule
read utleopt_chx.mol
$end

--------------------------------------------------------------

   14   -2925.5440583720      9.35e-09  Convergence criterion met
 Total energy in the final basis set =    -2925.5440583720
 Total job time:  12815.60s(wall), 36349.17s(cpu)
        *  Thank you very much for using Q-Chem.  Have a nice day.  *
 Q-Chem 5.1, Q-Chem, Inc., Pleasanton, CA (2018)
 Q-Chem 5.1.1 for Intel X86 EM64T Linux

User input:
--------------------------------------------------------------
$rem
threads 8
jobtype sp
method PBEh-3c
basis def2-mSVP
mem_static      1024
mem_total       14000
sym_ignore      true
cis_n_roots             6
cis_singlets            true
cis_triplets            true
rpa                     false
calc_soc                true
cis_moments             true
cis_relaxed_density     true
solvent_method          pcm
$end

$molecule
read
$end

$pcm
statespecific           Marcus
$end

$solvent
dielectric      2.03
dielectric_infi 2.02
$end

--------------------------------------------------------------

             Standard Nuclear Orientation (Angstroms)
    I     Atom           X                Y                Z
 ----------------------------------------------------------------
    1      N       0.0000000000     0.0000000000     0.0000000000
    2      C       0.0000000000     0.0000000000     1.3791650000
    3      C       1.3066940327     0.0000000000    -0.4422309305
    4      C       1.8005776669    -0.0371731265    -1.7403113466
    5      H       1.1390809787    -0.0548083764    -2.5962276825
    6      C       3.1752199543    -0.0575283145    -1.9013790786
    7      H       3.5872271916    -0.0868180110    -2.9017379239
    8      C      -1.0732204514    -0.0029118331     2.2640587790
    9      H      -2.0964154394    -0.0109559340     1.9125318551
   10      C      -0.7889074817    -0.0016139196     3.6183360367
   11      H      -1.6067021149    -0.0073411393     4.3274422890
   12      C       0.5270098910     0.0047734169     4.0913444437
   13      H       0.7115804057     0.0034307796     5.1574150845
   14      C       1.5891482249     0.0114460623     3.2066093657
   15      H       2.6086578726     0.0164246729     3.5723281389
   16      C       1.3285201252     0.0083478452     1.8396571752
   17      C       4.0430496115    -0.0463433031    -0.8048540990
   18      H       5.1120761450    -0.0654596086    -0.9703775653
   19      C       3.5449766679    -0.0167178598     0.4843877544
   20      H       4.2160380104    -0.0173493822     1.3346758527
   21      C       2.1668614106     0.0054220725     0.6721311522
   22      C      -1.1577562135    -0.1078399938    -0.8024047774
   23      C      -1.5224582992     0.9200082655    -1.6570599223
   24      H      -0.9020937816     1.8066881025    -1.7214648328
   25      C      -1.9504970021    -1.2408620196    -0.7031413581
   26      H      -1.6473381125    -2.0469838067    -0.0445873012
   27      C      -3.1320359584    -1.3375090095    -1.4264738918
   28      C      -2.6945127645     0.8292716972    -2.4013467620
   29      C      -3.5221836821    -0.2945300710    -2.2792980641
   30      C      -3.0917417661     1.9631192762    -3.3035994778
   31      H      -2.3495047766     2.7608218243    -3.2976532522
   32      H      -3.2123834084     1.6287528392    -4.3356489352
   33      H      -4.0464079537     2.3971772326    -2.9988554657
   34      C      -3.9949831076    -2.5583864052    -1.2716224006
   35      H      -3.5312717437    -3.2949747519    -0.6161034500
   36      H      -4.1845836719    -3.0403629203    -2.2323423426
   37      H      -4.9688903724    -2.3048702999    -0.8471194190
   38      B      -4.9224529248    -0.3712803474    -3.0064982913
   39      C      -5.0905097527    -0.9926764293    -4.3911999278
   40      C      -3.9649371411    -1.4527119852    -5.0947569498
   41      H      -2.9838884551    -1.3689484414    -4.6394062940
   42      C      -4.1082382730    -2.0056331417    -6.3411008078
   43      C      -3.1428256151    -2.5576080944    -7.2637887624
   44      C      -1.7788740034    -2.7395321822    -7.2434473752
   45      H      -1.1749548491    -2.4359247898    -6.3976573187
   46      C      -1.1685212297    -3.3438478440    -8.3610575628
   47      H      -0.0963762635    -3.4908035473    -8.3494259430
   48      C      -1.8863380809    -3.7548210515    -9.4644652713
   49      H      -1.3709875873    -4.2149382624   -10.2985029485
   50      C      -3.8721042112    -2.9827045161    -8.3959447573
   51      C      -3.2913207690    -3.5808112192    -9.5106635151
   52      C      -5.2553830434    -2.7378153614    -8.2525519611
   53      C      -6.0951771782    -3.1034254460    -9.2779877619
   54      H      -7.1640204821    -2.9404836863    -9.2256908544
   55      C      -5.5320300676    -3.7062877519   -10.4228552380
   56      H      -6.1914047249    -3.9931793168   -11.2314424340
   57      C      -4.1801571874    -3.9447052275   -10.5505923228
   58      H      -3.7988898013    -4.4132557983   -11.4494189139
   59      C      -5.4266158340    -2.1210680278    -6.9513108691
   60      C      -6.5367269192    -1.6940801726    -6.2710093227
   61      H      -7.5205963319    -1.7967057241    -6.7144771693
   62      C      -6.4136043951    -1.1253652899    -4.9880064747
   63      C      -6.1685385046     0.1429794638    -2.2823547396
   64      C      -6.0340174414     0.7614922200    -1.0296684798
   65      H      -5.0459051749     0.8994974477    -0.6054117417
   66      C      -7.1417070621     1.1674170548    -0.3350678972
   67      C      -7.2754180389     1.7856940753     0.9631820811
   68      C      -6.3932559288     2.2086364714     1.9312400362
   69      H      -5.3214009630     2.1228261434     1.8038677814
   70      C      -6.9162720778     2.7639418768     3.1165194919
   71      H      -6.2261508993     3.0995665899     3.8795626289
   72      C      -8.2711294346     2.8910292658     3.3389025104
   73      H      -8.6259539429     3.3201701750     4.2677591544
   74      C      -8.6598960011     1.9240380845     1.1943705086
   75      C      -9.1989830461     2.4607505386     2.3604508819
   76      C      -9.4248518349     1.4346470751     0.1122111958
   77      C     -10.7956103939     1.4852634972     0.2086967261
   78      H     -11.4367028523     1.1201930706    -0.5832950826
   79      C     -11.3682434642     2.0251437282     1.3799528237
   80      H     -12.4469244889     2.0628282221     1.4557033478
   81      C     -10.6110935595     2.5018988979     2.4285209131
   82      H     -11.0991577744     2.9048810234     3.3072792711
   83      C      -8.4769846067     0.9543043837    -0.8756552407
   84      C      -8.6270625489     0.3742531550    -2.1094608621
   85      H      -9.6158450412     0.2190356143    -2.5265512501
   86      C      -7.4991404462    -0.0359811310    -2.8485093245
   87      B      -7.6674566383    -0.6856347163    -4.2237136752
   88      C      -9.0933781356    -0.9621421714    -4.8461380023
   89      C      -9.6905751958    -0.0608737835    -5.7362190884
   90      C     -10.9042785843    -0.3748616318    -6.3394289968
   91      H     -11.3483836675     0.3084007363    -7.0540417421
   92      C     -11.5438976943    -1.5704280926    -6.0457106757
   93      C     -10.9739796697    -2.4547145201    -5.1416015520
   94      H     -11.4883764141    -3.3780279928    -4.9024801579
   95      C      -9.7508592480    -2.1637911055    -4.5482832348
   96      N     -12.7630207883    -1.9001097486    -6.6815326282
   97      C     -13.9376254711    -1.1784364306    -6.6179676674
   98      C     -12.9510012995    -2.9678253130    -7.5355592401
   99      C     -14.2180183390    -0.0319938434    -5.8836506279
  100      H     -13.4717471279     0.4285674034    -5.2494568829
  101      C     -15.4889345296     0.5016250811    -5.9946920203
  102      H     -15.7358707781     1.3957787161    -5.4371271698
  103      C     -12.0368165213    -3.9378358368    -7.9321529534
  104      H     -11.0204349463    -3.9417441386    -7.5607252270
  105      C     -12.4732963252    -4.8991003267    -8.8250362527
  106      H     -11.7842295958    -5.6673638512    -9.1515293619
  107      C     -13.7827189905    -4.8971400162    -9.3156868680
  108      H     -14.0915391659    -5.6649720383   -10.0123473684
  109      C     -14.6809028229    -3.9218927116    -8.9225458694
  110      H     -15.6913744827    -3.9186585219    -9.3112896415
  111      C     -14.2664963176    -2.9420724346    -8.0257865611
  112      C     -16.4591240036    -0.0897687731    -6.8100613243
  113      H     -17.4430578828     0.3550393101    -6.8756050900
  114      C     -16.1729294174    -1.2358824371    -7.5291022206
  115      H     -16.9284494670    -1.6926222224    -8.1560558701
  116      C     -14.9012741599    -1.7920298586    -7.4364006580
  117      C      -9.0022730987     1.2348004815    -6.0622099056
  118      H      -9.5934981353     1.8476440682    -6.7419280000
  119      H      -8.8161163846     1.8229691976    -5.1613355519
  120      H      -8.0314340789     1.0629299457    -6.5318479813
  121      C      -9.1348736923    -3.1406325907    -3.5854097250
  122      H      -9.7517669984    -4.0302847363    -3.4607559391
  123      H      -8.9967470690    -2.6940063352    -2.5989149475
  124      H      -8.1494163929    -3.4670202682    -3.9243057143
 ----------------------------------------------------------------

   14   -2925.5440575077      9.35e-09  Convergence criterion met
 Total energy in the final basis set =    -2925.5440575077

         TDDFT/TDA Excitation Energies
 ---------------------------------------------------

 Excited state   1: excitation energy (eV) =    1.9530
 Total energy for state  1:                 -2925.47228733 au
    Multiplicity: Triplet
    Trans. Mom.:  0.0000 X   0.0000 Y   0.0000 Z
    Strength   :     0.0000000000
    D(245) --> V(  2) amplitude =  0.2395
    D(249) --> V(  1) amplitude =  0.9192

 Excited state   2: excitation energy (eV) =    2.3346
 Total energy for state  2:                 -2925.45826314 au
    Multiplicity: Triplet
    Trans. Mom.:  0.0000 X   0.0000 Y   0.0000 Z
    Strength   :     0.0000000000
    D(246) --> V(  2) amplitude =  0.4602
    D(247) --> V(  1) amplitude =  0.8238

 Excited state   3: excitation energy (eV) =    2.4070
 Total energy for state  3:                 -2925.45560008 au
    Multiplicity: Triplet
    Trans. Mom.:  0.0000 X   0.0000 Y   0.0000 Z
    Strength   :     0.0000000000
    D(246) --> V(  1) amplitude = -0.7542
    D(246) --> V(  4) amplitude =  0.2239
    D(247) --> V(  2) amplitude = -0.5307

 Excited state   4: excitation energy (eV) =    2.5041
 Total energy for state  4:                 -2925.45203291 au
    Multiplicity: Triplet
    Trans. Mom.:  0.0000 X   0.0000 Y   0.0000 Z
    Strength   :     0.0000000000
    D(245) --> V(  1) amplitude = -0.7318
    D(249) --> V(  2) amplitude = -0.5472

 Excited state   5: excitation energy (eV) =    2.6122
 Total energy for state  5:                 -2925.44806067 au
    Multiplicity: Singlet
    Trans. Mom.:  0.0525 X  -0.0821 Y  -0.0790 Z
    Strength   :     0.0010072579
    D(249) --> V(  1) amplitude =  0.9582

 Excited state   6: excitation energy (eV) =    2.8238
 Total energy for state  6:                 -2925.44028492 au
    Multiplicity: Triplet
    Trans. Mom.:  0.0000 X   0.0000 Y   0.0000 Z
    Strength   :     0.0000000000
    D(242) --> V(  1) amplitude =  0.2940
    D(251) --> V(  1) amplitude =  0.2928
    D(252) --> V(  1) amplitude =  0.8889

 Excited state   7: excitation energy (eV) =    2.8433
 Total energy for state  7:                 -2925.43956947 au
    Multiplicity: Singlet
    Trans. Mom.: -0.1705 X   0.0719 Y   0.1319 Z
    Strength   :     0.0035984407
    D(242) --> V(  1) amplitude =  0.2422
    D(251) --> V(  1) amplitude =  0.2187
    D(252) --> V(  1) amplitude =  0.9288

 Excited state   8: excitation energy (eV) =    2.8803
 Total energy for state  8:                 -2925.43820902 au
    Multiplicity: Triplet
    Trans. Mom.:  0.0000 X   0.0000 Y   0.0000 Z
    Strength   :     0.0000000000
    D(241) --> V(  1) amplitude =  0.2235
    D(251) --> V(  1) amplitude =  0.9023
    D(252) --> V(  1) amplitude = -0.3214

 Excited state   9: excitation energy (eV) =    2.8900
 Total energy for state  9:                 -2925.43785280 au
    Multiplicity: Singlet
    Trans. Mom.: -0.0558 X   0.0936 Y   0.2032 Z
    Strength   :     0.0037657138
    D(251) --> V(  1) amplitude =  0.9342
    D(252) --> V(  1) amplitude = -0.2348

 Excited state  10: excitation energy (eV) =    3.0295
 Total energy for state 10:                 -2925.43272700 au
    Multiplicity: Singlet
    Trans. Mom.:  1.6797 X  -1.7286 Y  -3.4015 Z
    Strength   :     1.2898958737
    D(247) --> V(  1) amplitude =  0.9563

 Excited state  11: excitation energy (eV) =    3.4333
 Total energy for state 11:                 -2925.41788542 au
    Multiplicity: Singlet
    Trans. Mom.: -0.0133 X   0.0016 Y   0.0128 Z
    Strength   :     0.0000287639
    D(250) --> V(  1) amplitude =  0.9964

 Excited state  12: excitation energy (eV) =    3.4546
 Total energy for state 12:                 -2925.41710427 au
    Multiplicity: Singlet
    Trans. Mom.: -0.0086 X   0.0093 Y   0.0059 Z
    Strength   :     0.0000164917
    D(248) --> V(  1) amplitude =  0.9872

 ---------------------------------------------------

                    Orbital Energies (a.u.)
 --------------------------------------------------------------

 Alpha MOs
 -- Occupied --
-14.691 -14.691 -10.494 -10.493 -10.487 -10.487 -10.487 -10.487
-10.471 -10.471 -10.470 -10.470 -10.469 -10.469 -10.469 -10.469
-10.469 -10.469 -10.466 -10.466 -10.466 -10.466 -10.466 -10.466
-10.465 -10.465 -10.463 -10.463 -10.463 -10.462 -10.462 -10.462
-10.462 -10.462 -10.461 -10.460 -10.460 -10.458 -10.452 -10.452
-10.450 -10.449 -10.449 -10.449 -10.449 -10.449 -10.449 -10.449
-10.448 -10.448 -10.448 -10.448 -10.447 -10.447 -10.447 -10.447
-10.447 -10.447 -10.447 -10.447 -10.443 -10.443 -10.442 -10.442
-10.440 -10.440 -10.440 -10.440 -10.434 -10.433 -10.433 -10.432
-10.432 -10.432  -6.951  -6.951  -1.111  -1.110  -1.019  -1.019
 -0.978  -0.978  -0.964  -0.961  -0.952  -0.951  -0.948  -0.947
 -0.938  -0.938  -0.911  -0.902  -0.890  -0.888  -0.881  -0.881
 -0.866  -0.863  -0.855  -0.854  -0.851  -0.851  -0.847  -0.846
 -0.824  -0.820  -0.817  -0.810  -0.810  -0.810  -0.809  -0.803
 -0.776  -0.776  -0.772  -0.772  -0.740  -0.739  -0.734  -0.732
 -0.730  -0.723  -0.700  -0.697  -0.693  -0.688  -0.688  -0.682
 -0.681  -0.673  -0.656  -0.656  -0.652  -0.650  -0.649  -0.648
 -0.644  -0.644  -0.604  -0.599  -0.596  -0.595  -0.595  -0.593
 -0.588  -0.588  -0.587  -0.581  -0.579  -0.574  -0.573  -0.559
 -0.557  -0.553  -0.547  -0.546  -0.531  -0.531  -0.528  -0.523
 -0.520  -0.520  -0.519  -0.515  -0.507  -0.506  -0.502  -0.501
 -0.500  -0.500  -0.498  -0.497  -0.493  -0.492  -0.491  -0.489
 -0.489  -0.488  -0.488  -0.488  -0.483  -0.482  -0.480  -0.480
 -0.477  -0.476  -0.474  -0.471  -0.471  -0.469  -0.467  -0.467
 -0.465  -0.460  -0.446  -0.445  -0.444  -0.443  -0.441  -0.433
 -0.433  -0.428  -0.426  -0.424  -0.424  -0.424  -0.422  -0.416
 -0.415  -0.413  -0.408  -0.408  -0.402  -0.400  -0.400  -0.399
 -0.399  -0.398  -0.396  -0.395  -0.395  -0.392  -0.392  -0.391
 -0.384  -0.378  -0.376  -0.372  -0.370  -0.357  -0.354  -0.346
 -0.331  -0.331  -0.330  -0.323  -0.301  -0.300  -0.300  -0.300
 -0.289  -0.287  -0.286  -0.286  -0.283  -0.267  -0.260  -0.255
 -0.255  -0.255  -0.240  -0.239

          Ground-State Mulliken Net Atomic Charges

     Atom                 Charge (a.u.)
  ----------------------------------------
      1 N                    -0.733985
      2 C                     0.337895
      3 C                     0.341426
      4 C                    -0.293591
      5 H                     0.246499
      6 C                    -0.252780
      7 H                     0.233957
      8 C                    -0.291151
      9 H                     0.246924
     10 C                    -0.252648
     11 H                     0.233851
     12 C                    -0.247478
     13 H                     0.231760
     14 C                    -0.354812
     15 H                     0.225904
     16 C                     0.081628
     17 C                    -0.247489
     18 H                     0.231685
     19 C                    -0.354437
     20 H                     0.226067
     21 C                     0.081041
     22 C                     0.300892
     23 C                    -0.349045
     24 H                     0.244960
     25 C                    -0.348578
     26 H                     0.247845
     27 C                     0.040734
     28 C                     0.045654
     29 C                    -0.213034
     30 C                    -0.763498
     31 H                     0.248844
     32 H                     0.248255
     33 H                     0.248963
     34 C                    -0.768619
     35 H                     0.250964
     36 H                     0.249930
     37 H                     0.250564
     38 B                     0.685265
     39 C                    -0.156430
     40 C                    -0.386297
     41 H                     0.239633
     42 C                     0.077461
     43 C                     0.187551
     44 C                    -0.376072
     45 H                     0.240370
     46 C                    -0.222608
     47 H                     0.246972
     48 C                    -0.339020
     49 H                     0.242610
     50 C                    -0.070619
     51 C                     0.232471
     52 C                     0.193914
     53 C                    -0.382118
     54 H                     0.241809
     55 C                    -0.221451
     56 H                     0.247245
     57 C                    -0.340951
     58 H                     0.242808
     59 C                     0.088515
     60 C                    -0.386753
     61 H                     0.242888
     62 C                    -0.152166
     63 C                    -0.151062
     64 C                    -0.379872
     65 H                     0.242959
     66 C                     0.073219
     67 C                     0.190475
     68 C                    -0.376414
     69 H                     0.240938
     70 C                    -0.223276
     71 H                     0.247379
     72 C                    -0.338119
     73 H                     0.242677
     74 C                    -0.070652
     75 C                     0.233162
     76 C                     0.191251
     77 C                    -0.383122
     78 H                     0.240639
     79 C                    -0.221201
     80 H                     0.246706
     81 C                    -0.341259
     82 H                     0.242854
     83 C                     0.093026
     84 C                    -0.393550
     85 H                     0.240022
     86 C                    -0.157975
     87 B                     0.685069
     88 C                    -0.210203
     89 C                     0.046675
     90 C                    -0.347749
     91 H                     0.247450
     92 C                     0.307238
     93 C                    -0.358625
     94 H                     0.247844
     95 C                     0.039278
     96 N                    -0.735759
     97 C                     0.339047
     98 C                     0.334835
     99 C                    -0.292934
    100 H                     0.248944
    101 C                    -0.253633
    102 H                     0.234469
    103 C                    -0.292715
    104 H                     0.249283
    105 C                    -0.253634
    106 H                     0.234303
    107 C                    -0.246824
    108 H                     0.231574
    109 C                    -0.358563
    110 H                     0.226061
    111 C                     0.089352
    112 C                    -0.247241
    113 H                     0.231654
    114 C                    -0.357528
    115 H                     0.226128
    116 C                     0.082527
    117 C                    -0.764688
    118 H                     0.249041
    119 H                     0.248473
    120 H                     0.249551
    121 C                    -0.769752
    122 H                     0.250787
    123 H                     0.250573
    124 H                     0.250768
  ----------------------------------------
  Sum of atomic charges =    -0.000000

                    Cartesian Multipole Moments
 -----------------------------------------------------------------
    Charge (ESU x 10^10)
                -0.0000
    Dipole Moment (Debye)
         X       0.1512      Y       0.2608      Z      -0.1996
       Tot       0.3616
    Quadrupole Moments (Debye-Ang)
        XX    -427.6002     XY     -19.7106     YY    -426.1714
        XZ     -32.1093     YZ      26.5811     ZZ    -384.2865

 Total job time:  21026.49s(wall), 63175.07s(cpu)
        *  Thank you very much for using Q-Chem.  Have a nice day.  *
