 Q-Chem 5.0, Q-Chem, Inc., Pleasanton, CA (2017)
 Q-Chem 5.0.1 for Intel X86 EM64T Linux

User input:
--------------------------------------------------------------
$solvent
dielectric      2.03
dielectric_infi 2.02
$end

$rem
threads 8
jobtype	sp
method PBEh-3c
basis def2-mSVP
mem_static	1024
mem_total	14000
sym_ignore	true
cis_n_roots             2
cis_singlets            false
cis_triplets		true
rpa                     false
calc_soc 		true
cis_moments             true
cis_relaxed_density	true
solvent_method		pcm
$end

$pcm
StateSpecific   1
ChargeSeparation Excited
$end

$molecule
read utleopt_chx.mol
$end

--------------------------------------------------------------

   27   -2925.4686779093      9.53E-09 Convergence criterion met
 Total energy in the final basis set = -2925.46867791
 Q-Chem 5.0, Q-Chem, Inc., Pleasanton, CA (2017)
 Q-Chem 5.0.1 for Intel X86 EM64T Linux

User input:
--------------------------------------------------------------
$rem
threads 8
jobtype sp
method PBEh-3c
basis def2-mSVP
mem_static      1024
mem_total       14000
sym_ignore      true
cis_n_roots             6
cis_singlets            true
cis_triplets            true
rpa                     false
calc_soc                true
cis_moments             true
cis_relaxed_density     true
solvent_method          pcm
$end

$molecule
read
$end

$pcm
statespecific           Marcus
$end

$solvent
dielectric      2.03
dielectric_infi 2.02
$end

--------------------------------------------------------------

             Standard Nuclear Orientation (Angstroms)
    I     Atom           X                Y                Z
 ----------------------------------------------------------------
    1      N       0.0000000000     0.0000000000     0.0000000000
    2      C       0.0000000000     0.0000000000     1.3791650000
    3      C       1.3066940327     0.0000000000    -0.4422309305
    4      C       1.8005776669    -0.0371731265    -1.7403113466
    5      H       1.1390809787    -0.0548083764    -2.5962276825
    6      C       3.1752199543    -0.0575283145    -1.9013790786
    7      H       3.5872271916    -0.0868180110    -2.9017379239
    8      C      -1.0732204514    -0.0029118331     2.2640587790
    9      H      -2.0964154394    -0.0109559340     1.9125318551
   10      C      -0.7889074817    -0.0016139196     3.6183360367
   11      H      -1.6067021149    -0.0073411393     4.3274422890
   12      C       0.5270098910     0.0047734169     4.0913444437
   13      H       0.7115804057     0.0034307796     5.1574150845
   14      C       1.5891482249     0.0114460623     3.2066093657
   15      H       2.6086578726     0.0164246729     3.5723281389
   16      C       1.3285201252     0.0083478452     1.8396571752
   17      C       4.0430496115    -0.0463433031    -0.8048540990
   18      H       5.1120761450    -0.0654596086    -0.9703775653
   19      C       3.5449766679    -0.0167178598     0.4843877544
   20      H       4.2160380104    -0.0173493822     1.3346758527
   21      C       2.1668614106     0.0054220725     0.6721311522
   22      C      -1.1577562135    -0.1078399938    -0.8024047774
   23      C      -1.5224582992     0.9200082655    -1.6570599223
   24      H      -0.9020937816     1.8066881025    -1.7214648328
   25      C      -1.9504970021    -1.2408620196    -0.7031413581
   26      H      -1.6473381125    -2.0469838067    -0.0445873012
   27      C      -3.1320359584    -1.3375090095    -1.4264738918
   28      C      -2.6945127645     0.8292716972    -2.4013467620
   29      C      -3.5221836821    -0.2945300710    -2.2792980641
   30      C      -3.0917417661     1.9631192762    -3.3035994778
   31      H      -2.3495047766     2.7608218243    -3.2976532522
   32      H      -3.2123834084     1.6287528392    -4.3356489352
   33      H      -4.0464079537     2.3971772326    -2.9988554657
   34      C      -3.9949831076    -2.5583864052    -1.2716224006
   35      H      -3.5312717437    -3.2949747519    -0.6161034500
   36      H      -4.1845836719    -3.0403629203    -2.2323423426
   37      H      -4.9688903724    -2.3048702999    -0.8471194190
   38      B      -4.9224529248    -0.3712803474    -3.0064982913
   39      C      -5.0905097527    -0.9926764293    -4.3911999278
   40      C      -3.9649371411    -1.4527119852    -5.0947569498
   41      H      -2.9838884551    -1.3689484414    -4.6394062940
   42      C      -4.1082382730    -2.0056331417    -6.3411008078
   43      C      -3.1428256151    -2.5576080944    -7.2637887624
   44      C      -1.7788740034    -2.7395321822    -7.2434473752
   45      H      -1.1749548491    -2.4359247898    -6.3976573187
   46      C      -1.1685212297    -3.3438478440    -8.3610575628
   47      H      -0.0963762635    -3.4908035473    -8.3494259430
   48      C      -1.8863380809    -3.7548210515    -9.4644652713
   49      H      -1.3709875873    -4.2149382624   -10.2985029485
   50      C      -3.8721042112    -2.9827045161    -8.3959447573
   51      C      -3.2913207690    -3.5808112192    -9.5106635151
   52      C      -5.2553830434    -2.7378153614    -8.2525519611
   53      C      -6.0951771782    -3.1034254460    -9.2779877619
   54      H      -7.1640204821    -2.9404836863    -9.2256908544
   55      C      -5.5320300676    -3.7062877519   -10.4228552380
   56      H      -6.1914047249    -3.9931793168   -11.2314424340
   57      C      -4.1801571874    -3.9447052275   -10.5505923228
   58      H      -3.7988898013    -4.4132557983   -11.4494189139
   59      C      -5.4266158340    -2.1210680278    -6.9513108691
   60      C      -6.5367269192    -1.6940801726    -6.2710093227
   61      H      -7.5205963319    -1.7967057241    -6.7144771693
   62      C      -6.4136043951    -1.1253652899    -4.9880064747
   63      C      -6.1685385046     0.1429794638    -2.2823547396
   64      C      -6.0340174414     0.7614922200    -1.0296684798
   65      H      -5.0459051749     0.8994974477    -0.6054117417
   66      C      -7.1417070621     1.1674170548    -0.3350678972
   67      C      -7.2754180389     1.7856940753     0.9631820811
   68      C      -6.3932559288     2.2086364714     1.9312400362
   69      H      -5.3214009630     2.1228261434     1.8038677814
   70      C      -6.9162720778     2.7639418768     3.1165194919
   71      H      -6.2261508993     3.0995665899     3.8795626289
   72      C      -8.2711294346     2.8910292658     3.3389025104
   73      H      -8.6259539429     3.3201701750     4.2677591544
   74      C      -8.6598960011     1.9240380845     1.1943705086
   75      C      -9.1989830461     2.4607505386     2.3604508819
   76      C      -9.4248518349     1.4346470751     0.1122111958
   77      C     -10.7956103939     1.4852634972     0.2086967261
   78      H     -11.4367028523     1.1201930706    -0.5832950826
   79      C     -11.3682434642     2.0251437282     1.3799528237
   80      H     -12.4469244889     2.0628282221     1.4557033478
   81      C     -10.6110935595     2.5018988979     2.4285209131
   82      H     -11.0991577744     2.9048810234     3.3072792711
   83      C      -8.4769846067     0.9543043837    -0.8756552407
   84      C      -8.6270625489     0.3742531550    -2.1094608621
   85      H      -9.6158450412     0.2190356143    -2.5265512501
   86      C      -7.4991404462    -0.0359811310    -2.8485093245
   87      B      -7.6674566383    -0.6856347163    -4.2237136752
   88      C      -9.0933781356    -0.9621421714    -4.8461380023
   89      C      -9.6905751958    -0.0608737835    -5.7362190884
   90      C     -10.9042785843    -0.3748616318    -6.3394289968
   91      H     -11.3483836675     0.3084007363    -7.0540417421
   92      C     -11.5438976943    -1.5704280926    -6.0457106757
   93      C     -10.9739796697    -2.4547145201    -5.1416015520
   94      H     -11.4883764141    -3.3780279928    -4.9024801579
   95      C      -9.7508592480    -2.1637911055    -4.5482832348
   96      N     -12.7630207883    -1.9001097486    -6.6815326282
   97      C     -13.9376254711    -1.1784364306    -6.6179676674
   98      C     -12.9510012995    -2.9678253130    -7.5355592401
   99      C     -14.2180183390    -0.0319938434    -5.8836506279
  100      H     -13.4717471279     0.4285674034    -5.2494568829
  101      C     -15.4889345296     0.5016250811    -5.9946920203
  102      H     -15.7358707781     1.3957787161    -5.4371271698
  103      C     -12.0368165213    -3.9378358368    -7.9321529534
  104      H     -11.0204349463    -3.9417441386    -7.5607252270
  105      C     -12.4732963252    -4.8991003267    -8.8250362527
  106      H     -11.7842295958    -5.6673638512    -9.1515293619
  107      C     -13.7827189905    -4.8971400162    -9.3156868680
  108      H     -14.0915391659    -5.6649720383   -10.0123473684
  109      C     -14.6809028229    -3.9218927116    -8.9225458694
  110      H     -15.6913744827    -3.9186585219    -9.3112896415
  111      C     -14.2664963176    -2.9420724346    -8.0257865611
  112      C     -16.4591240036    -0.0897687731    -6.8100613243
  113      H     -17.4430578828     0.3550393101    -6.8756050900
  114      C     -16.1729294174    -1.2358824371    -7.5291022206
  115      H     -16.9284494670    -1.6926222224    -8.1560558701
  116      C     -14.9012741599    -1.7920298586    -7.4364006580
  117      C      -9.0022730987     1.2348004815    -6.0622099056
  118      H      -9.5934981353     1.8476440682    -6.7419280000
  119      H      -8.8161163846     1.8229691976    -5.1613355519
  120      H      -8.0314340789     1.0629299457    -6.5318479813
  121      C      -9.1348736923    -3.1406325907    -3.5854097250
  122      H      -9.7517669984    -4.0302847363    -3.4607559391
  123      H      -8.9967470690    -2.6940063352    -2.5989149475
  124      H      -8.1494163929    -3.4670202682    -3.9243057143
 ----------------------------------------------------------------

   27   -2925.4686773574      9.56E-09 Convergence criterion met
 Total energy in the final basis set = -2925.46867736

         TDDFT/TDA Excitation Energies
 ---------------------------------------------------

 Excited state   1: excitation energy (eV) =    0.4874
 Total energy for state  1:                 -2925.45076484 au
    <S**2>     :  2.1171
    Trans. Mom.: -0.6838 X   0.7012 Y   1.3588 Z
    Strength   :     0.0335016208
    S(  2) --> V(  1) amplitude =  0.5437 alpha
    D(247) --> S(  1) amplitude =  0.8118 beta

 Excited state   2: excitation energy (eV) =    0.7575
 Total energy for state  2:                 -2925.44084088 au
    <S**2>     :  2.0974
    Trans. Mom.: -0.2907 X  -0.0310 Y  -0.1094 Z
    Strength   :     0.0018083845
    D(236) --> S(  1) amplitude = -0.1737 beta
    D(246) --> S(  1) amplitude =  0.9564 beta
    D(251) --> S(  1) amplitude =  0.1536 beta

 Excited state   3: excitation energy (eV) =    0.8154
 Total energy for state  3:                 -2925.43871225 au
    <S**2>     :  2.1055
    Trans. Mom.:  0.1309 X   0.0212 Y   0.0615 Z
    Strength   :     0.0004271168
    D(242) --> S(  1) amplitude = -0.1996 beta
    D(246) --> S(  1) amplitude = -0.1716 beta
    D(250) --> S(  1) amplitude = -0.1920 beta
    D(251) --> S(  1) amplitude =  0.9303 beta

 Excited state   4: excitation energy (eV) =    0.8638
 Total energy for state  4:                 -2925.43693491 au
    <S**2>     :  2.1056
    Trans. Mom.: -0.0492 X  -0.0039 Y  -0.0255 Z
    Strength   :     0.0000652908
    D(241) --> S(  1) amplitude =  0.1629 beta
    D(250) --> S(  1) amplitude =  0.9478 beta
    D(251) --> S(  1) amplitude =  0.2225 beta

 Excited state   5: excitation energy (eV) =    0.9338
 Total energy for state  5:                 -2925.43436173 au
    <S**2>     :  2.0960
    Trans. Mom.: -0.0378 X   0.0460 Y   0.0410 Z
    Strength   :     0.0001197615
    D(233) --> S(  1) amplitude = -0.1743 beta
    D(245) --> S(  1) amplitude =  0.9718 beta

 Excited state   6: excitation energy (eV) =    1.3970
 Total energy for state  6:                 -2925.41734024 au
    <S**2>     :  2.1055
    Trans. Mom.:  0.0091 X   0.0016 Y   0.0065 Z
    Strength   :     0.0000044035
    D(249) --> S(  1) amplitude =  0.9981 beta

 ---------------------------------------------------

                    Orbital Energies (a.u.)
 --------------------------------------------------------------

 Alpha MOs
 -- Occupied --
-14.689 -14.689 -10.490 -10.489 -10.486 -10.486 -10.486 -10.485
-10.483 -10.482 -10.482 -10.481 -10.472 -10.472 -10.472 -10.471
-10.471 -10.471 -10.470 -10.470 -10.470 -10.470 -10.469 -10.469
-10.468 -10.468 -10.465 -10.465 -10.464 -10.464 -10.464 -10.464
-10.461 -10.460 -10.460 -10.459 -10.458 -10.458 -10.457 -10.457
-10.454 -10.454 -10.453 -10.453 -10.449 -10.448 -10.448 -10.448
-10.448 -10.448 -10.448 -10.447 -10.447 -10.446 -10.446 -10.446
-10.446 -10.446 -10.446 -10.446 -10.445 -10.445 -10.444 -10.444
-10.439 -10.439 -10.439 -10.439 -10.429 -10.429 -10.429 -10.428
-10.428 -10.427  -6.928  -6.927  -1.109  -1.108  -1.029  -1.028
 -0.976  -0.975  -0.971  -0.969  -0.951  -0.951  -0.945  -0.945
 -0.942  -0.942  -0.919  -0.909  -0.888  -0.887  -0.877  -0.877
 -0.870  -0.868  -0.856  -0.855  -0.853  -0.852  -0.845  -0.845
 -0.833  -0.823  -0.821  -0.814  -0.809  -0.809  -0.808  -0.808
 -0.772  -0.771  -0.769  -0.769  -0.744  -0.744  -0.738  -0.730
 -0.729  -0.729  -0.700  -0.698  -0.694  -0.688  -0.687  -0.687
 -0.684  -0.679  -0.656  -0.655  -0.654  -0.653  -0.647  -0.646
 -0.643  -0.642  -0.606  -0.601  -0.600  -0.596  -0.593  -0.593
 -0.590  -0.587  -0.587  -0.584  -0.583  -0.572  -0.572  -0.555
 -0.554  -0.552  -0.551  -0.546  -0.536  -0.533  -0.529  -0.522
 -0.519  -0.519  -0.519  -0.518  -0.511  -0.508  -0.503  -0.502
 -0.501  -0.500  -0.499  -0.499  -0.499  -0.498  -0.493  -0.491
 -0.490  -0.490  -0.487  -0.487  -0.486  -0.480  -0.479  -0.478
 -0.476  -0.475  -0.472  -0.472  -0.468  -0.467  -0.465  -0.464
 -0.464  -0.461  -0.449  -0.449  -0.448  -0.442  -0.441  -0.437
 -0.435  -0.430  -0.429  -0.424  -0.423  -0.423  -0.421  -0.416
 -0.414  -0.414  -0.407  -0.406  -0.406  -0.405  -0.405  -0.403
 -0.400  -0.398  -0.396  -0.396  -0.394  -0.392  -0.391  -0.390
 -0.387  -0.387  -0.375  -0.374  -0.364  -0.363  -0.357  -0.344
 -0.340  -0.333  -0.330  -0.330  -0.309  -0.307  -0.300  -0.299
 -0.299  -0.286  -0.283  -0.283  -0.282  -0.278  -0.277  -0.266
 -0.254  -0.254  -0.239  -0.238  -0.181

 Beta MOs
 -- Occupied --
-14.689 -14.689 -10.490 -10.489 -10.486 -10.486 -10.486 -10.485
-10.480 -10.479 -10.479 -10.478 -10.474 -10.474 -10.473 -10.472
-10.472 -10.472 -10.469 -10.469 -10.468 -10.468 -10.467 -10.467
-10.466 -10.466 -10.466 -10.466 -10.465 -10.465 -10.463 -10.463
-10.463 -10.462 -10.462 -10.461 -10.458 -10.457 -10.457 -10.457
-10.451 -10.451 -10.450 -10.449 -10.449 -10.448 -10.448 -10.448
-10.448 -10.448 -10.448 -10.447 -10.447 -10.446 -10.446 -10.446
-10.446 -10.446 -10.446 -10.446 -10.445 -10.445 -10.444 -10.444
-10.439 -10.439 -10.439 -10.439 -10.429 -10.429 -10.429 -10.428
-10.428 -10.427  -6.926  -6.925  -1.109  -1.108  -1.025  -1.024
 -0.975  -0.975  -0.967  -0.965  -0.951  -0.951  -0.945  -0.945
 -0.940  -0.940  -0.914  -0.906  -0.888  -0.886  -0.877  -0.876
 -0.868  -0.867  -0.854  -0.853  -0.852  -0.852  -0.845  -0.845
 -0.823  -0.821  -0.819  -0.809  -0.809  -0.808  -0.808  -0.804
 -0.772  -0.771  -0.769  -0.768  -0.741  -0.739  -0.735  -0.730
 -0.729  -0.726  -0.698  -0.696  -0.694  -0.687  -0.687  -0.685
 -0.680  -0.674  -0.655  -0.654  -0.654  -0.652  -0.647  -0.646
 -0.643  -0.642  -0.604  -0.598  -0.598  -0.594  -0.593  -0.593
 -0.590  -0.587  -0.587  -0.582  -0.581  -0.572  -0.572  -0.554
 -0.553  -0.551  -0.549  -0.545  -0.534  -0.532  -0.527  -0.522
 -0.519  -0.519  -0.518  -0.516  -0.509  -0.508  -0.502  -0.501
 -0.500  -0.499  -0.498  -0.498  -0.491  -0.491  -0.490  -0.490
 -0.489  -0.489  -0.487  -0.487  -0.486  -0.479  -0.479  -0.478
 -0.475  -0.475  -0.472  -0.471  -0.468  -0.467  -0.464  -0.464
 -0.464  -0.459  -0.448  -0.445  -0.442  -0.440  -0.436  -0.433
 -0.430  -0.424  -0.423  -0.423  -0.423  -0.421  -0.421  -0.415
 -0.414  -0.413  -0.406  -0.405  -0.404  -0.402  -0.401  -0.401
 -0.399  -0.397  -0.396  -0.396  -0.393  -0.392  -0.391  -0.390
 -0.384  -0.375  -0.374  -0.363  -0.362  -0.353  -0.345  -0.342
 -0.331  -0.330  -0.330  -0.326  -0.301  -0.301  -0.299  -0.299
 -0.286  -0.283  -0.282  -0.282  -0.267  -0.262  -0.257  -0.254
 -0.254  -0.239  -0.238

          Ground-State Mulliken Net Atomic Charges

     Atom                 Charge (a.u.)    Spin (a.u.)
  --------------------------------------------------------
      1 N                    -0.733096       0.000009
      2 C                     0.337937       0.000251
      3 C                     0.341421       0.000255
      4 C                    -0.293553      -0.000428
      5 H                     0.246519       0.000043
      6 C                    -0.252873       0.000403
      7 H                     0.233367      -0.000034
      8 C                    -0.291020      -0.000422
      9 H                     0.246747       0.000044
     10 C                    -0.252737       0.000395
     11 H                     0.233097      -0.000034
     12 C                    -0.247734      -0.000411
     13 H                     0.231187       0.000036
     14 C                    -0.354926       0.000402
     15 H                     0.225476      -0.000037
     16 C                     0.081241      -0.000231
     17 C                    -0.247728      -0.000417
     18 H                     0.231142       0.000037
     19 C                    -0.354555       0.000407
     20 H                     0.225623      -0.000037
     21 C                     0.080662      -0.000237
     22 C                     0.299150      -0.000087
     23 C                    -0.350901      -0.000280
     24 H                     0.242045       0.000296
     25 C                    -0.350322      -0.000251
     26 H                     0.244931       0.000260
     27 C                     0.037295       0.001893
     28 C                     0.041563       0.002105
     29 C                    -0.201564      -0.018887
     30 C                    -0.756064       0.000857
     31 H                     0.244123       0.001065
     32 H                     0.245153      -0.000554
     33 H                     0.246204      -0.000583
     34 C                    -0.760653       0.001110
     35 H                     0.246224       0.001188
     36 H                     0.246854      -0.000691
     37 H                     0.247057      -0.000688
     38 B                     0.602233       0.214119
     39 C                    -0.126701       0.208789
     40 C                    -0.391319      -0.140568
     41 H                     0.242614       0.005463
     42 C                     0.090186       0.237120
     43 C                     0.188343      -0.113350
     44 C                    -0.379458       0.136694
     45 H                     0.242005      -0.008046
     46 C                    -0.220714      -0.097074
     47 H                     0.249119       0.004676
     48 C                    -0.340566       0.146500
     49 H                     0.244229      -0.008463
     50 C                    -0.060049       0.140112
     51 C                     0.234887      -0.091738
     52 C                     0.194638      -0.113111
     53 C                    -0.386158       0.132383
     54 H                     0.243134      -0.007778
     55 C                    -0.219422      -0.095476
     56 H                     0.249128       0.004630
     57 C                    -0.343313       0.139937
     58 H                     0.244032      -0.008079
     59 C                     0.101106       0.232825
     60 C                    -0.392329      -0.141016
     61 H                     0.246073       0.005467
     62 C                    -0.120726       0.225004
     63 C                    -0.120721       0.215489
     64 C                    -0.384749      -0.143562
     65 H                     0.246198       0.005579
     66 C                     0.085512       0.240686
     67 C                     0.191557      -0.114973
     68 C                    -0.380129       0.138467
     69 H                     0.242581      -0.008148
     70 C                    -0.221271      -0.098219
     71 H                     0.249530       0.004731
     72 C                    -0.339975       0.147792
     73 H                     0.244205      -0.008539
     74 C                    -0.059817       0.142452
     75 C                     0.235620      -0.092916
     76 C                     0.191724      -0.114281
     77 C                    -0.386950       0.134159
     78 H                     0.242076      -0.007897
     79 C                    -0.219223      -0.096714
     80 H                     0.248732       0.004688
     81 C                    -0.343269       0.142155
     82 H                     0.244291      -0.008200
     83 C                     0.106649       0.237077
     84 C                    -0.399184      -0.143603
     85 H                     0.243320       0.005577
     86 C                    -0.126710       0.227302
     87 B                     0.602804       0.207573
     88 C                    -0.198854      -0.018342
     89 C                     0.042568       0.002027
     90 C                    -0.349478      -0.000292
     91 H                     0.244626       0.000268
     92 C                     0.305472      -0.000046
     93 C                    -0.360281      -0.000193
     94 H                     0.244981       0.000259
     95 C                     0.035927       0.001822
     96 N                    -0.734880       0.000018
     97 C                     0.339027      -0.000004
     98 C                     0.334801      -0.000003
     99 C                    -0.292853       0.000001
    100 H                     0.248939       0.000000
    101 C                    -0.253734       0.000001
    102 H                     0.233879      -0.000000
    103 C                    -0.292643       0.000003
    104 H                     0.249244       0.000000
    105 C                    -0.253737       0.000000
    106 H                     0.233633      -0.000000
    107 C                    -0.247073      -0.000000
    108 H                     0.231011       0.000000
    109 C                    -0.358684       0.000002
    110 H                     0.225627      -0.000000
    111 C                     0.088970      -0.000002
    112 C                    -0.247487      -0.000002
    113 H                     0.231107       0.000000
    114 C                    -0.357650       0.000003
    115 H                     0.225683      -0.000000
    116 C                     0.082149      -0.000003
    117 C                    -0.757090       0.001067
    118 H                     0.244386       0.001081
    119 H                     0.245665      -0.000636
    120 H                     0.246460      -0.000517
    121 C                    -0.761811       0.001221
    122 H                     0.246109       0.001212
    123 H                     0.246897      -0.000553
    124 H                     0.248028      -0.000832
  --------------------------------------------------------
  Sum of atomic charges =    -0.000000

                    Cartesian Multipole Moments
 -----------------------------------------------------------------
    Charge (ESU x 10^10)
                -0.0000
    Dipole Moment (Debye)
         X       0.1646      Y       0.3435      Z      -0.1969
       Tot       0.4288
    Quadrupole Moments (Debye-Ang)
        XX    -433.6974     XY     -23.6205     YY    -425.5182
        XZ     -40.3518     YZ      30.5727     ZZ    -378.5745

 Total job time:  23906.91s(wall), 69564.77s(cpu)
        *  Thank you very much for using Q-Chem.  Have a nice day.  *
