 Q-Chem 5.1, Q-Chem, Inc., Pleasanton, CA (2018)
 Q-Chem 5.1.1 for Intel X86 EM64T Linux

User input:
--------------------------------------------------------------
$solvent
dielectric      4.33
dielectric_infi 1.83
$end

$rem
threads 8
jobtype	sp
method PBEh-3c
basis def2-mSVP
mem_static	1024
mem_total	14000
sym_ignore	true
cis_n_roots             2
cis_singlets            false
cis_triplets		true
rpa                     false
calc_soc 		true
cis_moments             true
cis_relaxed_density	true
solvent_method		pcm
$end

$pcm
StateSpecific   1
ChargeSeparation Excited
$end

$molecule
read utleopt_eth.mol
$end

--------------------------------------------------------------

   14   -2925.5558672336      9.08e-09  Convergence criterion met
 Total energy in the final basis set =    -2925.5558672336
 Total job time:  12467.60s(wall), 36323.10s(cpu)
        *  Thank you very much for using Q-Chem.  Have a nice day.  *
 Q-Chem 5.1, Q-Chem, Inc., Pleasanton, CA (2018)
 Q-Chem 5.1.1 for Intel X86 EM64T Linux

User input:
--------------------------------------------------------------
$rem
threads 8
jobtype sp
method PBEh-3c
basis def2-mSVP
mem_static      1024
mem_total       14000
sym_ignore      true
cis_n_roots             6
cis_singlets            true
cis_triplets            true
rpa                     false
calc_soc                true
cis_moments             true
cis_relaxed_density     true
solvent_method          pcm
$end

$molecule
read
$end

$pcm
statespecific           Marcus
$end

$solvent
dielectric      4.33
dielectric_infi 1.83
$end

--------------------------------------------------------------

             Standard Nuclear Orientation (Angstroms)
    I     Atom           X                Y                Z
 ----------------------------------------------------------------
    1      N       0.0000000000     0.0000000000     0.0000000000
    2      C       0.0000000000     0.0000000000     1.3789620000
    3      C       1.3063310808     0.0000000000    -0.4423861879
    4      C       1.8001156838    -0.0369132280    -1.7410714360
    5      H       1.1391927525    -0.0540003242    -2.5975733905
    6      C       3.1751557870    -0.0565124455    -1.9023095991
    7      H       3.5868636424    -0.0855698826    -2.9028774351
    8      C      -1.0736323407    -0.0040811537     2.2640008037
    9      H      -2.0972538350    -0.0127185349     1.9134694411
   10      C      -0.7888403540    -0.0030327690     3.6185884169
   11      H      -1.6066353463    -0.0093002070     4.3277614286
   12      C       0.5277341856     0.0040212317     4.0917634840
   13      H       0.7121105030     0.0023866169     5.1579677902
   14      C       1.5904700833     0.0117645917     3.2070796272
   15      H       2.6102500994     0.0171450155     3.5723051344
   16      C       1.3289233121     0.0089852380     1.8397483605
   17      C       4.0436665127    -0.0446418981    -0.8054904570
   18      H       5.1127426313    -0.0631651743    -0.9714208098
   19      C       3.5460045064    -0.0150493927     0.4844147302
   20      H       4.2170296688    -0.0149805996     1.3348653657
   21      C       2.1672716534     0.0060947467     0.6719402146
   22      C      -1.1582873646    -0.1101110912    -0.8029939435
   23      C      -1.5337120888     0.9245610459    -1.6447033943
   24      H      -0.9221154162     1.8179395220    -1.7008216259
   25      C      -1.9387661407    -1.2526846079    -0.7159270238
   26      H      -1.6281280928    -2.0633969166    -0.0664023403
   27      C      -3.1197584328    -1.3530377502    -1.4403495808
   28      C      -2.7059816098     0.8306842679    -2.3888416608
   29      C      -3.5214594443    -0.3036020586    -2.2800743000
   30      C      -3.1149730955     1.9714799373    -3.2769025728
   31      H      -2.3821985884     2.7776645499    -3.2582760298
   32      H      -3.2289953957     1.6490969744    -4.3135537201
   33      H      -4.0755429351     2.3896453448    -2.9683824610
   34      C      -3.9690352925    -2.5852214751    -1.2997412165
   35      H      -3.4955217151    -3.3249276665    -0.6548532490
   36      H      -4.1556814017    -3.0563993743    -2.2664426111
   37      H      -4.9446467820    -2.3478154467    -0.8697735808
   38      B      -4.9209845411    -0.3867283257    -3.0086327446
   39      C      -5.0808239876    -0.9863009612    -4.4040527327
   40      C      -3.9488942938    -1.4160996839    -5.1168113149
   41      H      -2.9677144052    -1.3254630656    -4.6631675743
   42      C      -4.0852331320    -1.9492129762    -6.3728367155
   43      C      -3.1121176369    -2.4691047337    -7.3060333958
   44      C      -1.7449322449    -2.6284671246    -7.2903705061
   45      H      -1.1447547805    -2.3288308210    -6.4404342505
   46      C      -1.1265211682    -3.2037794896    -8.4193206051
   47      H      -0.0520114618    -3.3329181186    -8.4116855687
   48      C      -1.8394668906    -3.6082098681    -9.5288594411
   49      H      -1.3183573012    -4.0457153747   -10.3714851192
   50      C      -3.8364314631    -2.8868296577    -8.4444163700
   51      C      -3.2476082774    -3.4565412928    -9.5699311899
   52      C      -5.2235644198    -2.6672467548    -8.2953531229
   53      C      -6.0593329550    -3.0296461555    -9.3256272085
   54      H      -7.1307116235    -2.8856058721    -9.2688685049
   55      C      -5.4878188897    -3.6041090773   -10.4814359684
   56      H      -6.1437384035    -3.8885850076   -11.2937398230
   57      C      -4.1319639798    -3.8179074569   -10.6150942121
   58      H      -3.7439683956    -4.2650594566   -11.5219517091
   59      C      -5.4026420132    -2.0753759516    -6.9835399000
   60      C      -6.5186554742    -1.6773349341    -6.2949661847
   61      H      -7.5004216062    -1.7877954164    -6.7411168864
   62      C      -6.4027609092    -1.1288172146    -5.0022617147
   63      C      -6.1737161768     0.0990790524    -2.2760142711
   64      C      -6.0470818311     0.7004997087    -1.0140039976
   65      H      -5.0616503022     0.8466170021    -0.5863139227
   66      C      -7.1602293469     1.0812780215    -0.3133332254
   67      C      -7.3018599948     1.6782732482     0.9940953673
   68      C      -6.4249391892     2.0973192181     1.9690488528
   69      H      -5.3520268893     2.0259482015     1.8412026278
   70      C      -6.9556247748     2.6286293225     3.1623950824
   71      H      -6.2700007400     2.9610277921     3.9309470933
   72      C      -8.3124638227     2.7360824617     3.3858007915
   73      H      -8.6734294185     3.1470135167     4.3205456769
   74      C      -8.6883162168     1.7959992778     1.2263454683
   75      C      -9.2345365708     2.3088801600     2.3999803530
   76      C      -9.4471021283     1.3132909724     0.1366049736
   77      C     -10.8187615918     1.3458780691     0.2324488527
   78      H     -11.4548428183     0.9850577530    -0.5655874327
   79      C     -11.3984687293     1.8617341985     1.4115466493
   80      H     -12.4776083343     1.8854770575     1.4869460826
   81      C     -10.6474723120     2.3321193534     2.4679660293
   82      H     -11.1404006811     2.7163503425     3.3524279210
   83      C      -8.4927864865     0.8592242008    -0.8575380236
   84      C      -8.6356059570     0.2952280008    -2.0998517447
   85      H      -9.6232196900     0.1341100382    -2.5173642943
   86      C      -7.5023027312    -0.0892969001    -2.8448322371
   87      B      -7.6622712430    -0.7205497392    -4.2297230183
   88      C      -9.0852627615    -1.0091792142    -4.8540500316
   89      C      -9.6989356688    -0.1025805001    -5.7276029292
   90      C     -10.9108256081    -0.4244836656    -6.3310987091
   91      H     -11.3680053554     0.2649298932    -7.0315286030
   92      C     -11.5308735733    -1.6342649694    -6.0539481983
   93      C     -10.9445956671    -2.5253894177    -5.1670392529
   94      H     -11.4428416361    -3.4610029007    -4.9415562707
   95      C      -9.7235949846    -2.2253799549    -4.5731253872
   96      N     -12.7490698488    -1.9711094692    -6.6897408312
   97      C     -13.9372129453    -1.2756538238    -6.5969192107
   98      C     -12.9242972907    -3.0221787231    -7.5663893993
   99      C     -14.2330639054    -0.1522040450    -5.8328706420
  100      H     -13.4898594593     0.3105117728    -5.1964787779
  101      C     -15.5164299811     0.3568945461    -5.9176975330
  102      H     -15.7754519604     1.2325900479    -5.3366932239
  103      C     -11.9947221936    -3.9644449096    -7.9943533913
  104      H     -10.9743780856    -3.9571709915    -7.6337627093
  105      C     -12.4216498926    -4.9143176162    -8.9044962218
  106      H     -11.7206188238    -5.6607253768    -9.2554860307
  107      C     -13.7366985010    -4.9282208154    -9.3816164022
  108      H     -14.0372349554    -5.6865323816   -10.0923441079
  109      C     -14.6506517627    -3.9805022938    -8.9572880756
  110      H     -15.6653414154    -3.9888210693    -9.3350597275
  111      C     -14.2456513676    -3.0127036974    -8.0424663628
  112      C     -16.4837546583    -0.2359112487    -6.7365734317
  113      H     -17.4774721831     0.1896031788    -6.7808179805
  114      C     -16.1821053506    -1.3589723936    -7.4858794108
  115      H     -16.9346282789    -1.8171189886    -8.1155830445
  116      C     -14.8975203421    -1.8899657709    -7.4195126200
  117      C      -9.0317162096     1.2083963371    -6.0356847827
  118      H      -9.6357814385     1.8228412969    -6.7025016608
  119      H      -8.8497818274     1.7844604105    -5.1261076200
  120      H      -8.0608919059     1.0582089966    -6.5128463213
  121      C      -9.0907122994    -3.2081921995    -3.6274200563
  122      H      -9.6929206189    -4.1098163878    -3.5180937984
  123      H      -8.9597779918    -2.7758083166    -2.6335569568
  124      H      -8.1000163694    -3.5121167624    -3.9719971496
 ----------------------------------------------------------------

   14   -2925.5557499315      8.95e-09  Convergence criterion met
 Total energy in the final basis set =    -2925.5557499315

         TDDFT/TDA Excitation Energies
 ---------------------------------------------------

 Excited state   1: excitation energy (eV) =    1.9584
 Total energy for state  1:                 -2925.48378020 au
    Multiplicity: Triplet
    Trans. Mom.:  0.0000 X   0.0000 Y   0.0000 Z
    Strength   :     0.0000000000
    D(245) --> V(  2) amplitude =  0.2384
    D(250) --> V(  1) amplitude =  0.9292

 Excited state   2: excitation energy (eV) =    2.3305
 Total energy for state  2:                 -2925.47010602 au
    Multiplicity: Triplet
    Trans. Mom.:  0.0000 X   0.0000 Y   0.0000 Z
    Strength   :     0.0000000000
    D(246) --> V(  2) amplitude = -0.4566
    D(247) --> V(  1) amplitude =  0.8261

 Excited state   3: excitation energy (eV) =    2.4047
 Total energy for state  3:                 -2925.46738034 au
    Multiplicity: Triplet
    Trans. Mom.:  0.0000 X   0.0000 Y   0.0000 Z
    Strength   :     0.0000000000
    D(246) --> V(  1) amplitude =  0.7579
    D(246) --> V(  4) amplitude =  0.2229
    D(247) --> V(  2) amplitude = -0.5271

 Excited state   4: excitation energy (eV) =    2.5113
 Total energy for state  4:                 -2925.46345953 au
    Multiplicity: Triplet
    Trans. Mom.:  0.0000 X   0.0000 Y   0.0000 Z
    Strength   :     0.0000000000
    D(245) --> V(  1) amplitude = -0.7338
    D(250) --> V(  2) amplitude = -0.5498

 Excited state   5: excitation energy (eV) =    2.6172
 Total energy for state  5:                 -2925.45957076 au
    Multiplicity: Singlet
    Trans. Mom.:  0.0548 X  -0.0802 Y  -0.0841 Z
    Strength   :     0.0010576208
    D(250) --> V(  1) amplitude =  0.9681

 Excited state   6: excitation energy (eV) =    2.8873
 Total energy for state  6:                 -2925.44964321 au
    Multiplicity: Triplet
    Trans. Mom.:  0.0000 X   0.0000 Y   0.0000 Z
    Strength   :     0.0000000000
    D(242) --> V(  1) amplitude =  0.3210
    D(251) --> V(  1) amplitude =  0.2987
    D(252) --> V(  1) amplitude =  0.8745

 Excited state   7: excitation energy (eV) =    2.9095
 Total energy for state  7:                 -2925.44882916 au
    Multiplicity: Singlet
    Trans. Mom.:  0.2213 X  -0.1206 Y  -0.2457 Z
    Strength   :     0.0088317084
    D(242) --> V(  1) amplitude =  0.2625
    D(251) --> V(  1) amplitude =  0.2276
    D(252) --> V(  1) amplitude =  0.9174

 Excited state   8: excitation energy (eV) =    2.9504
 Total energy for state  8:                 -2925.44732474 au
    Multiplicity: Triplet
    Trans. Mom.:  0.0000 X   0.0000 Y   0.0000 Z
    Strength   :     0.0000000000
    D(241) --> V(  1) amplitude = -0.2394
    D(251) --> V(  1) amplitude =  0.8906
    D(252) --> V(  1) amplitude = -0.3341

 Excited state   9: excitation energy (eV) =    2.9608
 Total energy for state  9:                 -2925.44694245 au
    Multiplicity: Singlet
    Trans. Mom.:  0.1419 X  -0.1816 Y  -0.3984 Z
    Strength   :     0.0153649850
    D(241) --> V(  1) amplitude = -0.2135
    D(251) --> V(  1) amplitude =  0.9203
    D(252) --> V(  1) amplitude = -0.2515

 Excited state  10: excitation energy (eV) =    3.0289
 Total energy for state 10:                 -2925.44444137 au
    Multiplicity: Singlet
    Trans. Mom.: -1.6705 X   1.6180 Y   3.3630 Z
    Strength   :     1.2405891018
    D(247) --> V(  1) amplitude =  0.9500

 Excited state  11: excitation energy (eV) =    3.5164
 Total energy for state 11:                 -2925.42652529 au
    Multiplicity: Singlet
    Trans. Mom.:  0.0120 X  -0.0029 Y  -0.0123 Z
    Strength   :     0.0000261922
    D(249) --> V(  1) amplitude =  0.9940

 Excited state  12: excitation energy (eV) =    3.5392
 Total energy for state 12:                 -2925.42568741 au
    Multiplicity: Singlet
    Trans. Mom.:  0.0097 X  -0.0071 Y  -0.0083 Z
    Strength   :     0.0000182917
    D(248) --> V(  1) amplitude =  0.9947

 ---------------------------------------------------

                    Orbital Energies (a.u.)
 --------------------------------------------------------------

 Alpha MOs
 -- Occupied --
-14.693 -14.693 -10.495 -10.494 -10.490 -10.490 -10.490 -10.490
-10.471 -10.471 -10.470 -10.469 -10.468 -10.468 -10.468 -10.468
-10.468 -10.468 -10.466 -10.465 -10.465 -10.465 -10.465 -10.464
-10.464 -10.464 -10.463 -10.463 -10.463 -10.463 -10.461 -10.461
-10.460 -10.460 -10.460 -10.460 -10.460 -10.458 -10.453 -10.452
-10.452 -10.452 -10.452 -10.452 -10.451 -10.451 -10.451 -10.451
-10.450 -10.450 -10.450 -10.449 -10.449 -10.449 -10.449 -10.449
-10.449 -10.449 -10.448 -10.448 -10.444 -10.443 -10.443 -10.443
-10.442 -10.442 -10.442 -10.442 -10.435 -10.434 -10.432 -10.432
-10.431 -10.431  -6.951  -6.951  -1.113  -1.113  -1.019  -1.019
 -0.979  -0.979  -0.963  -0.961  -0.954  -0.954  -0.949  -0.949
 -0.937  -0.937  -0.911  -0.901  -0.891  -0.890  -0.881  -0.881
 -0.866  -0.863  -0.857  -0.855  -0.850  -0.850  -0.849  -0.849
 -0.824  -0.819  -0.816  -0.813  -0.812  -0.811  -0.811  -0.803
 -0.776  -0.775  -0.772  -0.772  -0.740  -0.738  -0.734  -0.732
 -0.730  -0.722  -0.701  -0.698  -0.691  -0.690  -0.690  -0.682
 -0.681  -0.672  -0.658  -0.657  -0.652  -0.651  -0.650  -0.647
 -0.645  -0.644  -0.603  -0.599  -0.596  -0.596  -0.594  -0.591
 -0.590  -0.590  -0.586  -0.579  -0.578  -0.575  -0.575  -0.559
 -0.558  -0.553  -0.547  -0.545  -0.530  -0.529  -0.528  -0.523
 -0.521  -0.521  -0.519  -0.514  -0.506  -0.505  -0.504  -0.502
 -0.501  -0.501  -0.497  -0.496  -0.495  -0.494  -0.490  -0.490
 -0.490  -0.489  -0.489  -0.487  -0.482  -0.482  -0.482  -0.481
 -0.476  -0.475  -0.474  -0.471  -0.470  -0.468  -0.467  -0.467
 -0.465  -0.459  -0.445  -0.444  -0.443  -0.442  -0.441  -0.433
 -0.432  -0.428  -0.426  -0.426  -0.426  -0.425  -0.424  -0.419
 -0.418  -0.412  -0.409  -0.408  -0.401  -0.400  -0.400  -0.399
 -0.399  -0.397  -0.396  -0.396  -0.396  -0.394  -0.392  -0.391
 -0.383  -0.380  -0.378  -0.372  -0.371  -0.357  -0.354  -0.346
 -0.334  -0.334  -0.330  -0.323  -0.303  -0.303  -0.300  -0.299
 -0.290  -0.288  -0.287  -0.286  -0.283  -0.267  -0.259  -0.258
 -0.258  -0.255  -0.243  -0.242

          Ground-State Mulliken Net Atomic Charges

     Atom                 Charge (a.u.)
  ----------------------------------------
      1 N                    -0.730879
      2 C                     0.335545
      3 C                     0.338906
      4 C                    -0.300871
      5 H                     0.254909
      6 C                    -0.262086
      7 H                     0.244659
      8 C                    -0.298083
      9 H                     0.255523
     10 C                    -0.261806
     11 H                     0.244629
     12 C                    -0.258082
     13 H                     0.241636
     14 C                    -0.361351
     15 H                     0.237741
     16 C                     0.073221
     17 C                    -0.258123
     18 H                     0.241558
     19 C                    -0.361007
     20 H                     0.237962
     21 C                     0.072718
     22 C                     0.296353
     23 C                    -0.351869
     24 H                     0.251479
     25 C                    -0.351398
     26 H                     0.253510
     27 C                     0.036500
     28 C                     0.042677
     29 C                    -0.211068
     30 C                    -0.767708
     31 H                     0.253904
     32 H                     0.249727
     33 H                     0.250007
     34 C                    -0.772425
     35 H                     0.255793
     36 H                     0.250988
     37 H                     0.251694
     38 B                     0.682036
     39 C                    -0.156790
     40 C                    -0.387467
     41 H                     0.245243
     42 C                     0.072468
     43 C                     0.181896
     44 C                    -0.379633
     45 H                     0.250993
     46 C                    -0.231781
     47 H                     0.256774
     48 C                    -0.343004
     49 H                     0.253748
     50 C                    -0.071104
     51 C                     0.221891
     52 C                     0.188111
     53 C                    -0.385406
     54 H                     0.251634
     55 C                    -0.230693
     56 H                     0.256721
     57 C                    -0.344904
     58 H                     0.253915
     59 C                     0.083451
     60 C                    -0.387936
     61 H                     0.247763
     62 C                    -0.152679
     63 C                    -0.151642
     64 C                    -0.381212
     65 H                     0.248171
     66 C                     0.068342
     67 C                     0.184731
     68 C                    -0.379827
     69 H                     0.251071
     70 C                    -0.232347
     71 H                     0.256901
     72 C                    -0.342133
     73 H                     0.253813
     74 C                    -0.071199
     75 C                     0.222578
     76 C                     0.185476
     77 C                    -0.386517
     78 H                     0.251050
     79 C                    -0.230542
     80 H                     0.256373
     81 C                    -0.345183
     82 H                     0.253973
     83 C                     0.087831
     84 C                    -0.394363
     85 H                     0.245393
     86 C                    -0.158414
     87 B                     0.681885
     88 C                    -0.208336
     89 C                     0.043335
     90 C                    -0.350881
     91 H                     0.253504
     92 C                     0.302860
     93 C                    -0.361369
     94 H                     0.253945
     95 C                     0.035257
     96 N                    -0.732649
     97 C                     0.336466
     98 C                     0.332403
     99 C                    -0.299636
    100 H                     0.256915
    101 C                    -0.262725
    102 H                     0.245103
    103 C                    -0.299197
    104 H                     0.257303
    105 C                    -0.262595
    106 H                     0.245002
    107 C                    -0.257514
    108 H                     0.241462
    109 C                    -0.364899
    110 H                     0.237845
    111 C                     0.080618
    112 C                    -0.257938
    113 H                     0.241500
    114 C                    -0.363957
    115 H                     0.237952
    116 C                     0.074345
    117 C                    -0.768717
    118 H                     0.253991
    119 H                     0.249823
    120 H                     0.250661
    121 C                    -0.773637
    122 H                     0.255786
    123 H                     0.251749
    124 H                     0.251891
  ----------------------------------------
  Sum of atomic charges =    -0.000000

                    Cartesian Multipole Moments
 -----------------------------------------------------------------
    Charge (ESU x 10^10)
                -0.0000
    Dipole Moment (Debye)
         X       0.1703      Y       0.2927      Z      -0.2046
       Tot       0.3956
    Quadrupole Moments (Debye-Ang)
        XX    -424.9184     XY     -20.6316     YY    -425.9798
        XZ     -35.0643     YZ      27.7557     ZZ    -378.1106

 Total job time:  21724.39s(wall), 64956.25s(cpu)
        *  Thank you very much for using Q-Chem.  Have a nice day.  *
