 Q-Chem 5.1, Q-Chem, Inc., Pleasanton, CA (2018)
 Q-Chem 5.1.1 for Intel X86 EM64T Linux

User input:
--------------------------------------------------------------
$solvent
dielectric      4.33
dielectric_infi 1.83
$end

$rem
threads 8
jobtype	sp
method PBEh-3c
basis def2-mSVP
mem_static	1024
mem_total	14000
sym_ignore	true
cis_n_roots             2
cis_singlets            false
cis_triplets		true
rpa                     false
calc_soc 		true
cis_moments             true
cis_relaxed_density	true
solvent_method		pcm
$end

$pcm
StateSpecific   1
ChargeSeparation Excited
$end

$molecule
read utleopt_eth.mol
$end

--------------------------------------------------------------

   27   -2925.4801880874      6.82e-09  Convergence criterion met
 Total energy in the final basis set =    -2925.4801880874
 Total job time:  18292.47s(wall), 69572.21s(cpu)
        *  Thank you very much for using Q-Chem.  Have a nice day.  *
 Q-Chem 5.1, Q-Chem, Inc., Pleasanton, CA (2018)
 Q-Chem 5.1.1 for Intel X86 EM64T Linux

User input:
--------------------------------------------------------------
$rem
threads 8
jobtype sp
method PBEh-3c
basis def2-mSVP
mem_static      1024
mem_total       14000
sym_ignore      true
cis_n_roots             6
cis_singlets            true
cis_triplets            true
rpa                     false
calc_soc                true
cis_moments             true
cis_relaxed_density     true
solvent_method          pcm
$end

$molecule
read
$end

$pcm
statespecific           Marcus
$end

$solvent
dielectric      4.33
dielectric_infi 1.83
$end

--------------------------------------------------------------

             Standard Nuclear Orientation (Angstroms)
    I     Atom           X                Y                Z
 ----------------------------------------------------------------
    1      N       0.0000000000     0.0000000000     0.0000000000
    2      C       0.0000000000     0.0000000000     1.3789620000
    3      C       1.3063310808     0.0000000000    -0.4423861879
    4      C       1.8001156838    -0.0369132280    -1.7410714360
    5      H       1.1391927525    -0.0540003242    -2.5975733905
    6      C       3.1751557870    -0.0565124455    -1.9023095991
    7      H       3.5868636424    -0.0855698826    -2.9028774351
    8      C      -1.0736323407    -0.0040811537     2.2640008037
    9      H      -2.0972538350    -0.0127185349     1.9134694411
   10      C      -0.7888403540    -0.0030327690     3.6185884169
   11      H      -1.6066353463    -0.0093002070     4.3277614286
   12      C       0.5277341856     0.0040212317     4.0917634840
   13      H       0.7121105030     0.0023866169     5.1579677902
   14      C       1.5904700833     0.0117645917     3.2070796272
   15      H       2.6102500994     0.0171450155     3.5723051344
   16      C       1.3289233121     0.0089852380     1.8397483605
   17      C       4.0436665127    -0.0446418981    -0.8054904570
   18      H       5.1127426313    -0.0631651743    -0.9714208098
   19      C       3.5460045064    -0.0150493927     0.4844147302
   20      H       4.2170296688    -0.0149805996     1.3348653657
   21      C       2.1672716534     0.0060947467     0.6719402146
   22      C      -1.1582873646    -0.1101110912    -0.8029939435
   23      C      -1.5337120888     0.9245610459    -1.6447033943
   24      H      -0.9221154162     1.8179395220    -1.7008216259
   25      C      -1.9387661407    -1.2526846079    -0.7159270238
   26      H      -1.6281280928    -2.0633969166    -0.0664023403
   27      C      -3.1197584328    -1.3530377502    -1.4403495808
   28      C      -2.7059816098     0.8306842679    -2.3888416608
   29      C      -3.5214594443    -0.3036020586    -2.2800743000
   30      C      -3.1149730955     1.9714799373    -3.2769025728
   31      H      -2.3821985884     2.7776645499    -3.2582760298
   32      H      -3.2289953957     1.6490969744    -4.3135537201
   33      H      -4.0755429351     2.3896453448    -2.9683824610
   34      C      -3.9690352925    -2.5852214751    -1.2997412165
   35      H      -3.4955217151    -3.3249276665    -0.6548532490
   36      H      -4.1556814017    -3.0563993743    -2.2664426111
   37      H      -4.9446467820    -2.3478154467    -0.8697735808
   38      B      -4.9209845411    -0.3867283257    -3.0086327446
   39      C      -5.0808239876    -0.9863009612    -4.4040527327
   40      C      -3.9488942938    -1.4160996839    -5.1168113149
   41      H      -2.9677144052    -1.3254630656    -4.6631675743
   42      C      -4.0852331320    -1.9492129762    -6.3728367155
   43      C      -3.1121176369    -2.4691047337    -7.3060333958
   44      C      -1.7449322449    -2.6284671246    -7.2903705061
   45      H      -1.1447547805    -2.3288308210    -6.4404342505
   46      C      -1.1265211682    -3.2037794896    -8.4193206051
   47      H      -0.0520114618    -3.3329181186    -8.4116855687
   48      C      -1.8394668906    -3.6082098681    -9.5288594411
   49      H      -1.3183573012    -4.0457153747   -10.3714851192
   50      C      -3.8364314631    -2.8868296577    -8.4444163700
   51      C      -3.2476082774    -3.4565412928    -9.5699311899
   52      C      -5.2235644198    -2.6672467548    -8.2953531229
   53      C      -6.0593329550    -3.0296461555    -9.3256272085
   54      H      -7.1307116235    -2.8856058721    -9.2688685049
   55      C      -5.4878188897    -3.6041090773   -10.4814359684
   56      H      -6.1437384035    -3.8885850076   -11.2937398230
   57      C      -4.1319639798    -3.8179074569   -10.6150942121
   58      H      -3.7439683956    -4.2650594566   -11.5219517091
   59      C      -5.4026420132    -2.0753759516    -6.9835399000
   60      C      -6.5186554742    -1.6773349341    -6.2949661847
   61      H      -7.5004216062    -1.7877954164    -6.7411168864
   62      C      -6.4027609092    -1.1288172146    -5.0022617147
   63      C      -6.1737161768     0.0990790524    -2.2760142711
   64      C      -6.0470818311     0.7004997087    -1.0140039976
   65      H      -5.0616503022     0.8466170021    -0.5863139227
   66      C      -7.1602293469     1.0812780215    -0.3133332254
   67      C      -7.3018599948     1.6782732482     0.9940953673
   68      C      -6.4249391892     2.0973192181     1.9690488528
   69      H      -5.3520268893     2.0259482015     1.8412026278
   70      C      -6.9556247748     2.6286293225     3.1623950824
   71      H      -6.2700007400     2.9610277921     3.9309470933
   72      C      -8.3124638227     2.7360824617     3.3858007915
   73      H      -8.6734294185     3.1470135167     4.3205456769
   74      C      -8.6883162168     1.7959992778     1.2263454683
   75      C      -9.2345365708     2.3088801600     2.3999803530
   76      C      -9.4471021283     1.3132909724     0.1366049736
   77      C     -10.8187615918     1.3458780691     0.2324488527
   78      H     -11.4548428183     0.9850577530    -0.5655874327
   79      C     -11.3984687293     1.8617341985     1.4115466493
   80      H     -12.4776083343     1.8854770575     1.4869460826
   81      C     -10.6474723120     2.3321193534     2.4679660293
   82      H     -11.1404006811     2.7163503425     3.3524279210
   83      C      -8.4927864865     0.8592242008    -0.8575380236
   84      C      -8.6356059570     0.2952280008    -2.0998517447
   85      H      -9.6232196900     0.1341100382    -2.5173642943
   86      C      -7.5023027312    -0.0892969001    -2.8448322371
   87      B      -7.6622712430    -0.7205497392    -4.2297230183
   88      C      -9.0852627615    -1.0091792142    -4.8540500316
   89      C      -9.6989356688    -0.1025805001    -5.7276029292
   90      C     -10.9108256081    -0.4244836656    -6.3310987091
   91      H     -11.3680053554     0.2649298932    -7.0315286030
   92      C     -11.5308735733    -1.6342649694    -6.0539481983
   93      C     -10.9445956671    -2.5253894177    -5.1670392529
   94      H     -11.4428416361    -3.4610029007    -4.9415562707
   95      C      -9.7235949846    -2.2253799549    -4.5731253872
   96      N     -12.7490698488    -1.9711094692    -6.6897408312
   97      C     -13.9372129453    -1.2756538238    -6.5969192107
   98      C     -12.9242972907    -3.0221787231    -7.5663893993
   99      C     -14.2330639054    -0.1522040450    -5.8328706420
  100      H     -13.4898594593     0.3105117728    -5.1964787779
  101      C     -15.5164299811     0.3568945461    -5.9176975330
  102      H     -15.7754519604     1.2325900479    -5.3366932239
  103      C     -11.9947221936    -3.9644449096    -7.9943533913
  104      H     -10.9743780856    -3.9571709915    -7.6337627093
  105      C     -12.4216498926    -4.9143176162    -8.9044962218
  106      H     -11.7206188238    -5.6607253768    -9.2554860307
  107      C     -13.7366985010    -4.9282208154    -9.3816164022
  108      H     -14.0372349554    -5.6865323816   -10.0923441079
  109      C     -14.6506517627    -3.9805022938    -8.9572880756
  110      H     -15.6653414154    -3.9888210693    -9.3350597275
  111      C     -14.2456513676    -3.0127036974    -8.0424663628
  112      C     -16.4837546583    -0.2359112487    -6.7365734317
  113      H     -17.4774721831     0.1896031788    -6.7808179805
  114      C     -16.1821053506    -1.3589723936    -7.4858794108
  115      H     -16.9346282789    -1.8171189886    -8.1155830445
  116      C     -14.8975203421    -1.8899657709    -7.4195126200
  117      C      -9.0317162096     1.2083963371    -6.0356847827
  118      H      -9.6357814385     1.8228412969    -6.7025016608
  119      H      -8.8497818274     1.7844604105    -5.1261076200
  120      H      -8.0608919059     1.0582089966    -6.5128463213
  121      C      -9.0907122994    -3.2081921995    -3.6274200563
  122      H      -9.6929206189    -4.1098163878    -3.5180937984
  123      H      -8.9597779918    -2.7758083166    -2.6335569568
  124      H      -8.1000163694    -3.5121167624    -3.9719971496
 ----------------------------------------------------------------

   29   -2925.4801331303      7.85e-09  Convergence criterion met
 Total energy in the final basis set =    -2925.4801331303

         TDDFT/TDA Excitation Energies
 ---------------------------------------------------

 Excited state   1: excitation energy (eV) =    0.4902
 Total energy for state  1:                 -2925.46211926 au
    <S**2>     :  2.1165
    Trans. Mom.: -0.6769 X   0.6538 Y   1.3386 Z
    Strength   :     0.0321538842
    S(  2) --> V(  1) amplitude =  0.5479 alpha
    D(248) --> S(  1) amplitude =  0.8084 beta

 Excited state   2: excitation energy (eV) =    0.7435
 Total energy for state  2:                 -2925.45281032 au
    <S**2>     :  2.0964
    Trans. Mom.: -0.2964 X  -0.0347 Y  -0.1127 Z
    Strength   :     0.0018538090
    D(236) --> S(  1) amplitude =  0.1752 beta
    D(246) --> S(  1) amplitude =  0.9698 beta

 Excited state   3: excitation energy (eV) =    0.8652
 Total energy for state  3:                 -2925.44833908 au
    <S**2>     :  2.1047
    Trans. Mom.:  0.0982 X   0.0219 Y   0.0533 Z
    Strength   :     0.0002746366
    D(242) --> S(  1) amplitude =  0.2285 beta
    D(245) --> S(  1) amplitude = -0.1544 beta
    D(250) --> S(  1) amplitude =  0.2115 beta
    D(251) --> S(  1) amplitude =  0.9224 beta

 Excited state   4: excitation energy (eV) =    0.9184
 Total energy for state  4:                 -2925.44638220 au
    <S**2>     :  2.0999
    Trans. Mom.:  0.0609 X  -0.0290 Y  -0.0149 Z
    Strength   :     0.0001073664
    D(245) --> S(  1) amplitude =  0.6999 beta
    D(250) --> S(  1) amplitude =  0.6713 beta

 Excited state   5: excitation energy (eV) =    0.9208
 Total energy for state  5:                 -2925.44629549 au
    <S**2>     :  2.1003
    Trans. Mom.: -0.0062 X   0.0304 Y   0.0390 Z
    Strength   :     0.0000560071
    D(245) --> S(  1) amplitude = -0.6606 beta
    D(250) --> S(  1) amplitude =  0.6629 beta
    D(251) --> S(  1) amplitude = -0.2714 beta

 Excited state   6: excitation energy (eV) =    1.4648
 Total energy for state  6:                 -2925.42630118 au
    <S**2>     :  2.1046
    Trans. Mom.: -0.0113 X  -0.0021 Y  -0.0075 Z
    Strength   :     0.0000068259
    D(249) --> S(  1) amplitude =  0.9960 beta

 ---------------------------------------------------

                    Orbital Energies (a.u.)
 --------------------------------------------------------------

 Alpha MOs
 -- Occupied --
-14.691 -14.691 -10.491 -10.490 -10.489 -10.488 -10.488 -10.488
-10.483 -10.483 -10.482 -10.482 -10.472 -10.472 -10.471 -10.471
-10.470 -10.470 -10.469 -10.469 -10.469 -10.469 -10.468 -10.467
-10.467 -10.467 -10.465 -10.465 -10.463 -10.463 -10.463 -10.463
-10.461 -10.460 -10.460 -10.459 -10.458 -10.458 -10.458 -10.457
-10.455 -10.454 -10.453 -10.453 -10.452 -10.451 -10.451 -10.451
-10.450 -10.450 -10.450 -10.450 -10.449 -10.449 -10.448 -10.448
-10.448 -10.448 -10.448 -10.448 -10.445 -10.445 -10.444 -10.444
-10.441 -10.441 -10.441 -10.441 -10.428 -10.428 -10.428 -10.428
-10.427 -10.427  -6.928  -6.927  -1.111  -1.111  -1.028  -1.028
 -0.976  -0.976  -0.971  -0.969  -0.953  -0.953  -0.947  -0.946
 -0.941  -0.941  -0.918  -0.909  -0.889  -0.888  -0.877  -0.876
 -0.870  -0.868  -0.855  -0.854  -0.854  -0.854  -0.848  -0.847
 -0.833  -0.822  -0.820  -0.814  -0.812  -0.811  -0.810  -0.809
 -0.772  -0.771  -0.768  -0.768  -0.743  -0.743  -0.737  -0.732
 -0.730  -0.728  -0.701  -0.697  -0.695  -0.689  -0.689  -0.687
 -0.684  -0.678  -0.656  -0.655  -0.655  -0.653  -0.647  -0.647
 -0.644  -0.643  -0.605  -0.601  -0.598  -0.595  -0.594  -0.593
 -0.589  -0.589  -0.588  -0.583  -0.582  -0.574  -0.573  -0.555
 -0.554  -0.552  -0.550  -0.546  -0.534  -0.532  -0.529  -0.523
 -0.520  -0.520  -0.519  -0.517  -0.510  -0.508  -0.503  -0.502
 -0.501  -0.501  -0.500  -0.500  -0.499  -0.499  -0.493  -0.492
 -0.492  -0.489  -0.489  -0.489  -0.485  -0.480  -0.479  -0.479
 -0.475  -0.474  -0.472  -0.470  -0.467  -0.467  -0.464  -0.464
 -0.464  -0.460  -0.450  -0.447  -0.447  -0.441  -0.440  -0.437
 -0.434  -0.430  -0.428  -0.425  -0.424  -0.424  -0.423  -0.418
 -0.417  -0.415  -0.406  -0.406  -0.406  -0.405  -0.404  -0.401
 -0.400  -0.397  -0.397  -0.397  -0.394  -0.393  -0.392  -0.391
 -0.387  -0.387  -0.376  -0.376  -0.364  -0.363  -0.357  -0.344
 -0.340  -0.333  -0.333  -0.333  -0.309  -0.306  -0.302  -0.302
 -0.300  -0.286  -0.284  -0.283  -0.283  -0.278  -0.277  -0.266
 -0.257  -0.257  -0.242  -0.240  -0.181

 Beta MOs
 -- Occupied --
-14.691 -14.691 -10.491 -10.490 -10.489 -10.488 -10.488 -10.488
-10.480 -10.479 -10.479 -10.478 -10.473 -10.473 -10.473 -10.472
-10.472 -10.471 -10.468 -10.468 -10.467 -10.467 -10.466 -10.465
-10.465 -10.465 -10.464 -10.464 -10.464 -10.464 -10.463 -10.463
-10.463 -10.462 -10.462 -10.460 -10.458 -10.458 -10.457 -10.457
-10.452 -10.451 -10.451 -10.451 -10.451 -10.451 -10.450 -10.450
-10.450 -10.450 -10.450 -10.450 -10.449 -10.449 -10.448 -10.448
-10.448 -10.448 -10.448 -10.448 -10.445 -10.445 -10.444 -10.444
-10.441 -10.441 -10.441 -10.441 -10.428 -10.428 -10.428 -10.428
-10.428 -10.427  -6.926  -6.925  -1.111  -1.111  -1.025  -1.024
 -0.976  -0.976  -0.966  -0.964  -0.953  -0.953  -0.946  -0.946
 -0.939  -0.939  -0.913  -0.905  -0.889  -0.888  -0.877  -0.876
 -0.868  -0.866  -0.854  -0.853  -0.852  -0.852  -0.848  -0.847
 -0.823  -0.821  -0.819  -0.812  -0.811  -0.809  -0.809  -0.803
 -0.771  -0.771  -0.768  -0.768  -0.741  -0.739  -0.734  -0.732
 -0.730  -0.725  -0.699  -0.696  -0.694  -0.689  -0.689  -0.684
 -0.680  -0.673  -0.656  -0.655  -0.654  -0.651  -0.647  -0.646
 -0.644  -0.643  -0.603  -0.598  -0.596  -0.594  -0.593  -0.592
 -0.589  -0.588  -0.588  -0.581  -0.580  -0.573  -0.573  -0.555
 -0.554  -0.551  -0.548  -0.545  -0.533  -0.531  -0.527  -0.523
 -0.520  -0.520  -0.518  -0.515  -0.509  -0.507  -0.502  -0.502
 -0.501  -0.500  -0.499  -0.498  -0.493  -0.492  -0.490  -0.489
 -0.489  -0.489  -0.489  -0.488  -0.484  -0.480  -0.479  -0.479
 -0.475  -0.474  -0.471  -0.470  -0.467  -0.466  -0.464  -0.463
 -0.463  -0.458  -0.447  -0.444  -0.441  -0.439  -0.436  -0.433
 -0.430  -0.425  -0.424  -0.424  -0.424  -0.422  -0.421  -0.417
 -0.417  -0.413  -0.406  -0.405  -0.404  -0.401  -0.401  -0.401
 -0.398  -0.397  -0.397  -0.396  -0.393  -0.393  -0.392  -0.391
 -0.383  -0.377  -0.376  -0.363  -0.362  -0.354  -0.345  -0.342
 -0.333  -0.333  -0.331  -0.326  -0.302  -0.302  -0.301  -0.301
 -0.286  -0.283  -0.283  -0.283  -0.267  -0.261  -0.257  -0.257
 -0.257  -0.241  -0.240

          Ground-State Mulliken Net Atomic Charges

     Atom                 Charge (a.u.)    Spin (a.u.)
  --------------------------------------------------------
      1 N                    -0.729979       0.000016
      2 C                     0.335649      -0.000006
      3 C                     0.338968      -0.000007
      4 C                    -0.300781      -0.000002
      5 H                     0.254963       0.000000
      6 C                    -0.262185       0.000002
      7 H                     0.243984      -0.000000
      8 C                    -0.297901      -0.000001
      9 H                     0.255387       0.000001
     10 C                    -0.261901       0.000002
     11 H                     0.243781      -0.000000
     12 C                    -0.258344      -0.000003
     13 H                     0.241005       0.000000
     14 C                    -0.361474       0.000003
     15 H                     0.237279      -0.000000
     16 C                     0.072822      -0.000003
     17 C                    -0.258369      -0.000003
     18 H                     0.240956       0.000000
     19 C                    -0.361135       0.000003
     20 H                     0.237483      -0.000000
     21 C                     0.072325      -0.000003
     22 C                     0.294646      -0.000231
     23 C                    -0.353679      -0.000121
     24 H                     0.248686       0.000283
     25 C                    -0.353106      -0.000102
     26 H                     0.250720       0.000247
     27 C                     0.033081       0.001761
     28 C                     0.038628       0.001974
     29 C                    -0.200016      -0.018850
     30 C                    -0.760054       0.000840
     31 H                     0.249289       0.001058
     32 H                     0.246419      -0.000548
     33 H                     0.247303      -0.000596
     34 C                    -0.764153       0.001111
     35 H                     0.251188       0.001181
     36 H                     0.247747      -0.000703
     37 H                     0.248081      -0.000685
     38 B                     0.600605       0.214744
     39 C                    -0.127710       0.208460
     40 C                    -0.392496      -0.140212
     41 H                     0.248403       0.005414
     42 C                     0.084546       0.237413
     43 C                     0.182678      -0.113115
     44 C                    -0.383205       0.136781
     45 H                     0.252767      -0.007993
     46 C                    -0.229851      -0.097154
     47 H                     0.258977       0.004642
     48 C                    -0.344625       0.146969
     49 H                     0.255356      -0.008417
     50 C                    -0.060822       0.140107
     51 C                     0.224214      -0.091698
     52 C                     0.188679      -0.113061
     53 C                    -0.389759       0.132280
     54 H                     0.253038      -0.007722
     55 C                    -0.228713      -0.095491
     56 H                     0.258582       0.004599
     57 C                    -0.347500       0.139939
     58 H                     0.255066      -0.008011
     59 C                     0.095376       0.233002
     60 C                    -0.393614      -0.140856
     61 H                     0.251098       0.005436
     62 C                    -0.121738       0.225829
     63 C                    -0.121670       0.213993
     64 C                    -0.386068      -0.142207
     65 H                     0.251644       0.005487
     66 C                     0.080400       0.239614
     67 C                     0.185946      -0.114033
     68 C                    -0.383572       0.137260
     69 H                     0.252911      -0.008023
     70 C                    -0.230289      -0.097513
     71 H                     0.259129       0.004662
     72 C                    -0.343916       0.146994
     73 H                     0.255365      -0.008419
     74 C                    -0.060444       0.141967
     75 C                     0.225020      -0.092259
     76 C                     0.185980      -0.113454
     77 C                    -0.390511       0.132897
     78 H                     0.252593      -0.007769
     79 C                    -0.228591      -0.096002
     80 H                     0.258393       0.004621
     81 C                    -0.347253       0.141161
     82 H                     0.255378      -0.008074
     83 C                     0.101116       0.235861
     84 C                    -0.400024      -0.142268
     85 H                     0.248866       0.005489
     86 C                    -0.127456       0.226256
     87 B                     0.601541       0.207787
     88 C                    -0.197479      -0.018439
     89 C                     0.039241       0.002073
     90 C                    -0.352567      -0.000312
     91 H                     0.250816       0.000269
     92 C                     0.301131      -0.000023
     93 C                    -0.362972      -0.000217
     94 H                     0.251231       0.000259
     95 C                     0.031916       0.001855
     96 N                    -0.731758       0.000016
     97 C                     0.336508      -0.000003
     98 C                     0.332439      -0.000005
     99 C                    -0.299506       0.000001
    100 H                     0.256984       0.000000
    101 C                    -0.262833      -0.000000
    102 H                     0.244441      -0.000000
    103 C                    -0.299073       0.000005
    104 H                     0.257275       0.000000
    105 C                    -0.262708      -0.000004
    106 H                     0.244216      -0.000000
    107 C                    -0.257773       0.000004
    108 H                     0.240834      -0.000000
    109 C                    -0.365028      -0.000002
    110 H                     0.237378       0.000000
    111 C                     0.080221       0.000001
    112 C                    -0.258188       0.000000
    113 H                     0.240895      -0.000000
    114 C                    -0.364088       0.000001
    115 H                     0.237467      -0.000000
    116 C                     0.073952      -0.000003
    117 C                    -0.760875       0.001036
    118 H                     0.249455       0.001075
    119 H                     0.247079      -0.000637
    120 H                     0.247361      -0.000508
    121 C                    -0.765404       0.001208
    122 H                     0.251268       0.001205
    123 H                     0.247977      -0.000547
    124 H                     0.249014      -0.000836
  --------------------------------------------------------
  Sum of atomic charges =    -0.000000

                    Cartesian Multipole Moments
 -----------------------------------------------------------------
    Charge (ESU x 10^10)
                -0.0000
    Dipole Moment (Debye)
         X       0.1672      Y       0.4097      Z      -0.1418
       Tot       0.4647
    Quadrupole Moments (Debye-Ang)
        XX    -430.8321     XY     -24.6556     YY    -425.6296
        XZ     -43.6415     YZ      31.2498     ZZ    -372.9568

 Total job time:  22987.72s(wall), 82643.39s(cpu)
        *  Thank you very much for using Q-Chem.  Have a nice day.  *
