 Q-Chem 5.1, Q-Chem, Inc., Pleasanton, CA (2018)
 Q-Chem 5.1.1 for Intel X86 EM64T Linux

User input:
--------------------------------------------------------------
$solvent
dielectric      2.38
dielectric_infi 2.25
$end

$rem
threads 8
jobtype	sp
method PBEh-3c
basis def2-mSVP
mem_static	1024
mem_total	14000
sym_ignore	true
cis_n_roots             2
cis_singlets            false
cis_triplets		true
rpa                     false
calc_soc 		true
cis_moments             true
cis_relaxed_density	true
solvent_method		pcm
$end

$pcm
StateSpecific   1
ChargeSeparation Excited
$end

$molecule
read utleopt_tol.mol
$end

--------------------------------------------------------------

   27   -2925.4717816464      7.95e-09  Convergence criterion met
 Total energy in the final basis set =    -2925.4717816464

                    Orbital Energies (a.u.)
 --------------------------------------------------------------

 Alpha MOs
 -- Occupied --
-14.690 -14.690 -10.490 -10.490 -10.487 -10.486 -10.486 -10.486
-10.483 -10.482 -10.482 -10.481 -10.472 -10.472 -10.471 -10.471
-10.471 -10.470 -10.470 -10.470 -10.470 -10.470 -10.469 -10.468
-10.468 -10.468 -10.465 -10.465 -10.464 -10.464 -10.464 -10.464
-10.461 -10.460 -10.460 -10.459 -10.458 -10.458 -10.458 -10.457
-10.454 -10.454 -10.453 -10.453 -10.450 -10.449 -10.449 -10.449
-10.448 -10.448 -10.448 -10.448 -10.447 -10.447 -10.447 -10.447
-10.447 -10.446 -10.446 -10.446 -10.445 -10.445 -10.444 -10.444
-10.440 -10.440 -10.440 -10.440 -10.429 -10.429 -10.428 -10.428
-10.428 -10.427  -6.928  -6.927  -1.110  -1.109  -1.028  -1.028
 -0.976  -0.975  -0.971  -0.969  -0.952  -0.951  -0.946  -0.946
 -0.941  -0.941  -0.918  -0.909  -0.888  -0.887  -0.877  -0.877
 -0.870  -0.868  -0.855  -0.855  -0.853  -0.853  -0.846  -0.846
 -0.833  -0.823  -0.821  -0.814  -0.810  -0.809  -0.809  -0.808
 -0.772  -0.771  -0.769  -0.769  -0.743  -0.743  -0.738  -0.731
 -0.730  -0.728  -0.701  -0.697  -0.694  -0.687  -0.687  -0.687
 -0.684  -0.678  -0.656  -0.655  -0.654  -0.653  -0.647  -0.647
 -0.644  -0.643  -0.606  -0.601  -0.599  -0.596  -0.593  -0.593
 -0.590  -0.588  -0.587  -0.584  -0.583  -0.573  -0.572  -0.555
 -0.554  -0.552  -0.551  -0.546  -0.535  -0.533  -0.529  -0.523
 -0.519  -0.519  -0.519  -0.517  -0.511  -0.508  -0.503  -0.501
 -0.501  -0.500  -0.500  -0.499  -0.499  -0.498  -0.493  -0.491
 -0.491  -0.490  -0.487  -0.487  -0.486  -0.480  -0.479  -0.479
 -0.475  -0.475  -0.472  -0.471  -0.468  -0.467  -0.465  -0.464
 -0.464  -0.460  -0.449  -0.449  -0.448  -0.442  -0.441  -0.437
 -0.434  -0.430  -0.429  -0.424  -0.424  -0.424  -0.422  -0.416
 -0.415  -0.415  -0.406  -0.406  -0.406  -0.405  -0.405  -0.402
 -0.400  -0.398  -0.397  -0.396  -0.394  -0.392  -0.392  -0.390
 -0.387  -0.387  -0.375  -0.375  -0.364  -0.363  -0.357  -0.344
 -0.340  -0.333  -0.331  -0.330  -0.309  -0.307  -0.300  -0.300
 -0.299  -0.286  -0.283  -0.283  -0.283  -0.278  -0.277  -0.266
 -0.255  -0.255  -0.240  -0.239  -0.181

 Beta MOs
 -- Occupied --
-14.690 -14.690 -10.490 -10.490 -10.487 -10.486 -10.486 -10.486
-10.480 -10.479 -10.478 -10.478 -10.473 -10.473 -10.473 -10.472
-10.472 -10.471 -10.468 -10.468 -10.468 -10.468 -10.466 -10.466
-10.466 -10.466 -10.465 -10.465 -10.465 -10.465 -10.463 -10.463
-10.463 -10.462 -10.462 -10.460 -10.458 -10.458 -10.457 -10.457
-10.451 -10.451 -10.450 -10.450 -10.449 -10.449 -10.449 -10.449
-10.448 -10.448 -10.448 -10.448 -10.447 -10.447 -10.447 -10.447
-10.447 -10.446 -10.446 -10.446 -10.445 -10.445 -10.444 -10.444
-10.440 -10.440 -10.440 -10.440 -10.429 -10.429 -10.428 -10.428
-10.428 -10.427  -6.926  -6.925  -1.110  -1.109  -1.025  -1.024
 -0.975  -0.975  -0.967  -0.964  -0.952  -0.951  -0.946  -0.945
 -0.940  -0.940  -0.913  -0.906  -0.888  -0.887  -0.877  -0.876
 -0.868  -0.866  -0.854  -0.853  -0.853  -0.852  -0.846  -0.846
 -0.823  -0.821  -0.819  -0.810  -0.809  -0.808  -0.808  -0.804
 -0.772  -0.771  -0.769  -0.768  -0.741  -0.739  -0.735  -0.731
 -0.729  -0.726  -0.699  -0.696  -0.694  -0.687  -0.687  -0.685
 -0.680  -0.674  -0.655  -0.654  -0.654  -0.651  -0.647  -0.646
 -0.643  -0.642  -0.603  -0.598  -0.597  -0.594  -0.593  -0.593
 -0.589  -0.588  -0.587  -0.582  -0.581  -0.573  -0.572  -0.554
 -0.553  -0.551  -0.549  -0.545  -0.534  -0.532  -0.527  -0.522
 -0.519  -0.519  -0.518  -0.516  -0.509  -0.508  -0.502  -0.501
 -0.500  -0.499  -0.499  -0.498  -0.492  -0.491  -0.491  -0.489
 -0.489  -0.489  -0.487  -0.487  -0.485  -0.479  -0.479  -0.479
 -0.475  -0.475  -0.472  -0.471  -0.468  -0.467  -0.464  -0.464
 -0.464  -0.459  -0.448  -0.445  -0.441  -0.440  -0.436  -0.433
 -0.430  -0.424  -0.424  -0.424  -0.423  -0.422  -0.421  -0.416
 -0.415  -0.413  -0.406  -0.405  -0.404  -0.402  -0.401  -0.401
 -0.399  -0.396  -0.396  -0.396  -0.393  -0.392  -0.392  -0.390
 -0.384  -0.376  -0.375  -0.363  -0.362  -0.353  -0.345  -0.342
 -0.331  -0.331  -0.330  -0.326  -0.301  -0.301  -0.300  -0.300
 -0.286  -0.283  -0.283  -0.282  -0.267  -0.261  -0.257  -0.255
 -0.255  -0.240  -0.239

          Ground-State Mulliken Net Atomic Charges

     Atom                 Charge (a.u.)    Spin (a.u.)
  --------------------------------------------------------
      1 N                    -0.732246       0.000016
      2 C                     0.337377      -0.000006
      3 C                     0.340775      -0.000007
      4 C                    -0.295514      -0.000002
      5 H                     0.248771       0.000000
      6 C                    -0.255431       0.000002
      7 H                     0.236250      -0.000000
      8 C                    -0.292886      -0.000001
      9 H                     0.249031       0.000001
     10 C                    -0.255257       0.000002
     11 H                     0.235996      -0.000000
     12 C                    -0.250609      -0.000003
     13 H                     0.233859       0.000000
     14 C                    -0.356719       0.000004
     15 H                     0.228679      -0.000000
     16 C                     0.079006      -0.000003
     17 C                    -0.250606      -0.000003
     18 H                     0.233811       0.000000
     19 C                    -0.356368       0.000003
     20 H                     0.228840      -0.000000
     21 C                     0.078529      -0.000003
     22 C                     0.297833      -0.000230
     23 C                    -0.351704      -0.000128
     24 H                     0.243815       0.000284
     25 C                    -0.351046      -0.000102
     26 H                     0.246468       0.000248
     27 C                     0.036164       0.001745
     28 C                     0.040688       0.001957
     29 C                    -0.200962      -0.018782
     30 C                    -0.757264       0.000867
     31 H                     0.245487       0.001064
     32 H                     0.245563      -0.000559
     33 H                     0.246511      -0.000591
     34 C                    -0.761697       0.001123
     35 H                     0.247514       0.001185
     36 H                     0.247144      -0.000698
     37 H                     0.247364      -0.000693
     38 B                     0.601054       0.214509
     39 C                    -0.126754       0.208397
     40 C                    -0.391699      -0.140183
     41 H                     0.244076       0.005435
     42 C                     0.088819       0.236936
     43 C                     0.186893      -0.113138
     44 C                    -0.380431       0.136451
     45 H                     0.244873      -0.008016
     46 C                    -0.223168      -0.096940
     47 H                     0.251770       0.004660
     48 C                    -0.341641       0.146386
     49 H                     0.247249      -0.008436
     50 C                    -0.060142       0.140076
     51 C                     0.232112      -0.091627
     52 C                     0.193133      -0.112984
     53 C                    -0.387034       0.132158
     54 H                     0.245793      -0.007753
     55 C                    -0.221886      -0.095366
     56 H                     0.251695       0.004617
     57 C                    -0.344377       0.139780
     58 H                     0.247042      -0.008052
     59 C                     0.099793       0.232708
     60 C                    -0.392699      -0.140779
     61 H                     0.247365       0.005451
     62 C                    -0.120818       0.224881
     63 C                    -0.120845       0.215170
     64 C                    -0.385148      -0.143195
     65 H                     0.247563       0.005553
     66 C                     0.084243       0.240480
     67 C                     0.190062      -0.114770
     68 C                    -0.381024       0.138178
     69 H                     0.245309      -0.008117
     70 C                    -0.223696      -0.098070
     71 H                     0.252104       0.004716
     72 C                    -0.341042       0.147623
     73 H                     0.247228      -0.008509
     74 C                    -0.059911       0.142439
     75 C                     0.232854      -0.092802
     76 C                     0.190259      -0.114137
     77 C                    -0.387863       0.133914
     78 H                     0.244903      -0.007869
     79 C                    -0.221706      -0.096601
     80 H                     0.251356       0.004675
     81 C                    -0.344319       0.142013
     82 H                     0.247311      -0.008174
     83 C                     0.105278       0.236935
     84 C                    -0.399496      -0.143293
     85 H                     0.244728       0.005556
     86 C                    -0.126745       0.227017
     87 B                     0.601641       0.207893
     88 C                    -0.198318      -0.018417
     89 C                     0.041587       0.002065
     90 C                    -0.350421      -0.000324
     91 H                     0.246293       0.000270
     92 C                     0.304323      -0.000013
     93 C                    -0.361051      -0.000227
     94 H                     0.246669       0.000261
     95 C                     0.034854       0.001859
     96 N                    -0.734028       0.000015
     97 C                     0.338384      -0.000005
     98 C                     0.334128      -0.000006
     99 C                    -0.294669       0.000006
    100 H                     0.251095      -0.000000
    101 C                    -0.256228      -0.000004
    102 H                     0.236754      -0.000000
    103 C                    -0.294379       0.000010
    104 H                     0.251407      -0.000000
    105 C                    -0.256198      -0.000007
    106 H                     0.236520       0.000000
    107 C                    -0.249973       0.000008
    108 H                     0.233686      -0.000001
    109 C                    -0.360428      -0.000005
    110 H                     0.228818       0.000000
    111 C                     0.086716       0.000002
    112 C                    -0.250389       0.000004
    113 H                     0.233772      -0.000000
    114 C                    -0.359405      -0.000002
    115 H                     0.228884      -0.000000
    116 C                     0.079958      -0.000001
    117 C                    -0.758280       0.001059
    118 H                     0.245732       0.001083
    119 H                     0.246055      -0.000636
    120 H                     0.246795      -0.000517
    121 C                    -0.762870       0.001210
    122 H                     0.247440       0.001211
    123 H                     0.247227      -0.000552
    124 H                     0.248310      -0.000830
  --------------------------------------------------------
  Sum of atomic charges =    -0.000000

                    Cartesian Multipole Moments
 -----------------------------------------------------------------
    Charge (ESU x 10^10)
                -0.0000
    Dipole Moment (Debye)
         X       0.1640      Y       0.3457      Z      -0.1890
       Tot       0.4268
    Quadrupole Moments (Debye-Ang)
        XX    -432.8301     XY     -23.8359     YY    -425.5072
        XZ     -41.2907     YZ      30.8848     ZZ    -376.8306

 Total job time:  23323.10s(wall), 86073.24s(cpu)
        *  Thank you very much for using Q-Chem.  Have a nice day.  *
 Q-Chem 5.1, Q-Chem, Inc., Pleasanton, CA (2018)
 Q-Chem 5.1.1 for Intel X86 EM64T Linux

User input:
--------------------------------------------------------------
$rem
threads 8
jobtype sp
method PBEh-3c
basis def2-mSVP
mem_static      1024
mem_total       14000
sym_ignore      true
cis_n_roots             6
cis_singlets            true
cis_triplets            true
rpa                     false
calc_soc                true
cis_moments             true
cis_relaxed_density     true
solvent_method          pcm
$end

$molecule
read
$end

$pcm
statespecific           Marcus
$end

$solvent
dielectric      2.38
dielectric_infi 2.25
$end

--------------------------------------------------------------

             Standard Nuclear Orientation (Angstroms)
    I     Atom           X                Y                Z
 ----------------------------------------------------------------
    1      N       0.0000000000     0.0000000000     0.0000000000
    2      C       0.0000000000     0.0000000000     1.3790950000
    3      C       1.3065820258     0.0000000000    -0.4422655368
    4      C       1.8003821468    -0.0371672876    -1.7405106067
    5      H       1.1389519862    -0.0548846442    -2.5965095210
    6      C       3.1751134600    -0.0571725219    -1.9016873685
    7      H       3.5870172792    -0.0864509214    -2.9021107687
    8      C      -1.0733098408    -0.0035023886     2.2640244138
    9      H      -2.0965862771    -0.0119879389     1.9126772848
   10      C      -0.7888826396    -0.0022618902     3.6183737896
   11      H      -1.6066680660    -0.0083684510     4.3275088645
   12      C       0.5271972506     0.0045811221     4.0914174022
   13      H       0.7117298005     0.0031836729     5.1575209315
   14      C       1.5894716575     0.0117420755     3.2066885702
   15      H       2.6090395425     0.0169913605     3.5723093121
   16      C       1.3286276459     0.0086968228     1.8396501892
   17      C       4.0431449794    -0.0455981198    -0.8051246962
   18      H       5.1121848692    -0.0644301902    -0.9707774549
   19      C       3.5452267352    -0.0159306842     0.4842949627
   20      H       4.2163436521    -0.0162417882     1.3345737727
   21      C       2.1669678136     0.0057977553     0.6720617474
   22      C      -1.1578182840    -0.1088982213    -0.8026335982
   23      C      -1.5257887835     0.9207886635    -1.6536587722
   24      H      -0.9082088542     1.8096113030    -1.7154902294
   25      C      -1.9467087530    -1.2449240137    -0.7069660645
   26      H      -1.6411870916    -2.0522447861    -0.0509396539
   27      C      -3.1279391704    -1.3430318921    -1.4308053513
   28      C      -2.6976832184     0.8287334080    -2.3981739740
   29      C      -3.5215419712    -0.2983498687    -2.2800113440
   30      C      -3.0984880899     1.9644002508    -3.2965354895
   31      H      -2.3589707656     2.7645896646    -3.2873185082
   32      H      -3.2174822576     1.6332417204    -4.3298203725
   33      H      -4.0548101733     2.3939734441    -2.9905915030
   34      C      -3.9866597792    -2.5674252624    -1.2801891905
   35      H      -3.5202556531    -3.3046471322    -0.6273064095
   36      H      -4.1747200749    -3.0465770084    -2.2426380717
   37      H      -4.9613955462    -2.3187431297    -0.8547064070
   38      B      -4.9213817230    -0.3771816635    -3.0079956727
   39      C      -5.0865589169    -0.9924931414    -4.3957806795
   40      C      -3.9589983207    -1.4447568682    -5.1013023780
   41      H      -2.9781947892    -1.3598292947    -4.6456607549
   42      C      -4.0998494567    -1.9917247531    -6.3506049700
   43      C      -3.1319723388    -2.5351826731    -7.2758072749
   44      C      -1.7672638374    -2.7120168535    -7.2558705863
   45      H      -1.1647677729    -2.4104663193    -6.4083124099
   46      C      -1.1542589491    -3.3082202185    -8.3765007726
   47      H      -0.0815558632    -3.4511587949    -8.3652507147
   48      C      -1.8701932971    -3.7161867411    -9.4823844991
   49      H      -1.3529108843    -4.1700139860   -10.3186811317
   50      C      -3.8593199768    -2.9570555928    -8.4104695538
   51      C      -3.2758922349    -3.5471657106    -9.5281217108
   52      C      -5.2436112085    -2.7181214778    -8.2663882866
   53      C      -6.0817741651    -3.0815269454    -9.2940418393
   54      H      -7.1512550655    -2.9228911211    -9.2412332726
   55      C      -5.5158865772    -3.6763098271   -10.4418971663
   56      H      -6.1738919360    -3.9614443724   -11.2522368083
   57      C      -4.1629767114    -3.9090023803   -10.5703867436
   58      H      -3.7795248206    -4.3714124101   -11.4714744945
   59      C      -5.4175967076    -2.1088454484    -6.9619830998
   60      C      -6.5295518296    -1.6893984927    -6.2799155938
   61      H      -7.5126548763    -1.7932449046    -6.7247527014
   62      C      -6.4089763909    -1.1269286366    -4.9938380502
   63      C      -6.1696440521     0.1291260762    -2.2819092177
   64      C      -6.0378014388     0.7424181109    -1.0262985691
   65      H      -5.0505191036     0.8826178868    -0.6008538926
   66      C      -7.1472891243     1.1407304175    -0.3300404408
   67      C      -7.2837383096     1.7522091341     0.9711711061
   68      C      -6.4033935415     2.1738160630     1.9415712067
   69      H      -5.3311712231     2.0926846507     1.8141055892
   70      C      -6.9289843876     2.7213116486     3.1294586166
   71      H      -6.2403984796     3.0558524905     3.8943808530
   72      C      -8.2844907683     2.8420701319     3.3520642770
   73      H      -8.6413474371     3.2652717480     4.2828770327
   74      C      -8.6688658799     1.8840110776     1.2025651112
   75      C      -9.2103823710     2.4129391357     2.3711194962
   76      C      -9.4316794616     1.3969089571     0.1178013804
   77      C     -10.8027340730     1.4417591398     0.2140016321
   78      H     -11.4421375911     1.0781213225    -0.5800351815
   79      C     -11.3777917983     1.9737696516     1.3877861769
   80      H     -12.4566429903     2.0069586415     1.4633590052
   81      C     -10.6227549090     2.4483345105     2.4390087955
   82      H     -11.1125627604     2.8451659235     3.3196052497
   83      C      -8.4816064993     0.9249647192    -0.8720230585
   84      C      -8.6291597089     0.3502020768    -2.1086627519
   85      H      -9.6174527720     0.1934343168    -2.5263199576
   86      C      -7.4994402241    -0.0521639179    -2.8493584021
   87      B      -7.6647441709    -0.6954883710    -4.2279471665
   88      C      -9.0894953813    -0.9730156245    -4.8528895087
   89      C      -9.6885541414    -0.0683748192    -5.7384078097
   90      C     -10.9011034886    -0.3823247711    -6.3441513903
   91      H     -11.3467102990     0.3038732553    -7.0550187093
   92      C     -11.5373769858    -1.5813799808    -6.0574433345
   93      C     -10.9657547990    -2.4693106750    -5.1579583066
   94      H     -11.4774458701    -3.3955824628    -4.9244667213
   95      C      -9.7438290690    -2.1781557792    -4.5621191676
   96      N     -12.7553175209    -1.9110415320    -6.6960275435
   97      C     -13.9329341860    -1.1949335862    -6.6267645679
   98      C     -12.9390777170    -2.9733834922    -7.5575264883
   99      C     -14.2178878652    -0.0548158910    -5.8841658575
  100      H     -13.4733231100     0.4048239699    -5.2472627564
  101      C     -15.4912886230     0.4739913435    -5.9907425414
  102      H     -15.7418199293     1.3631243650    -5.4267566114
  103      C     -12.0207806630    -3.9366486815    -7.9614004056
  104      H     -11.0041605200    -3.9389631487    -7.5905573304
  105      C     -12.4535975281    -4.8935211268    -8.8608854300
  106      H     -11.7613579951    -5.6564664953    -9.1931398238
  107      C     -13.7634091106    -4.8937835279    -9.3509888820
  108      H     -14.0691632409    -5.6580772091   -10.0529161784
  109      C     -14.6657448060    -3.9251961016    -8.9506334169
  110      H     -15.6764431009    -3.9235004621    -9.3388587062
  111      C     -14.2549655849    -2.9499199123    -8.0470588704
  112      C     -16.4594844914    -0.1159268105    -6.8098285392
  113      H     -17.4454183656     0.3250492051    -6.8715636616
  114      C     -16.1687499872    -1.2556940085    -7.5372753960
  115      H     -16.9225335714    -1.7113197364    -8.1671661018
  116      C     -14.8944500898    -1.8068344261    -7.4491328419
  117      C      -9.0037415527     1.2309971433    -6.0568645773
  118      H      -9.5961266461     1.8456613489    -6.7339331734
  119      H      -8.8201635082     1.8148839820    -5.1526684457
  120      H      -8.0319802396     1.0643171608    -6.5264823244
  121      C      -9.1258698981    -3.1585008870    -3.6040942356
  122      H      -9.7405656466    -4.0503654947    -3.4845242669
  123      H      -8.9894620669    -2.7165770466    -2.6152387127
  124      H      -8.1393558058    -3.4804778392    -3.9441650000
 ----------------------------------------------------------------

   50   -2925.4529719380      7.10e-09  Convergence criterion met
 Total energy in the final basis set =    -2925.4529719380

         TDDFT/TDA Excitation Energies
 ---------------------------------------------------

 Excited state   1: excitation energy (eV) =   -0.1733
 Total energy for state  1:                 -2925.45933945 au
    <S**2>     :  2.0830
    Trans. Mom.:  0.3074 X   0.0647 Y   0.1522 Z
    Strength   :    -0.0005172716
    D(251) --> S(  1) amplitude =  0.9987 beta

 Excited state   2: excitation energy (eV) =    0.2883
 Total energy for state  2:                 -2925.44237733 au
    <S**2>     :  2.0747
    Trans. Mom.: -0.4027 X  -0.0395 Y  -0.0975 Z
    Strength   :     0.0012237814
    D(249) --> S(  1) amplitude =  0.9825 beta

 Excited state   3: excitation energy (eV) =    0.3806
 Total energy for state  3:                 -2925.43898353 au
    <S**2>     :  2.0834
    Trans. Mom.:  0.5238 X   0.0862 Y   0.2837 Z
    Strength   :     0.0033786579
    D(250) --> S(  1) amplitude =  0.9870 beta

 Excited state   4: excitation energy (eV) =    0.4633
 Total energy for state  4:                 -2925.43594530 au
    <S**2>     :  2.0731
    Trans. Mom.:  0.2666 X  -0.0063 Y  -0.0045 Z
    Strength   :     0.0008073269
    D(248) --> S(  1) amplitude =  0.9910 beta

 Excited state   5: excitation energy (eV) =    0.6439
 Total energy for state  5:                 -2925.42931058 au
    <S**2>     :  2.0811
    Trans. Mom.: -0.0013 X  -0.0461 Y  -0.0973 Z
    Strength   :     0.0001828346
    D(246) --> S(  1) amplitude =  0.9969 beta

 Excited state   6: excitation energy (eV) =    0.8819
 Total energy for state  6:                 -2925.42056181 au
    <S**2>     :  2.0835
    Trans. Mom.: -0.0163 X  -0.0036 Y  -0.0096 Z
    Strength   :     0.0000079937
    D(247) --> S(  1) amplitude =  0.9999 beta

 ---------------------------------------------------
