 Q-Chem 5.1, Q-Chem, Inc., Pleasanton, CA (2018)
 Q-Chem 5.1.1 for Intel X86 EM64T Linux

User input:
--------------------------------------------------------------
$solvent
dielectric      2.38
dielectric_infi 2.25
$end

$rem
threads 8
jobtype	sp
method PBEh-3c
basis def2-mSVP
mem_static	1024
mem_total	14000
sym_ignore	true
cis_n_roots             2
cis_singlets            false
cis_triplets		true
rpa                     false
calc_soc 		true
cis_moments             true
cis_relaxed_density	true
solvent_method		pcm
$end

$pcm
StateSpecific   1
ChargeSeparation Excited
$end

$molecule
read utleopt_tol.mol
$end

--------------------------------------------------------------

   14   -2925.5472451719      9.32e-09  Convergence criterion met
 Total energy in the final basis set =    -2925.5472451719
 Total job time:  12551.17s(wall), 36489.86s(cpu)
        *  Thank you very much for using Q-Chem.  Have a nice day.  *
 Q-Chem 5.1, Q-Chem, Inc., Pleasanton, CA (2018)
 Q-Chem 5.1.1 for Intel X86 EM64T Linux

User input:
--------------------------------------------------------------
$rem
threads 8
jobtype sp
method PBEh-3c
basis def2-mSVP
mem_static      1024
mem_total       14000
sym_ignore      true
cis_n_roots             6
cis_singlets            true
cis_triplets            true
rpa                     false
calc_soc                true
cis_moments             true
cis_relaxed_density     true
solvent_method          pcm
max_scf_cycles		200
$end

$molecule
read
$end

$pcm
statespecific           Marcus
$end

$solvent
dielectric      2.38
dielectric_infi 2.25
$end

--------------------------------------------------------------

             Standard Nuclear Orientation (Angstroms)
    I     Atom           X                Y                Z
 ----------------------------------------------------------------
    1      N       0.0000000000     0.0000000000     0.0000000000
    2      C       0.0000000000     0.0000000000     1.3790950000
    3      C       1.3065820258     0.0000000000    -0.4422655368
    4      C       1.8003821468    -0.0371672876    -1.7405106067
    5      H       1.1389519862    -0.0548846442    -2.5965095210
    6      C       3.1751134600    -0.0571725219    -1.9016873685
    7      H       3.5870172792    -0.0864509214    -2.9021107687
    8      C      -1.0733098408    -0.0035023886     2.2640244138
    9      H      -2.0965862771    -0.0119879389     1.9126772848
   10      C      -0.7888826396    -0.0022618902     3.6183737896
   11      H      -1.6066680660    -0.0083684510     4.3275088645
   12      C       0.5271972506     0.0045811221     4.0914174022
   13      H       0.7117298005     0.0031836729     5.1575209315
   14      C       1.5894716575     0.0117420755     3.2066885702
   15      H       2.6090395425     0.0169913605     3.5723093121
   16      C       1.3286276459     0.0086968228     1.8396501892
   17      C       4.0431449794    -0.0455981198    -0.8051246962
   18      H       5.1121848692    -0.0644301902    -0.9707774549
   19      C       3.5452267352    -0.0159306842     0.4842949627
   20      H       4.2163436521    -0.0162417882     1.3345737727
   21      C       2.1669678136     0.0057977553     0.6720617474
   22      C      -1.1578182840    -0.1088982213    -0.8026335982
   23      C      -1.5257887835     0.9207886635    -1.6536587722
   24      H      -0.9082088542     1.8096113030    -1.7154902294
   25      C      -1.9467087530    -1.2449240137    -0.7069660645
   26      H      -1.6411870916    -2.0522447861    -0.0509396539
   27      C      -3.1279391704    -1.3430318921    -1.4308053513
   28      C      -2.6976832184     0.8287334080    -2.3981739740
   29      C      -3.5215419712    -0.2983498687    -2.2800113440
   30      C      -3.0984880899     1.9644002508    -3.2965354895
   31      H      -2.3589707656     2.7645896646    -3.2873185082
   32      H      -3.2174822576     1.6332417204    -4.3298203725
   33      H      -4.0548101733     2.3939734441    -2.9905915030
   34      C      -3.9866597792    -2.5674252624    -1.2801891905
   35      H      -3.5202556531    -3.3046471322    -0.6273064095
   36      H      -4.1747200749    -3.0465770084    -2.2426380717
   37      H      -4.9613955462    -2.3187431297    -0.8547064070
   38      B      -4.9213817230    -0.3771816635    -3.0079956727
   39      C      -5.0865589169    -0.9924931414    -4.3957806795
   40      C      -3.9589983207    -1.4447568682    -5.1013023780
   41      H      -2.9781947892    -1.3598292947    -4.6456607549
   42      C      -4.0998494567    -1.9917247531    -6.3506049700
   43      C      -3.1319723388    -2.5351826731    -7.2758072749
   44      C      -1.7672638374    -2.7120168535    -7.2558705863
   45      H      -1.1647677729    -2.4104663193    -6.4083124099
   46      C      -1.1542589491    -3.3082202185    -8.3765007726
   47      H      -0.0815558632    -3.4511587949    -8.3652507147
   48      C      -1.8701932971    -3.7161867411    -9.4823844991
   49      H      -1.3529108843    -4.1700139860   -10.3186811317
   50      C      -3.8593199768    -2.9570555928    -8.4104695538
   51      C      -3.2758922349    -3.5471657106    -9.5281217108
   52      C      -5.2436112085    -2.7181214778    -8.2663882866
   53      C      -6.0817741651    -3.0815269454    -9.2940418393
   54      H      -7.1512550655    -2.9228911211    -9.2412332726
   55      C      -5.5158865772    -3.6763098271   -10.4418971663
   56      H      -6.1738919360    -3.9614443724   -11.2522368083
   57      C      -4.1629767114    -3.9090023803   -10.5703867436
   58      H      -3.7795248206    -4.3714124101   -11.4714744945
   59      C      -5.4175967076    -2.1088454484    -6.9619830998
   60      C      -6.5295518296    -1.6893984927    -6.2799155938
   61      H      -7.5126548763    -1.7932449046    -6.7247527014
   62      C      -6.4089763909    -1.1269286366    -4.9938380502
   63      C      -6.1696440521     0.1291260762    -2.2819092177
   64      C      -6.0378014388     0.7424181109    -1.0262985691
   65      H      -5.0505191036     0.8826178868    -0.6008538926
   66      C      -7.1472891243     1.1407304175    -0.3300404408
   67      C      -7.2837383096     1.7522091341     0.9711711061
   68      C      -6.4033935415     2.1738160630     1.9415712067
   69      H      -5.3311712231     2.0926846507     1.8141055892
   70      C      -6.9289843876     2.7213116486     3.1294586166
   71      H      -6.2403984796     3.0558524905     3.8943808530
   72      C      -8.2844907683     2.8420701319     3.3520642770
   73      H      -8.6413474371     3.2652717480     4.2828770327
   74      C      -8.6688658799     1.8840110776     1.2025651112
   75      C      -9.2103823710     2.4129391357     2.3711194962
   76      C      -9.4316794616     1.3969089571     0.1178013804
   77      C     -10.8027340730     1.4417591398     0.2140016321
   78      H     -11.4421375911     1.0781213225    -0.5800351815
   79      C     -11.3777917983     1.9737696516     1.3877861769
   80      H     -12.4566429903     2.0069586415     1.4633590052
   81      C     -10.6227549090     2.4483345105     2.4390087955
   82      H     -11.1125627604     2.8451659235     3.3196052497
   83      C      -8.4816064993     0.9249647192    -0.8720230585
   84      C      -8.6291597089     0.3502020768    -2.1086627519
   85      H      -9.6174527720     0.1934343168    -2.5263199576
   86      C      -7.4994402241    -0.0521639179    -2.8493584021
   87      B      -7.6647441709    -0.6954883710    -4.2279471665
   88      C      -9.0894953813    -0.9730156245    -4.8528895087
   89      C      -9.6885541414    -0.0683748192    -5.7384078097
   90      C     -10.9011034886    -0.3823247711    -6.3441513903
   91      H     -11.3467102990     0.3038732553    -7.0550187093
   92      C     -11.5373769858    -1.5813799808    -6.0574433345
   93      C     -10.9657547990    -2.4693106750    -5.1579583066
   94      H     -11.4774458701    -3.3955824628    -4.9244667213
   95      C      -9.7438290690    -2.1781557792    -4.5621191676
   96      N     -12.7553175209    -1.9110415320    -6.6960275435
   97      C     -13.9329341860    -1.1949335862    -6.6267645679
   98      C     -12.9390777170    -2.9733834922    -7.5575264883
   99      C     -14.2178878652    -0.0548158910    -5.8841658575
  100      H     -13.4733231100     0.4048239699    -5.2472627564
  101      C     -15.4912886230     0.4739913435    -5.9907425414
  102      H     -15.7418199293     1.3631243650    -5.4267566114
  103      C     -12.0207806630    -3.9366486815    -7.9614004056
  104      H     -11.0041605200    -3.9389631487    -7.5905573304
  105      C     -12.4535975281    -4.8935211268    -8.8608854300
  106      H     -11.7613579951    -5.6564664953    -9.1931398238
  107      C     -13.7634091106    -4.8937835279    -9.3509888820
  108      H     -14.0691632409    -5.6580772091   -10.0529161784
  109      C     -14.6657448060    -3.9251961016    -8.9506334169
  110      H     -15.6764431009    -3.9235004621    -9.3388587062
  111      C     -14.2549655849    -2.9499199123    -8.0470588704
  112      C     -16.4594844914    -0.1159268105    -6.8098285392
  113      H     -17.4454183656     0.3250492051    -6.8715636616
  114      C     -16.1687499872    -1.2556940085    -7.5372753960
  115      H     -16.9225335714    -1.7113197364    -8.1671661018
  116      C     -14.8944500898    -1.8068344261    -7.4491328419
  117      C      -9.0037415527     1.2309971433    -6.0568645773
  118      H      -9.5961266461     1.8456613489    -6.7339331734
  119      H      -8.8201635082     1.8148839820    -5.1526684457
  120      H      -8.0319802396     1.0643171608    -6.5264823244
  121      C      -9.1258698981    -3.1585008870    -3.6040942356
  122      H      -9.7405656466    -4.0503654947    -3.4845242669
  123      H      -8.9894620669    -2.7165770466    -2.6152387127
  124      H      -8.1393558058    -3.4804778392    -3.9441650000
 ----------------------------------------------------------------

   14   -2925.5472363039      9.30e-09  Convergence criterion met
 Total energy in the final basis set =    -2925.5472363039

         TDDFT/TDA Excitation Energies
 ---------------------------------------------------

 Excited state   1: excitation energy (eV) =    1.9558
 Total energy for state  1:                 -2925.47536338 au
    Multiplicity: Triplet
    Trans. Mom.:  0.0000 X   0.0000 Y   0.0000 Z
    Strength   :     0.0000000000
    D(245) --> V(  2) amplitude =  0.2393
    D(249) --> V(  1) amplitude = -0.2134
    D(250) --> V(  1) amplitude =  0.9046

 Excited state   2: excitation energy (eV) =    2.3341
 Total energy for state  2:                 -2925.46146134 au
    Multiplicity: Triplet
    Trans. Mom.:  0.0000 X   0.0000 Y   0.0000 Z
    Strength   :     0.0000000000
    D(246) --> V(  2) amplitude =  0.4595
    D(247) --> V(  1) amplitude =  0.8243

 Excited state   3: excitation energy (eV) =    2.4068
 Total energy for state  3:                 -2925.45878627 au
    Multiplicity: Triplet
    Trans. Mom.:  0.0000 X   0.0000 Y   0.0000 Z
    Strength   :     0.0000000000
    D(246) --> V(  1) amplitude = -0.7552
    D(246) --> V(  4) amplitude =  0.2237
    D(247) --> V(  2) amplitude = -0.5302

 Excited state   4: excitation energy (eV) =    2.5069
 Total energy for state  4:                 -2925.45510888 au
    Multiplicity: Triplet
    Trans. Mom.:  0.0000 X   0.0000 Y   0.0000 Z
    Strength   :     0.0000000000
    D(245) --> V(  1) amplitude =  0.7322
    D(250) --> V(  2) amplitude =  0.5380

 Excited state   5: excitation energy (eV) =    2.6133
 Total energy for state  5:                 -2925.45120009 au
    Multiplicity: Singlet
    Trans. Mom.:  0.0554 X  -0.0847 Y  -0.0833 Z
    Strength   :     0.0010996098
    D(249) --> V(  1) amplitude = -0.2219
    D(250) --> V(  1) amplitude =  0.9433

 Excited state   6: excitation energy (eV) =    2.8378
 Total energy for state  6:                 -2925.44295005 au
    Multiplicity: Triplet
    Trans. Mom.:  0.0000 X   0.0000 Y   0.0000 Z
    Strength   :     0.0000000000
    D(242) --> V(  1) amplitude = -0.3002
    D(251) --> V(  1) amplitude =  0.2908
    D(252) --> V(  1) amplitude =  0.8868

 Excited state   7: excitation energy (eV) =    2.8578
 Total energy for state  7:                 -2925.44221461 au
    Multiplicity: Singlet
    Trans. Mom.:  0.1854 X  -0.0850 Y  -0.1607 Z
    Strength   :     0.0047224134
    D(242) --> V(  1) amplitude = -0.2468
    D(251) --> V(  1) amplitude =  0.2176
    D(252) --> V(  1) amplitude =  0.9270

 Excited state   8: excitation energy (eV) =    2.8963
 Total energy for state  8:                 -2925.44080054 au
    Multiplicity: Triplet
    Trans. Mom.:  0.0000 X   0.0000 Y   0.0000 Z
    Strength   :     0.0000000000
    D(241) --> V(  1) amplitude = -0.2269
    D(251) --> V(  1) amplitude =  0.9007
    D(252) --> V(  1) amplitude = -0.3210

 Excited state   9: excitation energy (eV) =    2.9061
 Total energy for state  9:                 -2925.44043733 au
    Multiplicity: Singlet
    Trans. Mom.:  0.0776 X  -0.1164 Y  -0.2525 Z
    Strength   :     0.0059315025
    D(251) --> V(  1) amplitude =  0.9320
    D(252) --> V(  1) amplitude = -0.2354

 Excited state  10: excitation energy (eV) =    3.0191
 Total energy for state 10:                 -2925.43628705 au
    Multiplicity: Singlet
    Trans. Mom.: -1.7145 X   1.7318 Y   3.4623 Z
    Strength   :     1.3259457273
    D(247) --> V(  1) amplitude =  0.9557

 Excited state  11: excitation energy (eV) =    3.4526
 Total energy for state 11:                 -2925.42035691 au
    Multiplicity: Singlet
    Trans. Mom.:  0.0132 X  -0.0032 Y  -0.0122 Z
    Strength   :     0.0000281778
    D(249) --> V(  1) amplitude =  0.9698
    D(250) --> V(  1) amplitude =  0.2289

 Excited state  12: excitation energy (eV) =    3.4743
 Total energy for state 12:                 -2925.41955670 au
    Multiplicity: Singlet
    Trans. Mom.:  0.0082 X  -0.0071 Y  -0.0070 Z
    Strength   :     0.0000141950
    D(248) --> V(  1) amplitude =  0.9967

 ---------------------------------------------------

                    Orbital Energies (a.u.)
 --------------------------------------------------------------

 Alpha MOs
 -- Occupied --
-14.691 -14.691 -10.494 -10.493 -10.488 -10.488 -10.488 -10.487
-10.471 -10.471 -10.470 -10.470 -10.469 -10.469 -10.469 -10.469
-10.469 -10.469 -10.466 -10.466 -10.466 -10.466 -10.466 -10.466
-10.465 -10.464 -10.463 -10.463 -10.463 -10.463 -10.462 -10.462
-10.462 -10.462 -10.461 -10.460 -10.460 -10.458 -10.452 -10.452
-10.450 -10.450 -10.450 -10.450 -10.449 -10.449 -10.449 -10.449
-10.449 -10.448 -10.448 -10.448 -10.448 -10.448 -10.448 -10.448
-10.447 -10.447 -10.447 -10.447 -10.444 -10.443 -10.443 -10.442
-10.441 -10.440 -10.440 -10.440 -10.434 -10.434 -10.432 -10.432
-10.432 -10.432  -6.951  -6.951  -1.111  -1.111  -1.019  -1.019
 -0.978  -0.978  -0.964  -0.961  -0.952  -0.952  -0.948  -0.948
 -0.938  -0.938  -0.911  -0.902  -0.890  -0.889  -0.881  -0.881
 -0.866  -0.863  -0.856  -0.854  -0.851  -0.851  -0.847  -0.847
 -0.824  -0.819  -0.817  -0.811  -0.810  -0.810  -0.810  -0.803
 -0.776  -0.775  -0.772  -0.772  -0.740  -0.739  -0.733  -0.732
 -0.730  -0.723  -0.701  -0.697  -0.692  -0.688  -0.688  -0.682
 -0.681  -0.673  -0.657  -0.656  -0.652  -0.650  -0.650  -0.648
 -0.644  -0.644  -0.603  -0.599  -0.596  -0.595  -0.595  -0.593
 -0.589  -0.588  -0.587  -0.581  -0.579  -0.574  -0.574  -0.559
 -0.558  -0.553  -0.547  -0.546  -0.531  -0.531  -0.528  -0.523
 -0.520  -0.520  -0.519  -0.515  -0.506  -0.506  -0.502  -0.501
 -0.500  -0.500  -0.498  -0.497  -0.493  -0.492  -0.491  -0.489
 -0.489  -0.488  -0.488  -0.488  -0.483  -0.482  -0.481  -0.480
 -0.477  -0.476  -0.474  -0.471  -0.471  -0.468  -0.467  -0.467
 -0.465  -0.460  -0.446  -0.445  -0.444  -0.443  -0.441  -0.433
 -0.433  -0.428  -0.426  -0.425  -0.425  -0.424  -0.423  -0.416
 -0.416  -0.413  -0.408  -0.408  -0.402  -0.400  -0.400  -0.399
 -0.399  -0.398  -0.396  -0.396  -0.395  -0.393  -0.392  -0.391
 -0.383  -0.379  -0.377  -0.372  -0.370  -0.357  -0.354  -0.346
 -0.332  -0.331  -0.330  -0.323  -0.301  -0.301  -0.300  -0.300
 -0.290  -0.287  -0.286  -0.286  -0.283  -0.267  -0.260  -0.256
 -0.255  -0.255  -0.241  -0.240

          Ground-State Mulliken Net Atomic Charges

     Atom                 Charge (a.u.)
  ----------------------------------------
      1 N                    -0.733141
      2 C                     0.337363
      3 C                     0.340809
      4 C                    -0.295534
      5 H                     0.248779
      6 C                    -0.255335
      7 H                     0.236803
      8 C                    -0.292993
      9 H                     0.249217
     10 C                    -0.255163
     11 H                     0.236699
     12 C                    -0.250351
     13 H                     0.234400
     14 C                    -0.356604
     15 H                     0.229088
     16 C                     0.079389
     17 C                    -0.250365
     18 H                     0.234324
     19 C                    -0.356249
     20 H                     0.229264
     21 C                     0.078904
     22 C                     0.299588
     23 C                    -0.349784
     24 H                     0.246775
     25 C                    -0.349242
     26 H                     0.249429
     27 C                     0.039669
     28 C                     0.044837
     29 C                    -0.212690
     30 C                    -0.764644
     31 H                     0.250256
     32 H                     0.248654
     33 H                     0.249253
     34 C                    -0.769590
     35 H                     0.252321
     36 H                     0.250181
     37 H                     0.250820
     38 B                     0.684865
     39 C                    -0.156669
     40 C                    -0.386583
     41 H                     0.241271
     42 C                     0.075875
     43 C                     0.185913
     44 C                    -0.377022
     45 H                     0.243337
     46 C                    -0.225121
     47 H                     0.249654
     48 C                    -0.340165
     49 H                     0.245641
     50 C                    -0.070922
     51 C                     0.229588
     52 C                     0.192239
     53 C                    -0.382956
     54 H                     0.244581
     55 C                    -0.223970
     56 H                     0.249855
     57 C                    -0.342062
     58 H                     0.245837
     59 C                     0.086982
     60 C                    -0.387036
     61 H                     0.244359
     62 C                    -0.152457
     63 C                    -0.151386
     64 C                    -0.380185
     65 H                     0.244498
     66 C                     0.071705
     67 C                     0.188793
     68 C                    -0.377292
     69 H                     0.243771
     70 C                    -0.225760
     71 H                     0.249986
     72 C                    -0.339260
     73 H                     0.245708
     74 C                    -0.070968
     75 C                     0.230284
     76 C                     0.189600
     77 C                    -0.384016
     78 H                     0.243559
     79 C                    -0.223743
     80 H                     0.249361
     81 C                    -0.342376
     82 H                     0.245883
     83 C                     0.091417
     84 C                    -0.393770
     85 H                     0.241595
     86 C                    -0.158225
     87 B                     0.684636
     88 C                    -0.209912
     89 C                     0.045751
     90 C                    -0.348634
     91 H                     0.249162
     92 C                     0.306106
     93 C                    -0.359339
     94 H                     0.249578
     95 C                     0.038273
     96 N                    -0.734915
     97 C                     0.338430
     98 C                     0.334189
     99 C                    -0.294731
    100 H                     0.251127
    101 C                    -0.256124
    102 H                     0.237308
    103 C                    -0.294433
    104 H                     0.251466
    105 C                    -0.256093
    106 H                     0.237146
    107 C                    -0.249721
    108 H                     0.234217
    109 C                    -0.360306
    110 H                     0.229233
    111 C                     0.087094
    112 C                    -0.250141
    113 H                     0.234289
    114 C                    -0.359283
    115 H                     0.229309
    116 C                     0.080333
    117 C                    -0.765824
    118 H                     0.250440
    119 H                     0.248867
    120 H                     0.249846
    121 C                    -0.770742
    122 H                     0.252186
    123 H                     0.250829
    124 H                     0.251030
  ----------------------------------------
  Sum of atomic charges =    -0.000000

                    Cartesian Multipole Moments
 -----------------------------------------------------------------
    Charge (ESU x 10^10)
                -0.0000
    Dipole Moment (Debye)
         X       0.1526      Y       0.2616      Z      -0.1973
       Tot       0.3615
    Quadrupole Moments (Debye-Ang)
        XX    -426.8159     XY     -19.8830     YY    -426.1294
        XZ     -32.8864     YZ      26.8588     ZZ    -382.7246

 Total job time:  21576.43s(wall), 65053.98s(cpu)
        *  Thank you very much for using Q-Chem.  Have a nice day.  *
