 Q-Chem 5.1, Q-Chem, Inc., Pleasanton, CA (2018)
 Q-Chem 5.1.1 for Intel X86 EM64T Linux

User input:
--------------------------------------------------------------
$solvent
dielectric      8.93
dielectric_infi 2.03
$end

$rem
threads 8
jobtype	sp
method PBEh-3c
basis def2-mSVP
mem_static	1024
mem_total	14000
sym_ignore	true
cis_n_roots             2
cis_singlets            false
cis_triplets		true
rpa                     false
calc_soc 		true
cis_moments             true
cis_relaxed_density	true
solvent_method		pcm
$end

$pcm
StateSpecific   1
ChargeSeparation Excited
$end

$molecule
read utleopt_dcm.mol
$end

--------------------------------------------------------------

   14   -2925.5626547330      9.32e-09  Convergence criterion met
 Total energy in the final basis set =    -2925.5626547330
 Total job time:  12564.64s(wall), 36265.29s(cpu)
        *  Thank you very much for using Q-Chem.  Have a nice day.  *
 Q-Chem 5.1, Q-Chem, Inc., Pleasanton, CA (2018)
 Q-Chem 5.1.1 for Intel X86 EM64T Linux

User input:
--------------------------------------------------------------
$rem
threads 8
jobtype sp
method PBEh-3c
basis def2-mSVP
mem_static      1024
mem_total       14000
sym_ignore      true
cis_n_roots             6
cis_singlets            true
cis_triplets            true
rpa                     false
calc_soc                true
cis_moments             true
cis_relaxed_density     true
solvent_method          pcm
$end

$molecule
read
$end

$pcm
statespecific           Marcus
$end

$solvent
dielectric      8.93
dielectric_infi 2.03
$end

--------------------------------------------------------------

             Standard Nuclear Orientation (Angstroms)
    I     Atom           X                Y                Z
 ----------------------------------------------------------------
    1      N       0.0000000000     0.0000000000     0.0000000000
    2      C       0.0000000000     0.0000000000     1.3873360000
    3      C       1.1280773805     0.0000000000    -0.8141156326
    4      C       2.4632240532     0.0970822864    -0.4428916460
    5      H       2.7723367263     0.1779229300     0.5898111891
    6      C       3.4020942650     0.1078782542    -1.4641622220
    7      H       4.4520037220     0.1725215404    -1.2146417234
    8      C       3.0117735341     0.0528783020    -2.7990317745
    9      H       3.7661875035     0.0681979149    -3.5737408264
   10      C      -1.1344017615    -0.0206328805    -0.8070856343
   11      C      -2.4667877896    -0.1220896074    -0.4262090259
   12      H      -2.7698223636    -0.1756446831     0.6099466611
   13      C      -3.4107842632    -0.1780184202    -1.4412361686
   14      H      -4.4583184599    -0.2485168569    -1.1832369153
   15      C      -3.0282606823    -0.1633534364    -2.7790794847
   16      H      -3.7863435537    -0.2158709568    -3.5485341085
   17      C      -1.6827078883    -0.1076713961    -3.1458366717
   18      H      -1.3966803274    -0.1316547504    -4.1887833059
   19      C      -0.7326190235    -0.0383415322    -2.1504876970
   20      C       1.6638219739     0.0003161492    -3.1578225590
   21      H       1.3730001514    -0.0126070656    -4.1997464123
   22      C       0.7185900831    -0.0227595408    -2.1559258748
   23      C      -0.8694591306     0.8507585803     2.0816029886
   24      H      -1.4848946642     1.5555329578     1.5368396088
   25      C      -0.8834998421     0.8455867582     3.4612668519
   26      C       0.8601365204    -0.8565186599     2.0864711774
   27      H       1.4927109495    -1.5491764453     1.5455961611
   28      C       0.8291743529    -0.8862295151     3.4670274367
   29      C      -0.0487183628    -0.0408660098     4.1775649495
   30      C       1.7028590078    -1.8430477200     4.2210717280
   31      H       2.3582870454    -2.4044723481     3.5567013812
   32      H       2.3237997372    -1.3125750122     4.9448927055
   33      H       1.1008704033    -2.5562324624     4.7869830516
   34      C      -1.7805633370     1.7890984907     4.2056657998
   35      H      -2.3629023621     2.4132490760     3.5289437017
   36      H      -1.2009487769     2.4441408875     4.8575415240
   37      H      -2.4748663101     1.2424461085     4.8461162965
   38      B      -0.1577845865    -0.0994649871     5.7567418184
   39      C       0.6930787028     0.8188955645     6.6386181970
   40      C       1.6453740212     1.7042863241     6.0818707938
   41      H       1.7817083376     1.7337556461     5.0047878058
   42      C       2.3911525692     2.5324894191     6.8868992202
   43      C       2.2121499320     2.4891764526     8.3015837694
   44      C       1.2863967375     1.6452974305     8.8614228674
   45      H       1.1462558425     1.6392465934     9.9377328258
   46      C       0.5011334066     0.8000579466     8.0554821708
   47      C       3.1041143688     3.4691211934     8.9093445296
   48      C       3.3645725307     3.8839451595    10.1930472489
   49      H       2.8612290488     3.4483047135    11.0479006375
   50      C       3.7935120657     4.0861577259     7.8471590339
   51      C       4.7269161338     5.1067867792     8.0146782952
   52      C       3.3992906573     3.5565428988     6.6000250559
   53      C       3.9737634771     4.0795033895     5.4679326177
   54      H       3.7129567631     3.7239062813     4.4787192839
   55      C       4.3142352687     4.9131224979    10.3908344581
   56      H       4.5191690423     5.2391055227    11.4028683243
   57      C       4.9810396838     5.5154172510     9.3473840660
   58      H       5.6971933999     6.3038265388     9.5451639237
   59      C       5.3042201137     5.6237178048     6.8299641807
   60      H       6.0369898675     6.4196764631     6.8855641613
   61      C       4.9281797498     5.1157965380     5.6066899250
   62      H       5.3766247739     5.5251164501     4.7103587875
   63      C      -1.1855879842    -1.0455944025     6.3892521242
   64      C      -1.9563115758    -1.9208701510     5.5907165598
   65      H      -1.8038718015    -1.9433291974     4.5157941279
   66      C      -2.9002620796    -2.7422501436     6.1572493722
   67      C      -3.1209164797    -2.7063634135     7.5683498686
   68      C      -2.3813466953    -1.8657196524     8.3646064269
   69      H      -2.5541915251    -1.8402003899     9.4366015443
   70      C      -1.3977801982    -1.0262197994     7.8050370007
   71      C      -4.1874248691    -3.6494566471     7.8850729390
   72      C      -4.8345040584    -4.0353458060     9.0341354982
   73      H      -4.5804218996    -3.6180537773    10.0010156230
   74      C      -4.5772763899    -4.2326136368     6.6614255554
   75      C      -5.5852779036    -5.1862436082     6.5394081509
   76      C      -3.8273327467    -3.7184993665     5.5828065790
   77      C      -4.0976428593    -4.1903694046     4.3218909774
   78      H      -3.5579201405    -3.8371265433     3.4518045033
   79      C      -5.8623669426    -5.0019596049     8.9377223868
   80      H      -6.3730251705    -5.3045075086     9.8434123936
   81      C      -6.2368161563    -5.5684021892     7.7395090946
   82      H      -7.0310480186    -6.3047193375     7.7147968494
   83      C      -5.1120899461    -5.1649895516     4.1671119037
   84      H      -5.3217429814    -5.5363514080     3.1719184989
   85      C      -5.8409895000    -5.6561522777     5.2275440417
   86      H      -6.6100241798    -6.3999947525     5.0576560695
   87      B      -0.5762680430    -0.0886683988     8.6963153912
   88      C      -0.8411296143     0.0429393945    10.2533102157
   89      C      -0.1762742410    -0.7716026345    11.1806161741
   90      C      -0.3350613360    -0.5568653495    12.5469477533
   91      H       0.2028801521    -1.1673574242    13.2635529097
   92      C      -1.1593611175     0.4598355677    12.9995020976
   93      C      -1.8498928351     1.2506581515    12.0947119751
   94      H      -2.4993747472     2.0380628750    12.4612655497
   95      C      -1.6944458986     1.0511552622    10.7282096037
   96      N      -1.2747427364     0.7290420726    14.3855460467
   97      C      -2.0334685181     0.0250769833    15.2939226005
   98      C      -0.7505747097     1.8382267281    15.0116830504
   99      C      -2.7829855628    -1.1315145963    15.1099565404
  100      H      -2.8250646184    -1.6304117761    14.1504389830
  101      C      -3.4815087751    -1.6213620337    16.2006457999
  102      H      -4.0753530841    -2.5189296986    16.0847390248
  103      C       0.0563894670     2.8456242882    14.4926328525
  104      H       0.3709628254     2.8405373440    13.4572024458
  105      C       0.4387376972     3.8643592854    15.3487486799
  106      H       1.0640489739     4.6628141192    14.9702748359
  107      C       0.0356565947     3.8872709698    16.6890905428
  108      H       0.3529783051     4.7013741570    17.3275229071
  109      C      -0.7645566711     2.8811421054    17.1995887739
  110      H      -1.0786116461     2.8994983835    18.2361989112
  111      C      -1.1642164397     1.8470328634    16.3571212969
  112      C      -3.4417727021    -0.9830841155    17.4458720314
  113      H      -4.0021588637    -1.3952538674    18.2747580249
  114      C      -2.6978838131     0.1700299649    17.6212604538
  115      H      -2.6730094426     0.6693342568    18.5824831439
  116      C      -1.9889055844     0.6833588529    16.5386992001
  117      C       0.7463410516    -1.8575081608    10.7039436856
  118      H       1.1923523058    -2.4004888611    11.5370962460
  119      H       0.2201666389    -2.5794023656    10.0768920418
  120      H       1.5584199309    -1.4477783225    10.0997246909
  121      C      -2.4285064400     1.9435048555     9.7667417448
  122      H      -3.1039548210     2.6219206100    10.2877873976
  123      H      -3.0178973582     1.3637173269     9.0543584592
  124      H      -1.7339769661     2.5495766175     9.1813042423
 ----------------------------------------------------------------

   14   -2925.5625062929      9.34e-09  Convergence criterion met
 Total energy in the final basis set =    -2925.5625062929

         TDDFT/TDA Excitation Energies
 ---------------------------------------------------

 Excited state   1: excitation energy (eV) =    2.1917
 Total energy for state  1:                 -2925.48196376 au
    Multiplicity: Triplet
    Trans. Mom.:  0.0000 X   0.0000 Y   0.0000 Z
    Strength   :     0.0000000000
    D(248) --> V(  1) amplitude =  0.8975
    D(249) --> V(  1) amplitude =  0.2169

 Excited state   2: excitation energy (eV) =    2.4034
 Total energy for state  2:                 -2925.47418415 au
    Multiplicity: Triplet
    Trans. Mom.:  0.0000 X   0.0000 Y   0.0000 Z
    Strength   :     0.0000000000
    D(246) --> V(  2) amplitude = -0.4574
    D(249) --> V(  1) amplitude =  0.7950

 Excited state   3: excitation energy (eV) =    2.4730
 Total energy for state  3:                 -2925.47162663 au
    Multiplicity: Triplet
    Trans. Mom.:  0.0000 X   0.0000 Y   0.0000 Z
    Strength   :     0.0000000000
    D(246) --> V(  1) amplitude =  0.7553
    D(246) --> V(  4) amplitude =  0.2353
    D(249) --> V(  2) amplitude = -0.5320

 Excited state   4: excitation energy (eV) =    2.6575
 Total energy for state  4:                 -2925.46484454 au
    Multiplicity: Triplet
    Trans. Mom.:  0.0000 X   0.0000 Y   0.0000 Z
    Strength   :     0.0000000000
    D(252) --> V(  1) amplitude =  0.9356

 Excited state   5: excitation energy (eV) =    2.6800
 Total energy for state  5:                 -2925.46401970 au
    Multiplicity: Singlet
    Trans. Mom.: -0.1025 X  -0.0959 Y  -0.0622 Z
    Strength   :     0.0015479148
    D(252) --> V(  1) amplitude =  0.9530

 Excited state   6: excitation energy (eV) =    2.7201
 Total energy for state  6:                 -2925.46254598 au
    Multiplicity: Triplet
    Trans. Mom.:  0.0000 X   0.0000 Y   0.0000 Z
    Strength   :     0.0000000000
    D(239) --> V(  1) amplitude =  0.2260
    D(243) --> V(  1) amplitude =  0.4969
    D(244) --> V(  1) amplitude =  0.4681
    D(248) --> V(  2) amplitude =  0.5363

 Excited state   7: excitation energy (eV) =    2.8441
 Total energy for state  7:                 -2925.45798827 au
    Multiplicity: Singlet
    Trans. Mom.:  0.1447 X   0.1066 Y   0.0065 Z
    Strength   :     0.0022527592
    D(248) --> V(  1) amplitude =  0.9450
    D(249) --> V(  1) amplitude =  0.2122

 Excited state   8: excitation energy (eV) =    3.0772
 Total energy for state  8:                 -2925.44942069 au
    Multiplicity: Singlet
    Trans. Mom.:  2.8714 X   2.8867 Y   0.4295 Z
    Strength   :     1.2637084238
    D(249) --> V(  1) amplitude =  0.9307

 Excited state   9: excitation energy (eV) =    3.1290
 Total energy for state  9:                 -2925.44751674 au
    Multiplicity: Triplet
    Trans. Mom.:  0.0000 X   0.0000 Y   0.0000 Z
    Strength   :     0.0000000000
    D(241) --> V(  1) amplitude =  0.2267
    D(251) --> V(  1) amplitude =  0.9303

 Excited state  10: excitation energy (eV) =    3.1440
 Total energy for state 10:                 -2925.44696775 au
    Multiplicity: Singlet
    Trans. Mom.: -0.3250 X  -0.3035 Y   0.0133 Z
    Strength   :     0.0152422554
    D(251) --> V(  1) amplitude =  0.9467

 Excited state  11: excitation energy (eV) =    3.3973
 Total energy for state 11:                 -2925.43765789 au
    Multiplicity: Singlet
    Trans. Mom.:  0.0280 X   0.0152 Y  -0.1727 Z
    Strength   :     0.0025671399
    D(246) --> V(  1) amplitude =  0.9446

 Excited state  12: excitation energy (eV) =    3.6086
 Total energy for state 12:                 -2925.42989177 au
    Multiplicity: Singlet
    Trans. Mom.: -0.0325 X  -0.0265 Y   0.0563 Z
    Strength   :     0.0004360745
    D(245) --> V(  1) amplitude =  0.2158
    D(250) --> V(  1) amplitude =  0.9580

 ---------------------------------------------------

                    Orbital Energies (a.u.)
 --------------------------------------------------------------

 Alpha MOs
 -- Occupied --
-14.696 -14.693 -10.496 -10.494 -10.493 -10.493 -10.491 -10.491
-10.471 -10.471 -10.470 -10.469 -10.468 -10.468 -10.467 -10.467
-10.467 -10.467 -10.466 -10.466 -10.465 -10.464 -10.464 -10.464
-10.463 -10.463 -10.463 -10.463 -10.462 -10.461 -10.461 -10.461
-10.461 -10.460 -10.459 -10.459 -10.459 -10.459 -10.456 -10.456
-10.453 -10.453 -10.453 -10.453 -10.452 -10.452 -10.452 -10.452
-10.452 -10.452 -10.451 -10.451 -10.451 -10.450 -10.450 -10.450
-10.450 -10.449 -10.446 -10.446 -10.445 -10.445 -10.443 -10.443
-10.443 -10.443 -10.442 -10.442 -10.437 -10.432 -10.432 -10.431
-10.430 -10.430  -6.955  -6.952  -1.114  -1.114  -1.019  -1.019
 -0.980  -0.980  -0.966  -0.963  -0.958  -0.955  -0.950  -0.950
 -0.935  -0.935  -0.913  -0.903  -0.893  -0.891  -0.882  -0.881
 -0.864  -0.860  -0.857  -0.855  -0.850  -0.850  -0.848  -0.848
 -0.828  -0.818  -0.818  -0.815  -0.813  -0.812  -0.810  -0.808
 -0.776  -0.773  -0.772  -0.772  -0.740  -0.739  -0.735  -0.729
 -0.728  -0.723  -0.702  -0.699  -0.693  -0.691  -0.690  -0.682
 -0.681  -0.671  -0.662  -0.657  -0.654  -0.653  -0.650  -0.647
 -0.645  -0.645  -0.601  -0.600  -0.597  -0.595  -0.592  -0.592
 -0.591  -0.590  -0.585  -0.578  -0.578  -0.577  -0.575  -0.561
 -0.554  -0.553  -0.546  -0.546  -0.531  -0.529  -0.529  -0.524
 -0.523  -0.522  -0.518  -0.512  -0.511  -0.506  -0.505  -0.503
 -0.502  -0.500  -0.498  -0.496  -0.494  -0.494  -0.493  -0.491
 -0.490  -0.489  -0.489  -0.485  -0.484  -0.482  -0.482  -0.481
 -0.475  -0.474  -0.473  -0.471  -0.470  -0.468  -0.468  -0.467
 -0.465  -0.458  -0.448  -0.443  -0.443  -0.442  -0.442  -0.434
 -0.430  -0.429  -0.428  -0.426  -0.426  -0.426  -0.424  -0.421
 -0.419  -0.414  -0.414  -0.407  -0.404  -0.400  -0.399  -0.398
 -0.398  -0.397  -0.396  -0.396  -0.395  -0.394  -0.393  -0.392
 -0.385  -0.380  -0.378  -0.373  -0.369  -0.358  -0.356  -0.346
 -0.337  -0.335  -0.327  -0.320  -0.305  -0.304  -0.299  -0.298
 -0.290  -0.288  -0.287  -0.287  -0.287  -0.266  -0.264  -0.262
 -0.259  -0.259  -0.246  -0.236

          Ground-State Mulliken Net Atomic Charges

     Atom                 Charge (a.u.)
  ----------------------------------------
      1 N                    -0.736514
      2 C                     0.336536
      3 C                     0.330998
      4 C                    -0.305983
      5 H                     0.272280
      6 C                    -0.260495
      7 H                     0.252192
      8 C                    -0.266911
      9 H                     0.246240
     10 C                     0.328410
     11 C                    -0.305687
     12 H                     0.272793
     13 C                    -0.260237
     14 H                     0.252282
     15 C                    -0.266749
     16 H                     0.246313
     17 C                    -0.370030
     18 H                     0.246063
     19 C                     0.075671
     20 C                    -0.370274
     21 H                     0.246118
     22 C                     0.074842
     23 C                    -0.395266
     24 H                     0.268830
     25 C                     0.037130
     26 C                    -0.386111
     27 H                     0.268034
     28 C                     0.048113
     29 C                    -0.220737
     30 C                    -0.770552
     31 H                     0.255460
     32 H                     0.249864
     33 H                     0.250459
     34 C                    -0.774875
     35 H                     0.257388
     36 H                     0.251782
     37 H                     0.251823
     38 B                     0.683494
     39 C                    -0.154449
     40 C                    -0.401073
     41 H                     0.246827
     42 C                     0.097516
     43 C                     0.077834
     44 C                    -0.388967
     45 H                     0.249757
     46 C                    -0.151856
     47 C                     0.177877
     48 C                    -0.388764
     49 H                     0.255391
     50 C                    -0.065669
     51 C                     0.217665
     52 C                     0.177670
     53 C                    -0.394905
     54 H                     0.255096
     55 C                    -0.235941
     56 H                     0.260876
     57 C                    -0.344498
     58 H                     0.259215
     59 C                    -0.348008
     60 H                     0.259293
     61 C                    -0.233821
     62 H                     0.260618
     63 C                    -0.150538
     64 C                    -0.394620
     65 H                     0.249129
     66 C                     0.092287
     67 C                     0.082137
     68 C                    -0.395527
     69 H                     0.246634
     70 C                    -0.155339
     71 C                     0.175224
     72 C                    -0.387857
     73 H                     0.255028
     74 C                    -0.066267
     75 C                     0.217082
     76 C                     0.180786
     77 C                    -0.393528
     78 H                     0.255627
     79 C                    -0.235329
     80 H                     0.261044
     81 C                    -0.345167
     82 H                     0.259216
     83 C                    -0.234042
     84 H                     0.260875
     85 C                    -0.347742
     86 H                     0.259292
     87 B                     0.689890
     88 C                    -0.208480
     89 C                     0.039316
     90 C                    -0.346877
     91 H                     0.252904
     92 C                     0.282565
     93 C                    -0.342905
     94 H                     0.254128
     95 C                     0.030225
     96 N                    -0.729065
     97 C                     0.341098
     98 C                     0.337562
     99 C                    -0.305944
    100 H                     0.258085
    101 C                    -0.267364
    102 H                     0.249552
    103 C                    -0.303451
    104 H                     0.259273
    105 C                    -0.267374
    106 H                     0.249398
    107 C                    -0.263060
    108 H                     0.246073
    109 C                    -0.365032
    110 H                     0.243280
    111 C                     0.070780
    112 C                    -0.263074
    113 H                     0.246046
    114 C                    -0.364753
    115 H                     0.243365
    116 C                     0.069388
    117 C                    -0.770441
    118 H                     0.256807
    119 H                     0.250587
    120 H                     0.250294
    121 C                    -0.773047
    122 H                     0.258372
    123 H                     0.250960
    124 H                     0.252130
  ----------------------------------------
  Sum of atomic charges =    -0.000000

                    Cartesian Multipole Moments
 -----------------------------------------------------------------
    Charge (ESU x 10^10)
                -0.0000
    Dipole Moment (Debye)
         X       0.0608      Y      -0.3736      Z      -0.7880
       Tot       0.8742
    Quadrupole Moments (Debye-Ang)
        XX    -386.0398     XY      46.2514     YY    -395.7807
        XZ       2.7520     YZ       2.0914     ZZ    -446.9452

 Total job time:  22860.60s(wall), 69102.52s(cpu)
        *  Thank you very much for using Q-Chem.  Have a nice day.  *
