 Q-Chem 5.1, Q-Chem, Inc., Pleasanton, CA (2018)
 Q-Chem 5.1.1 for Intel X86 EM64T Linux

User input:
--------------------------------------------------------------
$solvent
dielectric      1.0001
dielectric_infi 1.00009
$end

$rem
threads 8
jobtype	sp
method PBEh-3c
basis def2-mSVP
mem_static	1024
mem_total	14000
sym_ignore	true
cis_n_roots             2
cis_singlets            false
cis_triplets		true
rpa                     false
calc_soc 		true
cis_moments             true
cis_relaxed_density	true
solvent_method		pcm
$end

$pcm
StateSpecific   1
ChargeSeparation Excited
$end

$molecule
read utleopt_vac.mol
$end

--------------------------------------------------------------

   28   -2925.4486429326      8.02e-09  Convergence criterion met
 Total energy in the final basis set =    -2925.4486429326

         TDDFT/TDA Excitation Energies
 ---------------------------------------------------

 Excited state   1: excitation energy (eV) =    0.5058
 Total energy for state  1:                 -2925.43005629 au
    <S**2>     :  2.1202
    Trans. Mom.:  0.4399 X  -0.4881 Y  -0.8797 Z
    Strength   :     0.0149392872
    S(  2) --> V(  1) amplitude = -0.5938 alpha
    D(247) --> S(  1) amplitude =  0.7748 beta

 Excited state   2: excitation energy (eV) =    0.6974
 Total energy for state  2:                 -2925.42301298 au
    <S**2>     :  2.1076
    Trans. Mom.:  0.0606 X   0.0126 Y   0.0354 Z
    Strength   :     0.0000868781
    D(250) --> S(  1) amplitude =  0.2262 beta
    D(251) --> S(  1) amplitude =  0.9440 beta

 ---------------------------------------------------

                    Orbital Energies (a.u.)
 --------------------------------------------------------------

 Alpha MOs
 -- Occupied --
-14.685 -14.685 -10.489 -10.488 -10.484 -10.483 -10.483 -10.482
-10.481 -10.481 -10.481 -10.481 -10.474 -10.474 -10.474 -10.474
-10.473 -10.473 -10.473 -10.472 -10.472 -10.472 -10.472 -10.472
-10.471 -10.471 -10.468 -10.468 -10.468 -10.468 -10.467 -10.466
-10.463 -10.461 -10.461 -10.460 -10.458 -10.457 -10.457 -10.457
-10.455 -10.455 -10.453 -10.453 -10.445 -10.445 -10.444 -10.444
-10.444 -10.444 -10.444 -10.443 -10.443 -10.443 -10.443 -10.443
-10.443 -10.443 -10.443 -10.443 -10.443 -10.442 -10.442 -10.442
-10.436 -10.436 -10.436 -10.435 -10.431 -10.431 -10.430 -10.430
-10.427 -10.426  -6.928  -6.927  -1.105  -1.105  -1.030  -1.029
 -0.975  -0.973  -0.971  -0.971  -0.947  -0.946  -0.944  -0.944
 -0.943  -0.942  -0.920  -0.911  -0.885  -0.884  -0.877  -0.877
 -0.871  -0.870  -0.858  -0.858  -0.851  -0.850  -0.842  -0.842
 -0.834  -0.825  -0.823  -0.816  -0.806  -0.806  -0.806  -0.805
 -0.773  -0.772  -0.769  -0.769  -0.746  -0.745  -0.741  -0.731
 -0.728  -0.727  -0.700  -0.700  -0.692  -0.690  -0.684  -0.683
 -0.683  -0.681  -0.657  -0.655  -0.653  -0.652  -0.646  -0.645
 -0.642  -0.640  -0.609  -0.604  -0.602  -0.600  -0.593  -0.592
 -0.591  -0.587  -0.586  -0.584  -0.584  -0.571  -0.570  -0.554
 -0.554  -0.553  -0.553  -0.546  -0.538  -0.535  -0.529  -0.520
 -0.520  -0.517  -0.516  -0.516  -0.513  -0.510  -0.505  -0.503
 -0.501  -0.500  -0.498  -0.497  -0.497  -0.496  -0.494  -0.493
 -0.490  -0.487  -0.487  -0.483  -0.483  -0.481  -0.478  -0.477
 -0.477  -0.476  -0.476  -0.473  -0.470  -0.469  -0.466  -0.464
 -0.464  -0.463  -0.453  -0.450  -0.450  -0.444  -0.442  -0.438
 -0.436  -0.431  -0.429  -0.423  -0.421  -0.421  -0.419  -0.416
 -0.410  -0.409  -0.409  -0.408  -0.407  -0.406  -0.405  -0.404
 -0.403  -0.400  -0.396  -0.395  -0.392  -0.391  -0.389  -0.388
 -0.387  -0.387  -0.372  -0.371  -0.364  -0.364  -0.357  -0.344
 -0.341  -0.333  -0.325  -0.325  -0.311  -0.308  -0.300  -0.295
 -0.294  -0.285  -0.282  -0.282  -0.281  -0.279  -0.278  -0.268
 -0.249  -0.249  -0.234  -0.233  -0.181

 Beta MOs
 -- Occupied --
-14.685 -14.685 -10.489 -10.488 -10.481 -10.481 -10.481 -10.481
-10.481 -10.480 -10.479 -10.479 -10.476 -10.476 -10.475 -10.474
-10.474 -10.473 -10.471 -10.471 -10.471 -10.471 -10.470 -10.470
-10.470 -10.470 -10.469 -10.469 -10.469 -10.469 -10.464 -10.464
-10.464 -10.463 -10.463 -10.462 -10.457 -10.457 -10.457 -10.457
-10.452 -10.451 -10.450 -10.450 -10.445 -10.445 -10.444 -10.444
-10.444 -10.444 -10.444 -10.443 -10.443 -10.443 -10.443 -10.443
-10.443 -10.443 -10.443 -10.443 -10.443 -10.442 -10.442 -10.442
-10.436 -10.436 -10.436 -10.435 -10.431 -10.431 -10.430 -10.430
-10.427 -10.426  -6.927  -6.926  -1.105  -1.105  -1.026  -1.026
 -0.973  -0.973  -0.968  -0.966  -0.947  -0.946  -0.943  -0.943
 -0.942  -0.942  -0.915  -0.907  -0.885  -0.884  -0.877  -0.877
 -0.869  -0.868  -0.856  -0.856  -0.850  -0.850  -0.842  -0.842
 -0.824  -0.823  -0.822  -0.806  -0.806  -0.805  -0.805  -0.805
 -0.772  -0.771  -0.769  -0.769  -0.743  -0.741  -0.738  -0.728
 -0.728  -0.727  -0.698  -0.697  -0.692  -0.688  -0.684  -0.683
 -0.680  -0.676  -0.656  -0.654  -0.652  -0.652  -0.645  -0.645
 -0.641  -0.640  -0.606  -0.602  -0.600  -0.597  -0.593  -0.592
 -0.591  -0.585  -0.584  -0.584  -0.584  -0.570  -0.570  -0.553
 -0.552  -0.552  -0.551  -0.545  -0.537  -0.534  -0.527  -0.520
 -0.518  -0.517  -0.516  -0.516  -0.512  -0.510  -0.503  -0.502
 -0.498  -0.497  -0.497  -0.496  -0.493  -0.492  -0.491  -0.490
 -0.489  -0.487  -0.487  -0.483  -0.483  -0.480  -0.478  -0.477
 -0.476  -0.475  -0.475  -0.472  -0.469  -0.469  -0.465  -0.464
 -0.464  -0.462  -0.452  -0.447  -0.444  -0.442  -0.436  -0.435
 -0.430  -0.425  -0.422  -0.422  -0.421  -0.421  -0.419  -0.415
 -0.409  -0.409  -0.409  -0.405  -0.405  -0.404  -0.403  -0.403
 -0.401  -0.398  -0.395  -0.394  -0.391  -0.391  -0.388  -0.387
 -0.385  -0.373  -0.371  -0.364  -0.362  -0.354  -0.346  -0.342
 -0.332  -0.327  -0.325  -0.325  -0.303  -0.303  -0.295  -0.294
 -0.284  -0.282  -0.281  -0.281  -0.269  -0.263  -0.257  -0.249
 -0.249  -0.234  -0.233

          Ground-State Mulliken Net Atomic Charges

     Atom                 Charge (a.u.)    Spin (a.u.)
  --------------------------------------------------------
      1 N                    -0.738332       0.000018
      2 C                     0.340992      -0.000006
      3 C                     0.344620      -0.000007
      4 C                    -0.280868      -0.000001
      5 H                     0.231892       0.000000
      6 C                    -0.235692       0.000002
      7 H                     0.214817      -0.000000
      8 C                    -0.278899      -0.000001
      9 H                     0.231894       0.000001
     10 C                    -0.235739       0.000002
     11 H                     0.214492      -0.000000
     12 C                    -0.228776      -0.000003
     13 H                     0.213862       0.000000
     14 C                    -0.342793       0.000004
     15 H                     0.204633      -0.000000
     16 C                     0.094458      -0.000003
     17 C                    -0.228718      -0.000003
     18 H                     0.213824       0.000000
     19 C                    -0.342496       0.000003
     20 H                     0.204679      -0.000000
     21 C                     0.094171      -0.000003
     22 C                     0.307472      -0.000233
     23 C                    -0.345404      -0.000138
     24 H                     0.230162       0.000284
     25 C                    -0.344518      -0.000094
     26 H                     0.234443       0.000249
     27 C                     0.044698       0.001711
     28 C                     0.047295       0.001903
     29 C                    -0.205273      -0.018453
     30 C                    -0.747789       0.000931
     31 H                     0.235576       0.001066
     32 H                     0.242107      -0.000561
     33 H                     0.243675      -0.000584
     34 C                    -0.753001       0.001159
     35 H                     0.237934       0.001191
     36 H                     0.244388      -0.000692
     37 H                     0.244563      -0.000694
     38 B                     0.608732       0.212041
     39 C                    -0.126303       0.210749
     40 C                    -0.389079      -0.142364
     41 H                     0.233240       0.005600
     42 C                     0.098527       0.237737
     43 C                     0.197181      -0.114372
     44 C                    -0.372383       0.137953
     45 H                     0.223339      -0.008218
     46 C                    -0.204488      -0.097857
     47 H                     0.232017       0.004780
     48 C                    -0.332606       0.147204
     49 H                     0.224888      -0.008627
     50 C                    -0.059762       0.140447
     51 C                     0.251948      -0.092485
     52 C                     0.203749      -0.114033
     53 C                    -0.379779       0.133922
     54 H                     0.225763      -0.007958
     55 C                    -0.203190      -0.096384
     56 H                     0.232526       0.004734
     57 C                    -0.335437       0.141185
     58 H                     0.224746      -0.008270
     59 C                     0.109392       0.233750
     60 C                    -0.389892      -0.142789
     61 H                     0.237903       0.005601
     62 C                    -0.120675       0.225981
     63 C                    -0.120510       0.217064
     64 C                    -0.382084      -0.145392
     65 H                     0.237530       0.005714
     66 C                     0.093398       0.241489
     67 C                     0.200478      -0.116107
     68 C                    -0.373448       0.140144
     69 H                     0.224787      -0.008341
     70 C                    -0.205297      -0.099236
     71 H                     0.232894       0.004844
     72 C                    -0.332031       0.148963
     73 H                     0.224853      -0.008734
     74 C                    -0.059524       0.142816
     75 C                     0.252659      -0.093813
     76 C                     0.200655      -0.115410
     77 C                    -0.380242       0.135916
     78 H                     0.223620      -0.008097
     79 C                    -0.202777      -0.097787
     80 H                     0.231771       0.004804
     81 C                    -0.335495       0.143487
     82 H                     0.224957      -0.008400
     83 C                     0.115179       0.238156
     84 C                    -0.397326      -0.145656
     85 H                     0.234202       0.005730
     86 C                    -0.126456       0.229051
     87 B                     0.609511       0.205587
     88 C                    -0.202357      -0.018095
     89 C                     0.048688       0.001993
     90 C                    -0.343492      -0.000315
     91 H                     0.233636       0.000271
     92 C                     0.313438      -0.000038
     93 C                    -0.354841      -0.000209
     94 H                     0.233775       0.000261
     95 C                     0.043111       0.001802
     96 N                    -0.740215       0.000022
     97 C                     0.342453      -0.000008
     98 C                     0.338058      -0.000009
     99 C                    -0.281102       0.000007
    100 H                     0.235022      -0.000001
    101 C                    -0.236853      -0.000005
    102 H                     0.215433      -0.000000
    103 C                    -0.281171       0.000012
    104 H                     0.235232      -0.000001
    105 C                    -0.237030      -0.000008
    106 H                     0.215072       0.000000
    107 C                    -0.227992       0.000010
    108 H                     0.213670      -0.000001
    109 C                    -0.346883      -0.000006
    110 H                     0.204883       0.000000
    111 C                     0.102802       0.000003
    112 C                    -0.228378       0.000006
    113 H                     0.213829      -0.000001
    114 C                    -0.345732      -0.000002
    115 H                     0.204879      -0.000000
    116 C                     0.095187      -0.000000
    117 C                    -0.749056       0.001117
    118 H                     0.235999       0.001087
    119 H                     0.242692      -0.000629
    120 H                     0.243925      -0.000523
    121 C                    -0.754123       0.001255
    122 H                     0.237588       0.001217
    123 H                     0.244345      -0.000561
    124 H                     0.245500      -0.000819
  --------------------------------------------------------
  Sum of atomic charges =    -0.000000

                    Cartesian Multipole Moments
 -----------------------------------------------------------------
    Charge (ESU x 10^10)
                -0.0000
    Dipole Moment (Debye)
         X       0.1472      Y       0.2934      Z      -0.2042
       Tot       0.3866
    Quadrupole Moments (Debye-Ang)
        XX    -437.7605     XY     -21.9860     YY    -426.4633
        XZ     -35.6294     YZ      28.1966     ZZ    -388.5153

 Total job time:  19651.24s(wall), 77512.19s(cpu)
        *  Thank you very much for using Q-Chem.  Have a nice day.  *
 Q-Chem 5.1, Q-Chem, Inc., Pleasanton, CA (2018)
 Q-Chem 5.1.1 for Intel X86 EM64T Linux

User input:
--------------------------------------------------------------
$rem
threads 8
jobtype sp
method PBEh-3c
basis def2-mSVP
mem_static      1024
mem_total       14000
sym_ignore      true
cis_n_roots             6
cis_singlets            true
cis_triplets            true
rpa                     false
calc_soc                true
cis_moments             true
cis_relaxed_density     true
solvent_method          pcm
$end

$molecule
read
$end

$pcm
statespecific           Marcus
$end

$solvent
dielectric      1.0001
dielectric_infi 1.00009
$end

--------------------------------------------------------------

             Standard Nuclear Orientation (Angstroms)
    I     Atom           X                Y                Z
 ----------------------------------------------------------------
    1      N       0.0000000000     0.0000000000     0.0000000000
    2      C       0.0000000000     0.0000000000     1.3796870000
    3      C       1.3073941479     0.0000000000    -0.4421211125
    4      C       1.8016540236    -0.0380362475    -1.7393610409
    5      H       1.1399651959    -0.0559588770    -2.5949559907
    6      C       3.1758834166    -0.0600952692    -1.8999205006
    7      H       3.5883048926    -0.0901327065    -2.8999425401
    8      C      -1.0725832127    -0.0009725848     2.2646016981
    9      H      -2.0955001817    -0.0073638905     1.9125552499
   10      C      -0.7884764253     0.0003769034     3.6184582887
   11      H      -1.6061289081    -0.0041695455     4.3275736946
   12      C       0.5267164936     0.0053374620     4.0910159247
   13      H       0.7116391109     0.0041016852     5.1568632848
   14      C       1.5880150700     0.0108527048     3.2060727987
   15      H       2.6073466333     0.0151569947     3.5718937566
   16      C       1.3280592531     0.0076111227     1.8396250664
   17      C       4.0426843620    -0.0498590825    -0.8036014923
   18      H       5.1116270206    -0.0702857681    -0.9684105387
   19      C       3.5438478921    -0.0194599632     0.4847640148
   20      H       4.2146114190    -0.0209993762     1.3350935939
   21      C       2.1664194301     0.0045331646     0.6723864759
   22      C      -1.1564485579    -0.1096962557    -0.8014567540
   23      C      -1.5071147339     0.9033078148    -1.6793403506
   24      H      -0.8757156278     1.7806989716    -1.7597613010
   25      C      -1.9647132848    -1.2295726273    -0.6806554431
   26      H      -1.6719606459    -2.0253672953    -0.0052799063
   27      C      -3.1459767595    -1.3264159083    -1.4033325911
   28      C      -2.6782255588     0.8116555895    -2.4241759073
   29      C      -3.5210730945    -0.2977100979    -2.2795055227
   30      C      -3.0599281425     1.9303962176    -3.3517080849
   31      H      -2.3069717496     2.7178931544    -3.3644255891
   32      H      -3.1857552898     1.5748691077    -4.3759814308
   33      H      -4.0082043255     2.3847775316    -3.0569338645
   34      C      -4.0256212825    -2.5318811246    -1.2239746020
   35      H      -3.5735480004    -3.2605421978    -0.5516892401
   36      H      -4.2197661117    -3.0323127945    -2.1742293314
   37      H      -4.9968291418    -2.2563893510    -0.8071681110
   38      B      -4.9212965864    -0.3714739942    -3.0059861599
   39      C      -5.0978029084    -1.0238159361    -4.3752189811
   40      C      -3.9790351437    -1.5197627928    -5.0647119150
   41      H      -2.9985013058    -1.4391915273    -4.6075535923
   42      C      -4.1295917298    -2.1023413594    -6.2962461856
   43      C      -3.1724734937    -2.6941701342    -7.2026622737
   44      C      -1.8121791759    -2.8983467894    -7.1755163281
   45      H      -1.2045437087    -2.5830868806    -6.3368061630
   46      C      -1.2104251812    -3.5414070380    -8.2754197552
   47      H      -0.1409661447    -3.7058241779    -8.2580666033
   48      C      -1.9331952154    -3.9688448260    -9.3686320125
   49      H      -1.4241025140    -4.4589561313   -10.1892273691
   50      C      -3.9068063774    -3.1366490915    -8.3245187347
   51      C      -3.3345882745    -3.7731271765    -9.4220981968
   52      C      -5.2857827402    -2.8652929686    -8.1896187579
   53      C      -6.1296295629    -3.2437838240    -9.2065685472
   54      H      -7.1956261061    -3.0620479776    -9.1604297741
   55      C      -5.5754435881    -3.8853712160   -10.3339858338
   56      H      -6.2383499263    -4.1824952679   -11.1358456548
   57      C      -4.2280170541    -4.1491362296   -10.4531043720
   58      H      -3.8539013530    -4.6472885524   -11.3388256244
   59      C      -5.4487425774    -2.2120755874    -6.9053678305
   60      C      -6.5524233578    -1.7496943194    -6.2383273682
   61      H      -7.5383627790    -1.8471862329    -6.6784831669
   62      C      -6.4216943549    -1.1503080211    -4.9704379423
   63      C      -6.1605360365     0.1770391019    -2.2955174765
   64      C      -6.0182026001     0.8192853042    -1.0559755504
   65      H      -5.0277654936     0.9488340682    -0.6343563145
   66      C      -7.1201600126     1.2570349274    -0.3722974332
   67      C      -7.2459970803     1.9039579683     0.9125530280
   68      C      -6.3589837597     2.3319260723     1.8734352150
   69      H      -5.2885966754     2.2258188937     1.7499360385
   70      C      -6.8742067998     2.9196251181     3.0458383221
   71      H      -6.1799045567     3.2591158354     3.8032339729
   72      C      -8.2266125544     3.0735672717     3.2628563717
   73      H      -8.5753302829     3.5273122074     4.1822010939
   74      C      -8.6280537028     2.0698412476     1.1384378754
   75      C      -9.1599351176     2.6390597266     2.2921753100
   76      C      -9.3988398267     1.5706324186     0.0652084400
   77      C     -10.7683458509     1.6456763152     0.1586962964
   78      H     -11.4142220931     1.2746377954    -0.6264540104
   79      C     -11.3338265883     2.2187219067     1.3170038981
   80      H     -12.4117787249     2.2754706959     1.3901304230
   81      C     -10.5708302658     2.7044918078     2.3564789822
   82      H     -11.0538985830     3.1332919223     3.2256390420
   83      C      -8.4576828500     1.0543675055    -0.9108255743
   84      C      -8.6148702067     0.4506767084    -2.1320896875
   85      H      -9.6042080017     0.3010912679    -2.5500528681
   86      C      -7.4926185250     0.0066573494    -2.8597410778
   87      B      -7.6695522703    -0.6715076258    -4.2199383274
   88      C      -9.0976713014    -0.9387745590    -4.8400390808
   89      C      -9.6774434226    -0.0485438897    -5.7520399922
   90      C     -10.8918939896    -0.3579205843    -6.3549502517
   91      H     -11.3220716254     0.3148679442    -7.0876281210
   92      C     -11.5512777169    -1.5372558932    -6.0399782395
   93      C     -10.9984956448    -2.4087634937    -5.1131691509
   94      H     -11.5290153399    -3.3180021846    -4.8565492361
   95      C      -9.7744901286    -2.1235010640    -4.5200214223
   96      N     -12.7695578605    -1.8637889175    -6.6759400329
   97      C     -13.9275320683    -1.1123480979    -6.6562772310
   98      C     -12.9707996392    -2.9564078845    -7.4957475125
   99      C     -14.1912768629     0.0646943361    -5.9666110423
  100      H     -13.4436924751     0.5278287957    -5.3360959227
  101      C     -15.4465748882     0.6240877542    -6.1163209179
  102      H     -15.6803838639     1.5425409261    -5.5939377318
  103      C     -12.0748579974    -3.9601929007    -7.8453450782
  104      H     -11.0645860123    -3.9744944329    -7.4581643262
  105      C     -12.5205230028    -4.9399910908    -8.7124806848
  106      H     -11.8454770324    -5.7347955968    -9.0023010355
  107      C     -13.8211171053    -4.9233219722    -9.2235389750
  108      H     -14.1379885969    -5.7061752188    -9.8992995706
  109      C     -14.7006674305    -3.9146479784    -8.8771160846
  110      H     -15.7044758298    -3.9006470522    -9.2821607647
  111      C     -14.2772580889    -2.9157012001    -8.0071104924
  112      C     -16.4176659853     0.0280062283    -6.9257811080
  113      H     -17.3893283113     0.4932308577    -7.0225599895
  114      C     -16.1481964418    -1.1486157989    -7.5995773781
  115      H     -16.9051812584    -1.6088226744    -8.2219599882
  116      C     -14.8926344025    -1.7312709630    -7.4679414533
  117      C      -8.9673635311     1.2290506242    -6.1018205065
  118      H      -9.5451114354     1.8369013568    -6.7973954029
  119      H      -8.7766147897     1.8334725689    -5.2128145697
  120      H      -7.9969701840     1.0325858294    -6.5625790488
  121      C      -9.1764528785    -3.0879986102    -3.5336996165
  122      H      -9.8083697998    -3.9638547405    -3.3884820844
  123      H      -9.0310645783    -2.6212300260    -2.5576953863
  124      H      -8.1967547290    -3.4395693901    -3.8639056895
 ----------------------------------------------------------------
