 Q-Chem 5.1, Q-Chem, Inc., Pleasanton, CA (2018)
 Q-Chem 5.1.1 for Intel X86 EM64T Linux

User input:
--------------------------------------------------------------
$solvent
dielectric      8.93
dielectric_infi 2.03
$end

$rem
threads 8
jobtype	sp
method PBEh-3c
basis def2-mSVP
mem_static	1024
mem_total	14000
sym_ignore	true
cis_n_roots             2
cis_singlets            false
cis_triplets		true
rpa                     false
calc_soc 		true
cis_moments             true
cis_relaxed_density	true
solvent_method		pcm
$end

$pcm
StateSpecific   1
ChargeSeparation Excited
$end

$molecule
read utleopt_dcm.mol
$end

--------------------------------------------------------------

   22   -2925.4858665365      7.10e-09  Convergence criterion met
 Total energy in the final basis set =    -2925.4858665365
 Total job time:  17724.84s(wall), 59273.08s(cpu)
        *  Thank you very much for using Q-Chem.  Have a nice day.  *
 Q-Chem 5.1, Q-Chem, Inc., Pleasanton, CA (2018)
 Q-Chem 5.1.1 for Intel X86 EM64T Linux

User input:
--------------------------------------------------------------
$rem
threads 8
jobtype sp
method PBEh-3c
basis def2-mSVP
mem_static      1024
mem_total       14000
sym_ignore      true
cis_n_roots             6
cis_singlets            true
cis_triplets            true
rpa                     false
calc_soc                true
cis_moments             true
cis_relaxed_density     true
solvent_method          pcm
$end

$molecule
read
$end

$pcm
statespecific           Marcus
$end

$solvent
dielectric      8.93
dielectric_infi 2.03
$end

--------------------------------------------------------------

             Standard Nuclear Orientation (Angstroms)
    I     Atom           X                Y                Z
 ----------------------------------------------------------------
    1      N       0.0000000000     0.0000000000     0.0000000000
    2      C       0.0000000000     0.0000000000     1.3873360000
    3      C       1.1280773805     0.0000000000    -0.8141156326
    4      C       2.4632240532     0.0970822864    -0.4428916460
    5      H       2.7723367263     0.1779229300     0.5898111891
    6      C       3.4020942650     0.1078782542    -1.4641622220
    7      H       4.4520037220     0.1725215404    -1.2146417234
    8      C       3.0117735341     0.0528783020    -2.7990317745
    9      H       3.7661875035     0.0681979149    -3.5737408264
   10      C      -1.1344017615    -0.0206328805    -0.8070856343
   11      C      -2.4667877896    -0.1220896074    -0.4262090259
   12      H      -2.7698223636    -0.1756446831     0.6099466611
   13      C      -3.4107842632    -0.1780184202    -1.4412361686
   14      H      -4.4583184599    -0.2485168569    -1.1832369153
   15      C      -3.0282606823    -0.1633534364    -2.7790794847
   16      H      -3.7863435537    -0.2158709568    -3.5485341085
   17      C      -1.6827078883    -0.1076713961    -3.1458366717
   18      H      -1.3966803274    -0.1316547504    -4.1887833059
   19      C      -0.7326190235    -0.0383415322    -2.1504876970
   20      C       1.6638219739     0.0003161492    -3.1578225590
   21      H       1.3730001514    -0.0126070656    -4.1997464123
   22      C       0.7185900831    -0.0227595408    -2.1559258748
   23      C      -0.8694591306     0.8507585803     2.0816029886
   24      H      -1.4848946642     1.5555329578     1.5368396088
   25      C      -0.8834998421     0.8455867582     3.4612668519
   26      C       0.8601365204    -0.8565186599     2.0864711774
   27      H       1.4927109495    -1.5491764453     1.5455961611
   28      C       0.8291743529    -0.8862295151     3.4670274367
   29      C      -0.0487183628    -0.0408660098     4.1775649495
   30      C       1.7028590078    -1.8430477200     4.2210717280
   31      H       2.3582870454    -2.4044723481     3.5567013812
   32      H       2.3237997372    -1.3125750122     4.9448927055
   33      H       1.1008704033    -2.5562324624     4.7869830516
   34      C      -1.7805633370     1.7890984907     4.2056657998
   35      H      -2.3629023621     2.4132490760     3.5289437017
   36      H      -1.2009487769     2.4441408875     4.8575415240
   37      H      -2.4748663101     1.2424461085     4.8461162965
   38      B      -0.1577845865    -0.0994649871     5.7567418184
   39      C       0.6930787028     0.8188955645     6.6386181970
   40      C       1.6453740212     1.7042863241     6.0818707938
   41      H       1.7817083376     1.7337556461     5.0047878058
   42      C       2.3911525692     2.5324894191     6.8868992202
   43      C       2.2121499320     2.4891764526     8.3015837694
   44      C       1.2863967375     1.6452974305     8.8614228674
   45      H       1.1462558425     1.6392465934     9.9377328258
   46      C       0.5011334066     0.8000579466     8.0554821708
   47      C       3.1041143688     3.4691211934     8.9093445296
   48      C       3.3645725307     3.8839451595    10.1930472489
   49      H       2.8612290488     3.4483047135    11.0479006375
   50      C       3.7935120657     4.0861577259     7.8471590339
   51      C       4.7269161338     5.1067867792     8.0146782952
   52      C       3.3992906573     3.5565428988     6.6000250559
   53      C       3.9737634771     4.0795033895     5.4679326177
   54      H       3.7129567631     3.7239062813     4.4787192839
   55      C       4.3142352687     4.9131224979    10.3908344581
   56      H       4.5191690423     5.2391055227    11.4028683243
   57      C       4.9810396838     5.5154172510     9.3473840660
   58      H       5.6971933999     6.3038265388     9.5451639237
   59      C       5.3042201137     5.6237178048     6.8299641807
   60      H       6.0369898675     6.4196764631     6.8855641613
   61      C       4.9281797498     5.1157965380     5.6066899250
   62      H       5.3766247739     5.5251164501     4.7103587875
   63      C      -1.1855879842    -1.0455944025     6.3892521242
   64      C      -1.9563115758    -1.9208701510     5.5907165598
   65      H      -1.8038718015    -1.9433291974     4.5157941279
   66      C      -2.9002620796    -2.7422501436     6.1572493722
   67      C      -3.1209164797    -2.7063634135     7.5683498686
   68      C      -2.3813466953    -1.8657196524     8.3646064269
   69      H      -2.5541915251    -1.8402003899     9.4366015443
   70      C      -1.3977801982    -1.0262197994     7.8050370007
   71      C      -4.1874248691    -3.6494566471     7.8850729390
   72      C      -4.8345040584    -4.0353458060     9.0341354982
   73      H      -4.5804218996    -3.6180537773    10.0010156230
   74      C      -4.5772763899    -4.2326136368     6.6614255554
   75      C      -5.5852779036    -5.1862436082     6.5394081509
   76      C      -3.8273327467    -3.7184993665     5.5828065790
   77      C      -4.0976428593    -4.1903694046     4.3218909774
   78      H      -3.5579201405    -3.8371265433     3.4518045033
   79      C      -5.8623669426    -5.0019596049     8.9377223868
   80      H      -6.3730251705    -5.3045075086     9.8434123936
   81      C      -6.2368161563    -5.5684021892     7.7395090946
   82      H      -7.0310480186    -6.3047193375     7.7147968494
   83      C      -5.1120899461    -5.1649895516     4.1671119037
   84      H      -5.3217429814    -5.5363514080     3.1719184989
   85      C      -5.8409895000    -5.6561522777     5.2275440417
   86      H      -6.6100241798    -6.3999947525     5.0576560695
   87      B      -0.5762680430    -0.0886683988     8.6963153912
   88      C      -0.8411296143     0.0429393945    10.2533102157
   89      C      -0.1762742410    -0.7716026345    11.1806161741
   90      C      -0.3350613360    -0.5568653495    12.5469477533
   91      H       0.2028801521    -1.1673574242    13.2635529097
   92      C      -1.1593611175     0.4598355677    12.9995020976
   93      C      -1.8498928351     1.2506581515    12.0947119751
   94      H      -2.4993747472     2.0380628750    12.4612655497
   95      C      -1.6944458986     1.0511552622    10.7282096037
   96      N      -1.2747427364     0.7290420726    14.3855460467
   97      C      -2.0334685181     0.0250769833    15.2939226005
   98      C      -0.7505747097     1.8382267281    15.0116830504
   99      C      -2.7829855628    -1.1315145963    15.1099565404
  100      H      -2.8250646184    -1.6304117761    14.1504389830
  101      C      -3.4815087751    -1.6213620337    16.2006457999
  102      H      -4.0753530841    -2.5189296986    16.0847390248
  103      C       0.0563894670     2.8456242882    14.4926328525
  104      H       0.3709628254     2.8405373440    13.4572024458
  105      C       0.4387376972     3.8643592854    15.3487486799
  106      H       1.0640489739     4.6628141192    14.9702748359
  107      C       0.0356565947     3.8872709698    16.6890905428
  108      H       0.3529783051     4.7013741570    17.3275229071
  109      C      -0.7645566711     2.8811421054    17.1995887739
  110      H      -1.0786116461     2.8994983835    18.2361989112
  111      C      -1.1642164397     1.8470328634    16.3571212969
  112      C      -3.4417727021    -0.9830841155    17.4458720314
  113      H      -4.0021588637    -1.3952538674    18.2747580249
  114      C      -2.6978838131     0.1700299649    17.6212604538
  115      H      -2.6730094426     0.6693342568    18.5824831439
  116      C      -1.9889055844     0.6833588529    16.5386992001
  117      C       0.7463410516    -1.8575081608    10.7039436856
  118      H       1.1923523058    -2.4004888611    11.5370962460
  119      H       0.2201666389    -2.5794023656    10.0768920418
  120      H       1.5584199309    -1.4477783225    10.0997246909
  121      C      -2.4285064400     1.9435048555     9.7667417448
  122      H      -3.1039548210     2.6219206100    10.2877873976
  123      H      -3.0178973582     1.3637173269     9.0543584592
  124      H      -1.7339769661     2.5495766175     9.1813042423
 ----------------------------------------------------------------

   26   -2925.4709972437      8.32e-09  Convergence criterion met
 Total energy in the final basis set =    -2925.4709972437

         TDDFT/TDA Excitation Energies
 ---------------------------------------------------

 Excited state   1: excitation energy (eV) =    0.0957
 Total energy for state  1:                 -2925.46748077 au
    <S**2>     :  2.0666
    Trans. Mom.: -0.0452 X   0.0015 Y   1.1310 Z
    Strength   :     0.0030035303
    D(251) --> S(  1) amplitude =  0.9965 beta

 Excited state   2: excitation energy (eV) =    0.3829
 Total energy for state  2:                 -2925.45692693 au
    <S**2>     :  2.0614
    Trans. Mom.: -0.0445 X  -0.0308 Y   0.4724 Z
    Strength   :     0.0021210112
    D(249) --> S(  1) amplitude =  0.9860 beta

 Excited state   3: excitation energy (eV) =    0.5489
 Total energy for state  3:                 -2925.45082559 au
    <S**2>     :  2.0593
    Trans. Mom.: -0.1594 X  -0.1557 Y   0.0392 Z
    Strength   :     0.0006883780
    D(248) --> S(  1) amplitude =  0.9884 beta

 Excited state   4: excitation energy (eV) =    0.6858
 Total energy for state  4:                 -2925.44579411 au
    <S**2>     :  2.0684
    Trans. Mom.:  0.0227 X  -0.0291 Y  -0.4575 Z
    Strength   :     0.0035394494
    D(250) --> S(  1) amplitude =  0.9885 beta

 Excited state   5: excitation energy (eV) =    0.8670
 Total energy for state  5:                 -2925.43913480 au
    <S**2>     :  2.0650
    Trans. Mom.: -0.1505 X  -0.1519 Y  -0.1277 Z
    Strength   :     0.0013179674
    D(246) --> S(  1) amplitude =  0.9917 beta

 Excited state   6: excitation energy (eV) =    1.1233
 Total energy for state  6:                 -2925.42971728 au
    <S**2>     :  2.0685
    Trans. Mom.:  0.0016 X  -0.0001 Y  -0.0614 Z
    Strength   :     0.0001039863
    D(247) --> S(  1) amplitude =  0.9982 beta

 ---------------------------------------------------

                    Orbital Energies (a.u.)
 --------------------------------------------------------------

 Alpha MOs
 -- Occupied --
-14.789 -14.681 -10.554 -10.543 -10.543 -10.510 -10.509 -10.504
-10.504 -10.498 -10.498 -10.495 -10.495 -10.494 -10.493 -10.492
-10.491 -10.491 -10.491 -10.481 -10.480 -10.476 -10.475 -10.449
-10.449 -10.447 -10.447 -10.447 -10.446 -10.444 -10.444 -10.444
-10.444 -10.444 -10.443 -10.443 -10.443 -10.443 -10.443 -10.443
-10.442 -10.442 -10.442 -10.441 -10.441 -10.441 -10.441 -10.441
-10.441 -10.440 -10.440 -10.440 -10.440 -10.440 -10.439 -10.436
-10.436 -10.436 -10.435 -10.434 -10.434 -10.432 -10.432 -10.431
-10.430 -10.430 -10.428 -10.413 -10.413 -10.412 -10.412 -10.411
-10.406 -10.406  -6.907  -6.899  -1.187  -1.102  -1.031  -1.007
 -0.997  -0.997  -0.995  -0.964  -0.945  -0.942  -0.940  -0.938
 -0.934  -0.916  -0.915  -0.913  -0.904  -0.899  -0.887  -0.878
 -0.878  -0.864  -0.861  -0.860  -0.844  -0.840  -0.835  -0.834
 -0.830  -0.829  -0.804  -0.803  -0.803  -0.800  -0.797  -0.794
 -0.793  -0.782  -0.782  -0.755  -0.753  -0.747  -0.745  -0.723
 -0.715  -0.711  -0.709  -0.707  -0.701  -0.693  -0.686  -0.680
 -0.680  -0.670  -0.660  -0.660  -0.646  -0.646  -0.641  -0.640
 -0.634  -0.633  -0.627  -0.626  -0.625  -0.601  -0.594  -0.584
 -0.580  -0.578  -0.576  -0.574  -0.572  -0.571  -0.564  -0.563
 -0.560  -0.558  -0.556  -0.553  -0.549  -0.543  -0.541  -0.541
 -0.531  -0.528  -0.524  -0.515  -0.512  -0.509  -0.509  -0.504
 -0.503  -0.502  -0.496  -0.492  -0.491  -0.488  -0.484  -0.483
 -0.481  -0.480  -0.477  -0.475  -0.472  -0.472  -0.471  -0.470
 -0.469  -0.469  -0.468  -0.467  -0.467  -0.465  -0.462  -0.456
 -0.456  -0.455  -0.451  -0.450  -0.449  -0.447  -0.446  -0.443
 -0.441  -0.437  -0.428  -0.423  -0.423  -0.421  -0.420  -0.417
 -0.416  -0.415  -0.411  -0.410  -0.410  -0.406  -0.397  -0.391
 -0.387  -0.385  -0.384  -0.381  -0.381  -0.381  -0.379  -0.377
 -0.375  -0.371  -0.366  -0.358  -0.355  -0.355  -0.352  -0.340
 -0.332  -0.325  -0.323  -0.322  -0.319  -0.309  -0.307  -0.300
 -0.295  -0.294  -0.283  -0.281  -0.269  -0.268  -0.266  -0.251
 -0.249  -0.240  -0.238  -0.235  -0.150

 Beta MOs
 -- Occupied --
-14.781 -14.681 -10.553 -10.545 -10.544 -10.509 -10.508 -10.502
-10.502 -10.499 -10.499 -10.494 -10.494 -10.494 -10.493 -10.493
-10.492 -10.490 -10.489 -10.481 -10.480 -10.475 -10.472 -10.450
-10.449 -10.448 -10.448 -10.446 -10.446 -10.445 -10.444 -10.444
-10.444 -10.444 -10.443 -10.443 -10.443 -10.443 -10.443 -10.442
-10.442 -10.442 -10.441 -10.441 -10.441 -10.441 -10.441 -10.440
-10.440 -10.440 -10.440 -10.440 -10.440 -10.439 -10.439 -10.436
-10.435 -10.435 -10.434 -10.434 -10.434 -10.432 -10.432 -10.431
-10.431 -10.430 -10.429 -10.412 -10.412 -10.412 -10.412 -10.411
-10.405 -10.405  -6.904  -6.896  -1.175  -1.102  -1.026  -1.006
 -0.997  -0.996  -0.990  -0.964  -0.945  -0.940  -0.937  -0.937
 -0.934  -0.915  -0.915  -0.911  -0.899  -0.897  -0.885  -0.878
 -0.878  -0.865  -0.861  -0.852  -0.844  -0.840  -0.833  -0.833
 -0.829  -0.828  -0.803  -0.802  -0.800  -0.797  -0.794  -0.793
 -0.792  -0.780  -0.777  -0.755  -0.753  -0.745  -0.742  -0.723
 -0.713  -0.709  -0.707  -0.705  -0.700  -0.691  -0.685  -0.680
 -0.677  -0.669  -0.659  -0.656  -0.646  -0.643  -0.638  -0.638
 -0.633  -0.633  -0.626  -0.625  -0.622  -0.591  -0.589  -0.584
 -0.580  -0.577  -0.574  -0.573  -0.569  -0.568  -0.564  -0.563
 -0.557  -0.555  -0.554  -0.550  -0.548  -0.541  -0.540  -0.536
 -0.531  -0.528  -0.523  -0.514  -0.512  -0.508  -0.507  -0.502
 -0.501  -0.498  -0.494  -0.491  -0.490  -0.487  -0.484  -0.482
 -0.481  -0.480  -0.476  -0.474  -0.471  -0.470  -0.470  -0.469
 -0.468  -0.467  -0.467  -0.464  -0.462  -0.462  -0.456  -0.456
 -0.455  -0.454  -0.450  -0.449  -0.449  -0.446  -0.446  -0.441
 -0.440  -0.435  -0.423  -0.423  -0.420  -0.418  -0.417  -0.416
 -0.415  -0.410  -0.409  -0.407  -0.404  -0.403  -0.396  -0.390
 -0.387  -0.384  -0.380  -0.379  -0.379  -0.378  -0.377  -0.376
 -0.374  -0.369  -0.365  -0.354  -0.351  -0.347  -0.341  -0.331
 -0.326  -0.325  -0.321  -0.318  -0.311  -0.300  -0.299  -0.295
 -0.295  -0.280  -0.279  -0.268  -0.266  -0.258  -0.249  -0.243
 -0.237  -0.235  -0.231

          Ground-State Mulliken Net Atomic Charges

     Atom                 Charge (a.u.)    Spin (a.u.)
  --------------------------------------------------------
      1 N                    -0.683573       0.283856
      2 C                     0.357731       0.092845
      3 C                     0.327311      -0.088425
      4 C                    -0.273155       0.138297
      5 H                     0.303897      -0.007316
      6 C                    -0.258551      -0.079785
      7 H                     0.280767       0.003581
      8 C                    -0.238684       0.132038
      9 H                     0.276709      -0.007261
     10 C                     0.324670      -0.087394
     11 C                    -0.272558       0.137145
     12 H                     0.305441      -0.007274
     13 C                    -0.258043      -0.078272
     14 H                     0.281558       0.003508
     15 C                    -0.238634       0.129565
     16 H                     0.276801      -0.007125
     17 C                    -0.361484      -0.040464
     18 H                     0.268041       0.002105
     19 C                     0.102736       0.070239
     20 C                    -0.361765      -0.042323
     21 H                     0.268305       0.002183
     22 C                     0.102206       0.072646
     23 C                    -0.375425       0.069386
     24 H                     0.293204      -0.004022
     25 C                     0.031037      -0.049933
     26 C                    -0.364092       0.074663
     27 H                     0.292362      -0.004261
     28 C                     0.042397      -0.051914
     29 C                    -0.119939       0.286905
     30 C                    -0.759302       0.005880
     31 H                     0.250145       0.001236
     32 H                     0.273561      -0.000463
     33 H                     0.273847      -0.002019
     34 C                    -0.763615       0.005095
     35 H                     0.251689       0.001472
     36 H                     0.274206      -0.002184
     37 H                     0.277136      -0.000161
     38 B                     0.545031       0.351768
     39 C                    -0.136950       0.013748
     40 C                    -0.416440      -0.000007
     41 H                     0.207845      -0.001699
     42 C                     0.078249       0.028332
     43 C                     0.058599       0.098742
     44 C                    -0.397537      -0.057122
     45 H                     0.235478       0.002255
     46 C                    -0.143136       0.066454
     47 C                     0.177251      -0.058516
     48 C                    -0.402907       0.084788
     49 H                     0.247771      -0.004930
     50 C                    -0.075990       0.023505
     51 C                     0.218482      -0.036378
     52 C                     0.175368      -0.040671
     53 C                    -0.410200       0.062743
     54 H                     0.234008      -0.003680
     55 C                    -0.233588      -0.052294
     56 H                     0.251137       0.002498
     57 C                    -0.358801       0.077202
     58 H                     0.247335      -0.004505
     59 C                    -0.360656       0.058079
     60 H                     0.247812      -0.003337
     61 C                    -0.232568      -0.042621
     62 H                     0.245784       0.002106
     63 C                    -0.132426       0.018645
     64 C                    -0.409292      -0.004408
     65 H                     0.206770      -0.001854
     66 C                     0.071943       0.032822
     67 C                     0.062914       0.098131
     68 C                    -0.404004      -0.056158
     69 H                     0.232346       0.002195
     70 C                    -0.146567       0.064861
     71 C                     0.174627      -0.059509
     72 C                    -0.402164       0.086691
     73 H                     0.247380      -0.005027
     74 C                    -0.076825       0.024078
     75 C                     0.217973      -0.037789
     76 C                     0.178683      -0.043044
     77 C                    -0.409579       0.066578
     78 H                     0.232332      -0.003906
     79 C                    -0.232843      -0.053698
     80 H                     0.251268       0.002569
     81 C                    -0.359781       0.079146
     82 H                     0.247174      -0.004618
     83 C                    -0.232684      -0.044846
     84 H                     0.244968       0.002212
     85 C                    -0.360914       0.061744
     86 H                     0.247519      -0.003555
     87 B                     0.571513       0.276708
     88 C                    -0.180236      -0.023961
     89 C                     0.031689       0.003326
     90 C                    -0.350736      -0.000883
     91 H                     0.244128       0.000356
     92 C                     0.278068       0.000935
     93 C                    -0.346824      -0.000932
     94 H                     0.245031       0.000327
     95 C                     0.023621       0.003443
     96 N                    -0.726325      -0.000024
     97 C                     0.340980       0.000012
     98 C                     0.337439       0.000008
     99 C                    -0.306035       0.000011
    100 H                     0.261291      -0.000001
    101 C                    -0.268243      -0.000005
    102 H                     0.247764       0.000000
    103 C                    -0.303669       0.000010
    104 H                     0.264274       0.000004
    105 C                    -0.268399      -0.000009
    106 H                     0.248604       0.000001
    107 C                    -0.263954       0.000015
    108 H                     0.242707      -0.000001
    109 C                    -0.366047      -0.000005
    110 H                     0.240139       0.000001
    111 C                     0.069162       0.000010
    112 C                    -0.264049       0.000009
    113 H                     0.242651      -0.000001
    114 C                    -0.365692      -0.000001
    115 H                     0.240420       0.000000
    116 C                     0.067783       0.000005
    117 C                    -0.762309       0.000490
    118 H                     0.244076       0.001288
    119 H                     0.248267      -0.000591
    120 H                     0.248173      -0.000713
    121 C                    -0.764933       0.000421
    122 H                     0.245200       0.001450
    123 H                     0.247909      -0.000835
    124 H                     0.249427      -0.000637
  --------------------------------------------------------
  Sum of atomic charges =    -0.000000

                    Cartesian Multipole Moments
 -----------------------------------------------------------------
    Charge (ESU x 10^10)
                -0.0000
    Dipole Moment (Debye)
         X       1.6505      Y      -0.1903      Z     -27.2936
       Tot      27.3441
    Quadrupole Moments (Debye-Ang)
        XX    -408.4180     XY      10.1007     YY    -432.5841
        XZ      12.8832     YZ      -2.4788     ZZ    -648.2161

 Total job time:  23708.91s(wall), 80211.62s(cpu)
        *  Thank you very much for using Q-Chem.  Have a nice day.  *
