 Q-Chem 5.1, Q-Chem, Inc., Pleasanton, CA (2018)
 Q-Chem 5.1.1 for Intel X86 EM64T Linux

User input:
--------------------------------------------------------------
$solvent
dielectric      1.0001
dielectric_infi 1.00009
$end

$rem
threads 8
jobtype	sp
method PBEh-3c
basis def2-mSVP
mem_static	1024
mem_total	14000
sym_ignore	true
cis_n_roots             2
cis_singlets            false
cis_triplets		true
rpa                     false
calc_soc 		true
cis_moments             true
cis_relaxed_density	true
solvent_method		pcm
$end

$pcm
StateSpecific   1
ChargeSeparation Excited
$end

$molecule
read utleopt_vac.mol
$end

--------------------------------------------------------------

   15   -2925.5235148312      7.22e-09  Convergence criterion met
 Total energy in the final basis set =    -2925.5235148312

         TDDFT/TDA Excitation Energies
 ---------------------------------------------------

 Excited state   1: excitation energy (eV) =    1.9333
 Total energy for state  1:                 -2925.45246823 au
    Multiplicity: Triplet
    Trans. Mom.:  0.0000 X   0.0000 Y   0.0000 Z
    Strength   :     0.0000000000
    D(245) --> V(  2) amplitude = -0.2410
    D(248) --> V(  1) amplitude =  0.9304

 Excited state   2: excitation energy (eV) =    2.3354
 Total energy for state  2:                 -2925.43768960 au
    Multiplicity: Triplet
    Trans. Mom.:  0.0000 X   0.0000 Y   0.0000 Z
    Strength   :     0.0000000000
    D(246) --> V(  2) amplitude = -0.4642
    D(247) --> V(  1) amplitude = -0.8207

 ---------------------------------------------------

                    Orbital Energies (a.u.)
 --------------------------------------------------------------

 Alpha MOs
 -- Occupied --
-14.688 -14.687 -10.493 -10.492 -10.483 -10.483 -10.483 -10.483
-10.471 -10.471 -10.471 -10.471 -10.471 -10.471 -10.470 -10.470
-10.470 -10.469 -10.468 -10.468 -10.468 -10.468 -10.467 -10.467
-10.466 -10.465 -10.465 -10.465 -10.465 -10.465 -10.463 -10.463
-10.463 -10.463 -10.461 -10.460 -10.460 -10.459 -10.453 -10.452
-10.449 -10.448 -10.448 -10.448 -10.446 -10.446 -10.446 -10.446
-10.445 -10.445 -10.445 -10.445 -10.444 -10.444 -10.444 -10.444
-10.444 -10.444 -10.444 -10.444 -10.443 -10.443 -10.442 -10.442
-10.437 -10.437 -10.437 -10.437 -10.436 -10.435 -10.434 -10.434
-10.434 -10.433  -6.951  -6.951  -1.107  -1.107  -1.020  -1.020
 -0.977  -0.977  -0.964  -0.962  -0.948  -0.948  -0.946  -0.945
 -0.939  -0.939  -0.912  -0.902  -0.888  -0.886  -0.882  -0.882
 -0.866  -0.864  -0.854  -0.853  -0.853  -0.852  -0.843  -0.843
 -0.824  -0.821  -0.818  -0.808  -0.808  -0.807  -0.807  -0.804
 -0.778  -0.777  -0.773  -0.773  -0.741  -0.740  -0.735  -0.730
 -0.729  -0.725  -0.699  -0.696  -0.693  -0.685  -0.685  -0.684
 -0.681  -0.674  -0.656  -0.656  -0.652  -0.649  -0.649  -0.648
 -0.643  -0.643  -0.605  -0.600  -0.599  -0.596  -0.594  -0.594
 -0.589  -0.586  -0.586  -0.583  -0.581  -0.572  -0.572  -0.558
 -0.557  -0.553  -0.548  -0.547  -0.533  -0.532  -0.528  -0.521
 -0.519  -0.518  -0.518  -0.516  -0.508  -0.507  -0.501  -0.500
 -0.499  -0.498  -0.498  -0.497  -0.492  -0.490  -0.490  -0.489
 -0.488  -0.488  -0.486  -0.485  -0.485  -0.483  -0.480  -0.480
 -0.479  -0.476  -0.474  -0.473  -0.473  -0.471  -0.468  -0.468
 -0.467  -0.462  -0.449  -0.447  -0.446  -0.445  -0.441  -0.435
 -0.434  -0.429  -0.426  -0.423  -0.422  -0.422  -0.421  -0.414
 -0.411  -0.411  -0.408  -0.408  -0.405  -0.401  -0.401  -0.401
 -0.399  -0.399  -0.398  -0.395  -0.393  -0.392  -0.390  -0.389
 -0.384  -0.376  -0.374  -0.371  -0.371  -0.357  -0.354  -0.346
 -0.330  -0.326  -0.326  -0.323  -0.301  -0.301  -0.296  -0.296
 -0.289  -0.286  -0.286  -0.285  -0.283  -0.268  -0.260  -0.255
 -0.251  -0.250  -0.236  -0.235

          Ground-State Mulliken Net Atomic Charges

     Atom                 Charge (a.u.)
  ----------------------------------------
      1 N                    -0.739174
      2 C                     0.340774
      3 C                     0.344447
      4 C                    -0.281014
      5 H                     0.231713
      6 C                    -0.235636
      7 H                     0.215653
      8 C                    -0.279186
      9 H                     0.232050
     10 C                    -0.235714
     11 H                     0.215583
     12 C                    -0.228556
     13 H                     0.214633
     14 C                    -0.342705
     15 H                     0.205173
     16 C                     0.094870
     17 C                    -0.228514
     18 H                     0.214554
     19 C                    -0.342402
     20 H                     0.205246
     21 C                     0.094580
     22 C                     0.309079
     23 C                    -0.343997
     24 H                     0.232696
     25 C                    -0.343200
     26 H                     0.236966
     27 C                     0.047686
     28 C                     0.050991
     29 C                    -0.214846
     30 C                    -0.755755
     31 H                     0.239861
     32 H                     0.245375
     33 H                     0.246609
     34 C                    -0.761607
     35 H                     0.242098
     36 H                     0.247814
     37 H                     0.248553
     38 B                     0.686534
     39 C                    -0.154459
     40 C                    -0.384683
     41 H                     0.229014
     42 C                     0.087699
     43 C                     0.197780
     44 C                    -0.369361
     45 H                     0.220950
     46 C                    -0.205963
     47 H                     0.229599
     48 C                    -0.330748
     49 H                     0.223078
     50 C                    -0.068687
     51 C                     0.250335
     52 C                     0.204263
     53 C                    -0.376219
     54 H                     0.223596
     55 C                    -0.204854
     56 H                     0.230296
     57 C                    -0.332918
     58 H                     0.223276
     59 C                     0.098706
     60 C                    -0.384940
     61 H                     0.233426
     62 C                    -0.150353
     63 C                    -0.149219
     64 C                    -0.377811
     65 H                     0.233002
     66 C                     0.083141
     67 C                     0.200765
     68 C                    -0.370099
     69 H                     0.222325
     70 C                    -0.206895
     71 H                     0.230450
     72 C                    -0.329865
     73 H                     0.223143
     74 C                    -0.068657
     75 C                     0.251019
     76 C                     0.201512
     77 C                    -0.376818
     78 H                     0.221454
     79 C                    -0.204369
     80 H                     0.229468
     81 C                    -0.333239
     82 H                     0.223320
     83 C                     0.103512
     84 C                    -0.392328
     85 H                     0.229692
     86 C                    -0.155892
     87 B                     0.686716
     88 C                    -0.211863
     89 C                     0.052386
     90 C                    -0.342174
     91 H                     0.236072
     92 C                     0.315029
     93 C                    -0.353603
     94 H                     0.236248
     95 C                     0.046022
     96 N                    -0.741037
     97 C                     0.342318
     98 C                     0.337927
     99 C                    -0.281297
    100 H                     0.234878
    101 C                    -0.236792
    102 H                     0.216255
    103 C                    -0.281344
    104 H                     0.235174
    105 C                    -0.236968
    106 H                     0.216040
    107 C                    -0.227779
    108 H                     0.214426
    109 C                    -0.346787
    110 H                     0.205428
    111 C                     0.103208
    112 C                    -0.228172
    113 H                     0.214557
    114 C                    -0.345636
    115 H                     0.205445
    116 C                     0.095588
    117 C                    -0.757184
    118 H                     0.240194
    119 H                     0.245577
    120 H                     0.247370
    121 C                    -0.762673
    122 H                     0.241679
    123 H                     0.248563
    124 H                     0.248536
  ----------------------------------------
  Sum of atomic charges =    -0.000000

                    Cartesian Multipole Moments
 -----------------------------------------------------------------
    Charge (ESU x 10^10)
                -0.0000
    Dipole Moment (Debye)
         X       0.1319      Y       0.2224      Z      -0.1871
       Tot       0.3191
    Quadrupole Moments (Debye-Ang)
        XX    -431.6691     XY     -18.3765     YY    -427.2375
        XZ     -28.2335     YZ      24.4710     ZZ    -393.2520

 Total job time:  12501.33s(wall), 37018.09s(cpu)
        *  Thank you very much for using Q-Chem.  Have a nice day.  *
 Q-Chem 5.1, Q-Chem, Inc., Pleasanton, CA (2018)
 Q-Chem 5.1.1 for Intel X86 EM64T Linux

User input:
--------------------------------------------------------------
$rem
threads 8
jobtype sp
method PBEh-3c
basis def2-mSVP
mem_static      1024
mem_total       14000
sym_ignore      true
cis_n_roots             6
cis_singlets            true
cis_triplets            true
rpa                     false
calc_soc                true
cis_moments             true
cis_relaxed_density     true
solvent_method          pcm
$end

$molecule
read
$end

$pcm
statespecific           Marcus
$end

$solvent
dielectric      1.0001
dielectric_infi 1.00009
$end

--------------------------------------------------------------

             Standard Nuclear Orientation (Angstroms)
    I     Atom           X                Y                Z
 ----------------------------------------------------------------
    1      N       0.0000000000     0.0000000000     0.0000000000
    2      C       0.0000000000     0.0000000000     1.3796870000
    3      C       1.3073941479     0.0000000000    -0.4421211125
    4      C       1.8016540236    -0.0380362475    -1.7393610409
    5      H       1.1399651959    -0.0559588770    -2.5949559907
    6      C       3.1758834166    -0.0600952692    -1.8999205006
    7      H       3.5883048926    -0.0901327065    -2.8999425401
    8      C      -1.0725832127    -0.0009725848     2.2646016981
    9      H      -2.0955001817    -0.0073638905     1.9125552499
   10      C      -0.7884764253     0.0003769034     3.6184582887
   11      H      -1.6061289081    -0.0041695455     4.3275736946
   12      C       0.5267164936     0.0053374620     4.0910159247
   13      H       0.7116391109     0.0041016852     5.1568632848
   14      C       1.5880150700     0.0108527048     3.2060727987
   15      H       2.6073466333     0.0151569947     3.5718937566
   16      C       1.3280592531     0.0076111227     1.8396250664
   17      C       4.0426843620    -0.0498590825    -0.8036014923
   18      H       5.1116270206    -0.0702857681    -0.9684105387
   19      C       3.5438478921    -0.0194599632     0.4847640148
   20      H       4.2146114190    -0.0209993762     1.3350935939
   21      C       2.1664194301     0.0045331646     0.6723864759
   22      C      -1.1564485579    -0.1096962557    -0.8014567540
   23      C      -1.5071147339     0.9033078148    -1.6793403506
   24      H      -0.8757156278     1.7806989716    -1.7597613010
   25      C      -1.9647132848    -1.2295726273    -0.6806554431
   26      H      -1.6719606459    -2.0253672953    -0.0052799063
   27      C      -3.1459767595    -1.3264159083    -1.4033325911
   28      C      -2.6782255588     0.8116555895    -2.4241759073
   29      C      -3.5210730945    -0.2977100979    -2.2795055227
   30      C      -3.0599281425     1.9303962176    -3.3517080849
   31      H      -2.3069717496     2.7178931544    -3.3644255891
   32      H      -3.1857552898     1.5748691077    -4.3759814308
   33      H      -4.0082043255     2.3847775316    -3.0569338645
   34      C      -4.0256212825    -2.5318811246    -1.2239746020
   35      H      -3.5735480004    -3.2605421978    -0.5516892401
   36      H      -4.2197661117    -3.0323127945    -2.1742293314
   37      H      -4.9968291418    -2.2563893510    -0.8071681110
   38      B      -4.9212965864    -0.3714739942    -3.0059861599
   39      C      -5.0978029084    -1.0238159361    -4.3752189811
   40      C      -3.9790351437    -1.5197627928    -5.0647119150
   41      H      -2.9985013058    -1.4391915273    -4.6075535923
   42      C      -4.1295917298    -2.1023413594    -6.2962461856
   43      C      -3.1724734937    -2.6941701342    -7.2026622737
   44      C      -1.8121791759    -2.8983467894    -7.1755163281
   45      H      -1.2045437087    -2.5830868806    -6.3368061630
   46      C      -1.2104251812    -3.5414070380    -8.2754197552
   47      H      -0.1409661447    -3.7058241779    -8.2580666033
   48      C      -1.9331952154    -3.9688448260    -9.3686320125
   49      H      -1.4241025140    -4.4589561313   -10.1892273691
   50      C      -3.9068063774    -3.1366490915    -8.3245187347
   51      C      -3.3345882745    -3.7731271765    -9.4220981968
   52      C      -5.2857827402    -2.8652929686    -8.1896187579
   53      C      -6.1296295629    -3.2437838240    -9.2065685472
   54      H      -7.1956261061    -3.0620479776    -9.1604297741
   55      C      -5.5754435881    -3.8853712160   -10.3339858338
   56      H      -6.2383499263    -4.1824952679   -11.1358456548
   57      C      -4.2280170541    -4.1491362296   -10.4531043720
   58      H      -3.8539013530    -4.6472885524   -11.3388256244
   59      C      -5.4487425774    -2.2120755874    -6.9053678305
   60      C      -6.5524233578    -1.7496943194    -6.2383273682
   61      H      -7.5383627790    -1.8471862329    -6.6784831669
   62      C      -6.4216943549    -1.1503080211    -4.9704379423
   63      C      -6.1605360365     0.1770391019    -2.2955174765
   64      C      -6.0182026001     0.8192853042    -1.0559755504
   65      H      -5.0277654936     0.9488340682    -0.6343563145
   66      C      -7.1201600126     1.2570349274    -0.3722974332
   67      C      -7.2459970803     1.9039579683     0.9125530280
   68      C      -6.3589837597     2.3319260723     1.8734352150
   69      H      -5.2885966754     2.2258188937     1.7499360385
   70      C      -6.8742067998     2.9196251181     3.0458383221
   71      H      -6.1799045567     3.2591158354     3.8032339729
   72      C      -8.2266125544     3.0735672717     3.2628563717
   73      H      -8.5753302829     3.5273122074     4.1822010939
   74      C      -8.6280537028     2.0698412476     1.1384378754
   75      C      -9.1599351176     2.6390597266     2.2921753100
   76      C      -9.3988398267     1.5706324186     0.0652084400
   77      C     -10.7683458509     1.6456763152     0.1586962964
   78      H     -11.4142220931     1.2746377954    -0.6264540104
   79      C     -11.3338265883     2.2187219067     1.3170038981
   80      H     -12.4117787249     2.2754706959     1.3901304230
   81      C     -10.5708302658     2.7044918078     2.3564789822
   82      H     -11.0538985830     3.1332919223     3.2256390420
   83      C      -8.4576828500     1.0543675055    -0.9108255743
   84      C      -8.6148702067     0.4506767084    -2.1320896875
   85      H      -9.6042080017     0.3010912679    -2.5500528681
   86      C      -7.4926185250     0.0066573494    -2.8597410778
   87      B      -7.6695522703    -0.6715076258    -4.2199383274
   88      C      -9.0976713014    -0.9387745590    -4.8400390808
   89      C      -9.6774434226    -0.0485438897    -5.7520399922
   90      C     -10.8918939896    -0.3579205843    -6.3549502517
   91      H     -11.3220716254     0.3148679442    -7.0876281210
   92      C     -11.5512777169    -1.5372558932    -6.0399782395
   93      C     -10.9984956448    -2.4087634937    -5.1131691509
   94      H     -11.5290153399    -3.3180021846    -4.8565492361
   95      C      -9.7744901286    -2.1235010640    -4.5200214223
   96      N     -12.7695578605    -1.8637889175    -6.6759400329
   97      C     -13.9275320683    -1.1123480979    -6.6562772310
   98      C     -12.9707996392    -2.9564078845    -7.4957475125
   99      C     -14.1912768629     0.0646943361    -5.9666110423
  100      H     -13.4436924751     0.5278287957    -5.3360959227
  101      C     -15.4465748882     0.6240877542    -6.1163209179
  102      H     -15.6803838639     1.5425409261    -5.5939377318
  103      C     -12.0748579974    -3.9601929007    -7.8453450782
  104      H     -11.0645860123    -3.9744944329    -7.4581643262
  105      C     -12.5205230028    -4.9399910908    -8.7124806848
  106      H     -11.8454770324    -5.7347955968    -9.0023010355
  107      C     -13.8211171053    -4.9233219722    -9.2235389750
  108      H     -14.1379885969    -5.7061752188    -9.8992995706
  109      C     -14.7006674305    -3.9146479784    -8.8771160846
  110      H     -15.7044758298    -3.9006470522    -9.2821607647
  111      C     -14.2772580889    -2.9157012001    -8.0071104924
  112      C     -16.4176659853     0.0280062283    -6.9257811080
  113      H     -17.3893283113     0.4932308577    -7.0225599895
  114      C     -16.1481964418    -1.1486157989    -7.5995773781
  115      H     -16.9051812584    -1.6088226744    -8.2219599882
  116      C     -14.8926344025    -1.7312709630    -7.4679414533
  117      C      -8.9673635311     1.2290506242    -6.1018205065
  118      H      -9.5451114354     1.8369013568    -6.7973954029
  119      H      -8.7766147897     1.8334725689    -5.2128145697
  120      H      -7.9969701840     1.0325858294    -6.5625790488
  121      C      -9.1764528785    -3.0879986102    -3.5336996165
  122      H      -9.8083697998    -3.9638547405    -3.3884820844
  123      H      -9.0310645783    -2.6212300260    -2.5576953863
  124      H      -8.1967547290    -3.4395693901    -3.8639056895
 ----------------------------------------------------------------
