 Q-Chem 5.1, Q-Chem, Inc., Pleasanton, CA (2018)
 Q-Chem 5.1.1 for Intel X86 EM64T Linux

User input:
--------------------------------------------------------------
$rem
threads 8
jobtype	opt
method PBEh-3c
basis def2-mSVP
mem_static	512
mem_total	6096
sym_ignore	true
$end

$molecule
0 1
C         -7.53453       17.34658        5.45553
C         -7.99708       15.97413        5.04603
C         -6.95533       14.94150        4.70886
O         -9.19726       15.70301        4.98832
H         -5.94697       15.34915        4.81229
H         -7.09423       14.61601        3.67478
H         -7.05838       14.09237        5.38925
H         -6.44401       17.41305        5.45303
H         -7.89338       17.55962        6.46568
H         -7.92923       18.08326        4.75121
$end

--------------------------------------------------------------

   12    -192.7327202064      3.21e-09  Convergence criterion met
 Total energy in the final basis set =     -192.7327202064
   10    -192.7348119217      9.11e-09  Convergence criterion met
 Total energy in the final basis set =     -192.7348119217
    9    -192.7348887186      7.73e-09  Convergence criterion met
 Total energy in the final basis set =     -192.7348887186
    8    -192.7348918923      8.56e-09  Convergence criterion met
 Total energy in the final basis set =     -192.7348918923

             Standard Nuclear Orientation (Angstroms)
    I     Atom           X                Y                Z
 ----------------------------------------------------------------
    1      C      -7.5301583969    17.3548592157     5.4572039480
    2      C      -7.9970892526    15.9743153190     5.0454706327
    3      C      -6.9477847333    14.9361499736     4.7073583557
    4      O      -9.1699305513    15.7085537466     4.9916841096
    5      H      -5.9275225670    15.3007341918     4.8008326709
    6      H      -7.0989993141    14.5827540079     3.6864068853
    7      H      -7.0684180398    14.0688255568     5.3580057623
    8      H      -6.4482147098    17.4644689898     5.4662131006
    9      H      -7.9121934179    17.5882732786     6.4519887140
   10      H      -7.9500890173    18.0997457202     4.7798158209
 ----------------------------------------------------------------

    8    -192.7348915208      7.00e-09  Convergence criterion met
 Total energy in the final basis set =     -192.7348915208
 Final energy is   -192.734891520780
 **  OPTIMIZATION CONVERGED  **

                    Orbital Energies (a.u.)
 --------------------------------------------------------------

 Alpha MOs
 -- Occupied --
-19.481 -10.538 -10.440 -10.440  -1.155  -0.856  -0.798  -0.604
 -0.525  -0.517  -0.517  -0.463  -0.458  -0.432  -0.395  -0.304

          Ground-State Mulliken Net Atomic Charges

     Atom                 Charge (a.u.)
  ----------------------------------------
      1 C                    -0.746494
      2 C                     0.354487
      3 C                    -0.746429
      4 O                    -0.336827
      5 H                     0.219921
      6 H                     0.258760
      7 H                     0.258938
      8 H                     0.219906
      9 H                     0.258915
     10 H                     0.258824
  ----------------------------------------
  Sum of atomic charges =    -0.000000

                    Cartesian Multipole Moments
 -----------------------------------------------------------------
    Charge (ESU x 10^10)
                -0.0000
    Dipole Moment (Debye)
         X       2.6358      Y       0.5967      Z       0.1223
       Tot       2.7052
    Quadrupole Moments (Debye-Ang)
        XX     -69.5987     XY      36.2732     YY      -4.0068
        XZ      12.0813     YZ       5.2134     ZZ     -22.4909

 Total job time:  5.10s(wall), 40.55s(cpu)
        *  Thank you very much for using Q-Chem.  Have a nice day.  *
