 Q-Chem 5.0, Q-Chem, Inc., Pleasanton, CA (2017)
 Q-Chem 5.0.1 for Intel X86 EM64T Linux

User input:
--------------------------------------------------------------
$solvent
dielectric      2.38
dielectric_infi 2.25
$end

$rem
threads 8
jobtype	sp
method PBEh-3c
basis def2-mSVP
mem_static	1024
mem_total	14000
sym_ignore	true
cis_n_roots             2
cis_singlets            true
cis_triplets		false
rpa                     false
calc_soc 		true
cis_moments             true
cis_relaxed_density	true
solvent_method		pcm
$end

$pcm
StateSpecific   1
ChargeSeparation Excited
$end

$molecule
read moms1opt_tol.mol
$end

--------------------------------------------------------------

   15   -2123.8059772318      4.95E-09 Convergence criterion met
 Total energy in the final basis set = -2123.80597723
 Q-Chem 5.0, Q-Chem, Inc., Pleasanton, CA (2017)
 Q-Chem 5.0.1 for Intel X86 EM64T Linux

User input:
--------------------------------------------------------------
$rem
threads 8
jobtype sp
method PBEh-3c
basis def2-mSVP
mem_static      1024
mem_total       14000
sym_ignore      true
cis_n_roots             6
cis_singlets            true
cis_triplets            true
rpa                     false
calc_soc                true
cis_moments             true
cis_relaxed_density     true
solvent_method          pcm
$end

$molecule
read
$end

$pcm
statespecific           Marcus
$end

$solvent
dielectric      2.38
dielectric_infi 2.25
$end

--------------------------------------------------------------

             Standard Nuclear Orientation (Angstroms)
    I     Atom           X                Y                Z
 ----------------------------------------------------------------
    1      C       0.0000000000     0.0000000000     0.0000000000
    2      C       0.0000000000     0.0000000000     1.4139030000
    3      H       0.9399891065     0.0000000000     1.9592811699
    4      C      -1.1794543080    -0.0342293299     2.1115528513
    5      C      -2.4231928681    -0.0767034790     1.4143268127
    6      C      -2.4437533283    -0.0500992341     0.0403271480
    7      H      -3.3884493938    -0.0884804399    -0.4926342249
    8      C      -1.2455970129    -0.0103040637    -0.6971283107
    9      C      -3.4913348792    -0.2145804955     2.4014998082
   10      C      -4.8545477207    -0.3740340562     2.3510937640
   11      H      -5.3935814141    -0.3881791148     1.4119224323
   12      C      -2.8627004307    -0.2293863833     3.6637977591
   13      C      -3.5362461296    -0.3948089723     4.8720643436
   14      C      -1.4630977562    -0.1201334539     3.5449150680
   15      C      -0.7074594463    -0.1593021538     4.6900597464
   16      H       0.3733119763    -0.0935733443     4.6644964797
   17      C      -1.3657503742    -0.3052482503     5.9332086045
   18      H      -0.7672601459    -0.3372731755     6.8349369945
   19      C      -2.7329018233    -0.4221621669     6.0373538640
   20      H      -3.1932573701    -0.5472877461     7.0101343796
   21      C      -5.5638233529    -0.5391716870     3.5639100673
   22      H      -6.6378528893    -0.6690211600     3.5191491976
   23      C      -4.9421477770    -0.5494809190     4.7913046645
   24      H      -5.5259030309    -0.6879956237     5.6933791462
   25      B       1.2999839082    -0.0779030710    -0.7969548257
   26      C       1.3000355965    -0.0963588487    -2.3230862344
   27      C       2.4982320813    -0.2070345282    -3.0662898961
   28      H       3.4540445121    -0.2276588428    -2.5495368943
   29      C       2.4644295081    -0.3323626441    -4.4325513779
   30      C       1.2119663856    -0.3532490552    -5.1147347894
   31      C       0.0384650746    -0.2180151336    -4.4117272539
   32      H      -0.9148793985    -0.2493200624    -4.9294291110
   33      C       0.0479350112    -0.0921250047    -3.0109206155
   34      C       1.4662185808    -0.6370132440    -6.5217227524
   35      C       0.6789436458    -0.8614196976    -7.6235069100
   36      H      -0.4011727907    -0.7967889961    -7.5756533494
   37      C       2.8640297985    -0.7626142672    -6.6556548073
   38      C       3.5061899753    -1.1096509151    -7.8411774969
   39      C       3.5175059816    -0.5748245322    -5.4205494489
   40      C       4.8823708644    -0.7108734829    -5.3808555218
   41      H       5.4423366739    -0.5920383718    -4.4613258792
   42      C       1.3064957364    -1.2055254192    -8.8431017893
   43      H       0.6841764498    -1.3873650174    -9.7102415321
   44      C       2.6716360148    -1.3296305031    -8.9648281350
   45      H       3.1065100909    -1.6076439795    -9.9172025928
   46      C       5.5656361716    -1.0354428792    -6.5761810108
   47      H       6.6422293989    -1.1448180777    -6.5414838878
   48      C       4.9146572743    -1.2367292322    -7.7720957296
   49      H       5.4795852774    -1.5031772357    -8.6571692885
   50      B      -1.2804940321    -0.0611988037    -2.2334644732
   51      C       2.6386597534    -0.3069650017    -0.0045312663
   52      C       3.0632645627    -1.6454017206     0.2971116551
   53      C       4.2161146235    -1.8428593484     0.9966712777
   54      H       4.5658450638    -2.8390614377     1.2390069476
   55      C       4.9931131517    -0.7358667766     1.4331468189
   56      O       6.0739331726    -1.0489428797     2.0935535330
   57      C       4.5897637030     0.5880989196     1.1537836081
   58      H       5.1801868275     1.4296258825     1.4899649833
   59      C       3.4361089537     0.8012818511     0.4496748205
   60      C       6.9517230782    -0.0458620771     2.6028137609
   61      H       7.7504263953    -0.5806574448     3.1063147801
   62      H       6.4377635682     0.5965389484     3.3180181078
   63      H       7.3700259951     0.5538610263     1.7942783165
   64      C       2.9664586626     2.1806086013     0.1381528785
   65      H       3.6494064242     2.9406487442     0.5128859593
   66      H       2.8517548205     2.3105588678    -0.9396757857
   67      H       1.9786664356     2.3508180037     0.5713690891
   68      C       2.2317726568    -2.8003268937    -0.1568443367
   69      H       2.6667778689    -3.7508071087     0.1477718226
   70      H       2.1263869014    -2.7990496601    -1.2425729692
   71      H       1.2229387165    -2.7329726286     0.2533591311
   72      C      -2.6623861100    -0.1480838956    -2.9948899886
   73      C      -3.2490102980    -1.3848182058    -3.2740798097
   74      C      -4.4685676299    -1.4640357277    -3.9475916655
   75      H      -4.8889030786    -2.4419004541    -4.1478423135
   76      C      -5.1199009258    -0.3060980477    -4.3501426351
   77      O      -6.3007700917    -0.2854275503    -5.0108003046
   78      C      -4.5473638360     0.9318679067    -4.0723191905
   79      H      -5.0611103938     1.8322026010    -4.3896142928
   80      C      -3.3350869520     1.0131058209    -3.4045608443
   81      C      -6.8982718781    -1.5107999486    -5.3487321745
   82      H      -7.8162498120    -1.2737512745    -5.8829213637
   83      H      -7.1544652982    -2.1065688141    -4.4667322607
   84      H      -6.2625025747    -2.1167016411    -6.0023239270
   85      C      -2.7327409925     2.3584450702    -3.1116499940
   86      H      -3.3356964777     3.1706902902    -3.5174125487
   87      H      -1.7296529783     2.4417696699    -3.5346890135
   88      H      -2.6349973919     2.5196901661    -2.0359498491
   89      C      -2.5682326396    -2.6557186372    -2.8437216629
   90      H      -3.1205551166    -3.5398367515    -3.1634146182
   91      H      -1.5601755176    -2.7275921289    -3.2568244267
   92      H      -2.4676959274    -2.7032072489    -1.7572814324
 ----------------------------------------------------------------

   15   -2123.8054678775      5.03E-09 Convergence criterion met
 Total energy in the final basis set = -2123.80546788

         TDDFT/TDA Excitation Energies
 ---------------------------------------------------

 Excited state   1: excitation energy (eV) =    2.2223
 Total energy for state  1:                 -2123.72379868 au
    Multiplicity: Triplet
    Trans. Mom.:  0.0000 X   0.0000 Y   0.0000 Z
    Strength   :     0.0000000000
    D(175) --> V(  2) amplitude =  0.2426
    D(179) --> V(  1) amplitude =  0.7819
    D(180) --> V(  1) amplitude = -0.4542

 Excited state   2: excitation energy (eV) =    2.3602
 Total energy for state  2:                 -2123.71873349 au
    Multiplicity: Triplet
    Trans. Mom.:  0.0000 X   0.0000 Y   0.0000 Z
    Strength   :     0.0000000000
    D(179) --> V(  1) amplitude = -0.2388
    D(182) --> V(  1) amplitude =  0.9201

 Excited state   3: excitation energy (eV) =    2.4021
 Total energy for state  3:                 -2123.71719329 au
    Multiplicity: Singlet
    Trans. Mom.:  0.1630 X  -0.0096 Y  -0.1869 Z
    Strength   :     0.0036246008
    D(182) --> V(  1) amplitude =  0.9733

 Excited state   4: excitation energy (eV) =    2.4485
 Total energy for state  4:                 -2123.71548843 au
    Multiplicity: Triplet
    Trans. Mom.:  0.0000 X   0.0000 Y   0.0000 Z
    Strength   :     0.0000000000
    D(178) --> V(  2) amplitude = -0.4628
    D(179) --> V(  1) amplitude =  0.3690
    D(180) --> V(  1) amplitude =  0.6849
    D(182) --> V(  1) amplitude =  0.2394

 Excited state   5: excitation energy (eV) =    2.4984
 Total energy for state  5:                 -2123.71365417 au
    Multiplicity: Triplet
    Trans. Mom.:  0.0000 X   0.0000 Y   0.0000 Z
    Strength   :     0.0000000000
    D(178) --> V(  1) amplitude =  0.7373
    D(178) --> V(  4) amplitude = -0.2358
    D(180) --> V(  2) amplitude = -0.5137

 Excited state   6: excitation energy (eV) =    2.7291
 Total energy for state  6:                 -2123.70517443 au
    Multiplicity: Triplet
    Trans. Mom.:  0.0000 X   0.0000 Y   0.0000 Z
    Strength   :     0.0000000000
    D(175) --> V(  1) amplitude =  0.7096
    D(179) --> V(  2) amplitude =  0.5243

 Excited state   7: excitation energy (eV) =    2.8578
 Total energy for state  7:                 -2123.70044518 au
    Multiplicity: Triplet
    Trans. Mom.:  0.0000 X   0.0000 Y   0.0000 Z
    Strength   :     0.0000000000
    D(181) --> V(  1) amplitude =  0.9596

 Excited state   8: excitation energy (eV) =    2.8914
 Total energy for state  8:                 -2123.69921210 au
    Multiplicity: Singlet
    Trans. Mom.:  0.0840 X  -0.0074 Y  -0.1515 Z
    Strength   :     0.0021288979
    D(179) --> V(  1) amplitude =  0.6544
    D(180) --> V(  1) amplitude = -0.3696
    D(181) --> V(  1) amplitude =  0.6116

 Excited state   9: excitation energy (eV) =    2.9018
 Total energy for state  9:                 -2123.69883031 au
    Multiplicity: Singlet
    Trans. Mom.: -0.0951 X   0.0053 Y   0.1891 Z
    Strength   :     0.0031887473
    D(179) --> V(  1) amplitude = -0.5462
    D(180) --> V(  1) amplitude =  0.2739
    D(181) --> V(  1) amplitude =  0.7530

 Excited state  10: excitation energy (eV) =    3.1421
 Total energy for state 10:                 -2123.68999714 au
    Multiplicity: Singlet
    Trans. Mom.: -1.9991 X   0.2020 Y   3.6198 Z
    Strength   :     1.3194408377
    D(179) --> V(  1) amplitude =  0.4534
    D(180) --> V(  1) amplitude =  0.8412

 Excited state  11: excitation energy (eV) =    3.4519
 Total energy for state 11:                 -2123.67861170 au
    Multiplicity: Singlet
    Trans. Mom.:  0.0854 X   0.3082 Y   0.0535 Z
    Strength   :     0.0088934138
    D(178) --> V(  1) amplitude =  0.9371

 Excited state  12: excitation energy (eV) =    3.6592
 Total energy for state 12:                 -2123.67099422 au
    Multiplicity: Singlet
    Trans. Mom.:  0.8901 X  -0.0031 Y   0.4878 Z
    Strength   :     0.0923638248
    D(175) --> V(  1) amplitude =  0.7613
    D(179) --> V(  2) amplitude =  0.5053
    D(180) --> V(  2) amplitude = -0.2319

 ---------------------------------------------------

                    Orbital Energies (a.u.)
 --------------------------------------------------------------

 Alpha MOs
 -- Occupied --
-19.525 -19.525 -10.503 -10.502 -10.488 -10.484 -10.466 -10.465
-10.465 -10.465 -10.465 -10.464 -10.464 -10.464 -10.464 -10.464
-10.463 -10.462 -10.462 -10.462 -10.462 -10.462 -10.462 -10.461
-10.459 -10.459 -10.458 -10.458 -10.455 -10.454 -10.454 -10.453
-10.453 -10.453 -10.450 -10.449 -10.449 -10.449 -10.435 -10.435
-10.435 -10.434 -10.434 -10.430 -10.429 -10.426 -10.425 -10.425
-10.424 -10.422 -10.417 -10.414  -6.947  -6.940  -1.192  -1.181
 -1.016  -1.016  -0.962  -0.959  -0.954  -0.944  -0.933  -0.933
 -0.908  -0.899  -0.873  -0.872  -0.860  -0.855  -0.852  -0.847
 -0.846  -0.846  -0.823  -0.813  -0.812  -0.804  -0.791  -0.788
 -0.766  -0.761  -0.756  -0.751  -0.735  -0.727  -0.726  -0.720
 -0.689  -0.684  -0.679  -0.666  -0.660  -0.649  -0.645  -0.645
 -0.643  -0.637  -0.595  -0.592  -0.591  -0.588  -0.583  -0.582
 -0.580  -0.575  -0.575  -0.559  -0.556  -0.543  -0.543  -0.537
 -0.535  -0.532  -0.527  -0.523  -0.513  -0.507  -0.503  -0.496
 -0.494  -0.490  -0.489  -0.488  -0.485  -0.485  -0.484  -0.481
 -0.479  -0.475  -0.472  -0.470  -0.468  -0.465  -0.465  -0.463
 -0.462  -0.460  -0.457  -0.454  -0.444  -0.442  -0.441  -0.440
 -0.434  -0.427  -0.425  -0.424  -0.423  -0.422  -0.418  -0.411
 -0.400  -0.398  -0.396  -0.396  -0.396  -0.393  -0.392  -0.391
 -0.379  -0.376  -0.370  -0.363  -0.363  -0.359  -0.353  -0.351
 -0.342  -0.336  -0.321  -0.315  -0.296  -0.295  -0.282  -0.278
 -0.277  -0.262  -0.257  -0.256  -0.251  -0.233

          Ground-State Mulliken Net Atomic Charges

     Atom                 Charge (a.u.)
  ----------------------------------------
      1 C                    -0.148685
      2 C                    -0.391078
      3 H                     0.244506
      4 C                     0.093023
      5 C                     0.089775
      6 C                    -0.395759
      7 H                     0.243261
      8 C                    -0.154163
      9 C                     0.182730
     10 C                    -0.387320
     11 H                     0.242565
     12 C                    -0.065809
     13 C                     0.227350
     14 C                     0.185178
     15 C                    -0.388071
     16 H                     0.242920
     17 C                    -0.223283
     18 H                     0.247292
     19 C                    -0.342871
     20 H                     0.243522
     21 C                    -0.223773
     22 H                     0.247077
     23 C                    -0.341714
     24 H                     0.243679
     25 B                     0.669539
     26 C                    -0.151422
     27 C                    -0.393637
     28 H                     0.242992
     29 C                     0.092146
     30 C                     0.090315
     31 C                    -0.393883
     32 H                     0.243801
     33 C                    -0.151432
     34 C                     0.179190
     35 C                    -0.384340
     36 H                     0.242831
     37 C                    -0.064091
     38 C                     0.227965
     39 C                     0.182915
     40 C                    -0.388154
     41 H                     0.243192
     42 C                    -0.224440
     43 H                     0.247187
     44 C                    -0.341443
     45 H                     0.243653
     46 C                    -0.222819
     47 H                     0.247370
     48 C                    -0.343472
     49 H                     0.243705
     50 B                     0.686516
     51 C                    -0.259715
     52 C                     0.069418
     53 C                    -0.415591
     54 H                     0.231044
     55 C                     0.392715
     56 O                    -0.451321
     57 C                    -0.458867
     58 H                     0.240057
     59 C                     0.088908
     60 C                    -0.416621
     61 H                     0.252522
     62 H                     0.221071
     63 H                     0.221369
     64 C                    -0.765462
     65 H                     0.242761
     66 H                     0.246692
     67 H                     0.246591
     68 C                    -0.766850
     69 H                     0.246715
     70 H                     0.247412
     71 H                     0.247679
     72 C                    -0.222786
     73 C                     0.047389
     74 C                    -0.447996
     75 H                     0.244302
     76 C                     0.393946
     77 O                    -0.465683
     78 C                    -0.396747
     79 H                     0.234764
     80 C                     0.058325
     81 C                    -0.420838
     82 H                     0.248201
     83 H                     0.213336
     84 H                     0.213632
     85 C                    -0.768369
     86 H                     0.247394
     87 H                     0.246810
     88 H                     0.246380
     89 C                    -0.766698
     90 H                     0.244325
     91 H                     0.247950
     92 H                     0.247302
  ----------------------------------------
  Sum of atomic charges =    -0.000000

                    Cartesian Multipole Moments
 -----------------------------------------------------------------
    Charge (ESU x 10^10)
                -0.0000
    Dipole Moment (Debye)
         X       0.9115      Y      -1.2867      Z       0.6033
       Tot       1.6883
    Quadrupole Moments (Debye-Ang)
        XX    -252.2763     XY      19.1265     YY    -308.8479
        XZ      -0.1605     YZ      17.4687     ZZ    -253.8992

 Total job time:  9305.91s(wall), 30477.04s(cpu)
        *  Thank you very much for using Q-Chem.  Have a nice day.  *
