 Q-Chem 5.0, Q-Chem, Inc., Pleasanton, CA (2017)
 Q-Chem 5.0.1 for Intel X86 EM64T Linux

User input:
--------------------------------------------------------------
$solvent
dielectric      2.03
dielectric_infi 2.02
$end

$rem
threads 8
jobtype	sp
method PBEh-3c
basis def2-mSVP
mem_static	1024
mem_total	14000
sym_ignore	true
cis_n_roots             2
cis_singlets            true
cis_triplets		false
rpa                     false
calc_soc 		true
cis_moments             true
cis_relaxed_density	true
solvent_method		pcm
$end

$pcm
StateSpecific   1
ChargeSeparation Excited
$end

$molecule
read moms1opt_chx.mol
$end

--------------------------------------------------------------

   15   -2123.8036364852      5.22E-09 Convergence criterion met
 Total energy in the final basis set = -2123.80363649
 Total job time:  6569.46s(wall), 16451.30s(cpu)
        *  Thank you very much for using Q-Chem.  Have a nice day.  *
 Q-Chem 5.0, Q-Chem, Inc., Pleasanton, CA (2017)
 Q-Chem 5.0.1 for Intel X86 EM64T Linux

User input:
--------------------------------------------------------------
$rem
threads 8
jobtype sp
method PBEh-3c
basis def2-mSVP
mem_static      1024
mem_total       14000
sym_ignore      true
cis_n_roots             6
cis_singlets            true
cis_triplets            true
rpa                     false
calc_soc                true
cis_moments             true
cis_relaxed_density     true
solvent_method          pcm
$end

$molecule
read
$end

$pcm
statespecific           Marcus
$end

$solvent
dielectric      2.03
dielectric_infi 2.02
$end

--------------------------------------------------------------

             Standard Nuclear Orientation (Angstroms)
    I     Atom           X                Y                Z
 ----------------------------------------------------------------
    1      C       0.0000000000     0.0000000000     0.0000000000
    2      C       0.0000000000     0.0000000000     1.4139730000
    3      H       0.9399557469     0.0000000000     1.9595760084
    4      C      -1.1793770858    -0.0340764935     2.1114582950
    5      C      -2.4229417967    -0.0763400406     1.4142796513
    6      C      -2.4434131345    -0.0499935084     0.0402526839
    7      H      -3.3878440391    -0.0883052918    -0.4931630690
    8      C      -1.2453700500    -0.0106932906    -0.6970372977
    9      C      -3.4910396048    -0.2139543161     2.4013817435
   10      C      -4.8541689443    -0.3730916074     2.3509602972
   11      H      -5.3930515754    -0.3870907965     1.4117300724
   12      C      -2.8625803990    -0.2289219063     3.6636968993
   13      C      -3.5361603598    -0.3942129654     4.8718459264
   14      C      -1.4630608398    -0.1199111309     3.5448458991
   15      C      -0.7076026375    -0.1592511912     4.6899333449
   16      H       0.3731797948    -0.0936855944     4.6643740466
   17      C      -1.3658130414    -0.3050933763     5.9330141749
   18      H      -0.7674263547    -0.3372309905     6.8348024669
   19      C      -2.7328718101    -0.4217414056     6.0370225279
   20      H      -3.1932375007    -0.5467743524     7.0098001297
   21      C      -5.5635238773    -0.5380770312     3.5636401219
   22      H      -6.6375725712    -0.6676528737     3.5188362834
   23      C      -4.9420027949    -0.5485480243     4.7909602629
   24      H      -5.5259043434    -0.6869038780     5.6929500239
   25      B       1.2993030846    -0.0781359469    -0.7977411342
   26      C       1.3000125432    -0.0977496889    -2.3236439183
   27      C       2.4980950264    -0.2096479964    -3.0669301145
   28      H       3.4541055693    -0.2297968880    -2.5503755498
   29      C       2.4639217616    -0.3365844559    -4.4328922332
   30      C       1.2114574438    -0.3575509591    -5.1146673624
   31      C       0.0381620169    -0.2209520004    -4.4115644572
   32      H      -0.9154845297    -0.2521628957    -4.9286754697
   33      C       0.0480025193    -0.0939093022    -3.0110752996
   34      C       1.4652013128    -0.6432320262    -6.5212690021
   35      C       0.6775958703    -0.8686034298    -7.6224566325
   36      H      -0.4024380631    -0.8032625508    -7.5742723527
   37      C       2.8628234049    -0.7698561451    -6.6554848088
   38      C       3.5043999332    -1.1187888597    -7.8406424166
   39      C       3.5166661184    -0.5808251341    -5.4208713202
   40      C       4.8813236976    -0.7175719013    -5.3814610606
   41      H       5.4416173164    -0.5977776651    -4.4622579687
   42      C       1.3045223945    -1.2146384039    -8.8417241479
   43      H       0.6818649812    -1.3972020220    -9.7084527029
   44      C       2.6694109206    -1.3396986511    -8.9636792145
   45      H       3.1037849456    -1.6191717969    -9.9158387072
   46      C       5.5641179102    -1.0440899048    -6.5764101966
   47      H       6.6406588396    -1.1539995437    -6.5419359550
   48      C       4.9126906882    -1.2465672476    -7.7717276777
   49      H       5.4772472007    -1.5144726408    -8.6565872922
   50      B      -1.2804029189    -0.0626098365    -2.2334112408
   51      C       2.6365684645    -0.3097672868    -0.0052719808
   52      C       3.0599864442    -1.6491651017     0.2952472353
   53      C       4.2120823907    -1.8482274715     0.9956815340
   54      H       4.5608502474    -2.8449357352     1.2372414289
   55      C       4.9892591644    -0.7427753760     1.4343775383
   56      O       6.0698916715    -1.0579160008     2.0959856219
   57      C       4.5875515620     0.5816228106     1.1568066158
   58      H       5.1781931380     1.4222495911     1.4948576225
   59      C       3.4346875127     0.7970929575     0.4516760348
   60      C       6.9462304746    -0.0561145820     2.6074576371
   61      H       7.7444982535    -0.5910977129     3.1116240248
   62      H       6.4319808214     0.5857962194     3.3231007467
   63      H       7.3664081558     0.5452051921     1.8008924651
   64      C       2.9658551038     2.1767976363     0.1415217805
   65      H       3.6489915401     2.9365345740     0.5166649858
   66      H       2.8503842888     2.3072447791    -0.9361882565
   67      H       1.9779103710     2.3465972820     0.5746720147
   68      C       2.2273934903    -2.8022706763    -0.1607163462
   69      H       2.6610145381    -3.7539174262     0.1423272160
   70      H       2.1218736495    -2.7985151294    -1.2464151594
   71      H       1.2185564872    -2.7337862461     0.2493190276
   72      C      -2.6620234242    -0.1506398151    -2.9946170170
   73      C      -3.2476582719    -1.3879181859    -3.2730870792
   74      C      -4.4667545280    -1.4681262495    -3.9469931244
   75      H      -4.8864034331    -2.4463682584    -4.1467592673
   76      C      -5.1185123190    -0.3108519069    -4.3505254368
   77      O      -6.2991553826    -0.2912634440    -5.0117162345
   78      C      -4.5469616827     0.9275403115    -4.0733077253
   79      H      -5.0613675685     1.8271022123    -4.3914826888
   80      C      -3.3351412921     1.0099018502    -3.4051761867
   81      C      -6.8954570227    -1.5165767638    -5.3490064299
   82      H      -7.8133178651    -1.2804897213    -5.8839179445
   83      H      -6.2591955057    -2.1228827189    -6.0019349378
   84      H      -7.1520421480    -2.1122224875    -4.4668919870
   85      C      -2.7332912612     2.3554951859    -3.1126287639
   86      H      -3.3363343354     3.1674223452    -3.5188437407
   87      H      -1.7301343624     2.4389275406    -3.5354676715
   88      H      -2.6359331885     2.5170878528    -2.0369498745
   89      C      -2.5661524017    -2.6579455376    -2.8414318864
   90      H      -3.1180695509    -3.5427297422    -3.1600279422
   91      H      -1.5581936541    -2.7297673582    -3.2547677561
   92      H      -2.4655344711    -2.7041382320    -1.7549513451
 ----------------------------------------------------------------

   15   -2123.8035874259      5.23E-09 Convergence criterion met
 Total energy in the final basis set = -2123.80358743

         TDDFT/TDA Excitation Energies
 ---------------------------------------------------

 Excited state   1: excitation energy (eV) =    2.2201
 Total energy for state  1:                 -2123.72199890 au
    Multiplicity: Triplet
    Trans. Mom.:  0.0000 X   0.0000 Y   0.0000 Z
    Strength   :     0.0000000000
    D(175) --> V(  2) amplitude =  0.2436
    D(179) --> V(  1) amplitude =  0.7562
    D(180) --> V(  1) amplitude = -0.5008

 Excited state   2: excitation energy (eV) =    2.3819
 Total energy for state  2:                 -2123.71605237 au
    Multiplicity: Triplet
    Trans. Mom.:  0.0000 X   0.0000 Y   0.0000 Z
    Strength   :     0.0000000000
    D(179) --> V(  1) amplitude = -0.2702
    D(182) --> V(  1) amplitude =  0.8936

 Excited state   3: excitation energy (eV) =    2.4280
 Total energy for state  3:                 -2123.71435892 au
    Multiplicity: Singlet
    Trans. Mom.:  0.1685 X  -0.0097 Y  -0.1895 Z
    Strength   :     0.0038323449
    D(182) --> V(  1) amplitude =  0.9730

 Excited state   4: excitation energy (eV) =    2.4521
 Total energy for state  4:                 -2123.71347349 au
    Multiplicity: Triplet
    Trans. Mom.:  0.0000 X   0.0000 Y   0.0000 Z
    Strength   :     0.0000000000
    D(178) --> V(  2) amplitude = -0.4479
    D(179) --> V(  1) amplitude =  0.3867
    D(180) --> V(  1) amplitude =  0.6477
    D(182) --> V(  1) amplitude =  0.3288

 Excited state   5: excitation energy (eV) =    2.4988
 Total energy for state  5:                 -2123.71175700 au
    Multiplicity: Triplet
    Trans. Mom.:  0.0000 X   0.0000 Y   0.0000 Z
    Strength   :     0.0000000000
    D(178) --> V(  1) amplitude =  0.7358
    D(178) --> V(  4) amplitude = -0.2357
    D(179) --> V(  2) amplitude = -0.2268
    D(180) --> V(  2) amplitude = -0.5014

 Excited state   6: excitation energy (eV) =    2.7268
 Total energy for state  6:                 -2123.70338088 au
    Multiplicity: Triplet
    Trans. Mom.:  0.0000 X   0.0000 Y   0.0000 Z
    Strength   :     0.0000000000
    D(175) --> V(  1) amplitude =  0.7099
    D(179) --> V(  2) amplitude =  0.5130
    D(180) --> V(  2) amplitude = -0.2265

 Excited state   7: excitation energy (eV) =    2.8545
 Total energy for state  7:                 -2123.69868498 au
    Multiplicity: Triplet
    Trans. Mom.:  0.0000 X   0.0000 Y   0.0000 Z
    Strength   :     0.0000000000
    D(181) --> V(  1) amplitude =  0.9595

 Excited state   8: excitation energy (eV) =    2.8891
 Total energy for state  8:                 -2123.69741442 au
    Multiplicity: Singlet
    Trans. Mom.:  0.0752 X  -0.0070 Y  -0.1321 Z
    Strength   :     0.0016393511
    D(179) --> V(  1) amplitude =  0.5675
    D(180) --> V(  1) amplitude = -0.3687
    D(181) --> V(  1) amplitude =  0.6937

 Excited state   9: excitation energy (eV) =    2.8993
 Total energy for state  9:                 -2123.69703950 au
    Multiplicity: Singlet
    Trans. Mom.: -0.1025 X   0.0063 Y   0.2040 Z
    Strength   :     0.0037054680
    D(179) --> V(  1) amplitude = -0.5978
    D(180) --> V(  1) amplitude =  0.3501
    D(181) --> V(  1) amplitude =  0.6781

 Excited state  10: excitation energy (eV) =    3.1520
 Total energy for state 10:                 -2123.68775259 au
    Multiplicity: Singlet
    Trans. Mom.: -1.9642 X   0.2012 Y   3.5561 Z
    Strength   :     1.2776454445
    D(179) --> V(  1) amplitude =  0.5010
    D(180) --> V(  1) amplitude =  0.8130

 Excited state  11: excitation energy (eV) =    3.4613
 Total energy for state 11:                 -2123.67638734 au
    Multiplicity: Singlet
    Trans. Mom.:  0.0863 X   0.2997 Y   0.0550 Z
    Strength   :     0.0085029471
    D(178) --> V(  1) amplitude =  0.9367

 Excited state  12: excitation energy (eV) =    3.6590
 Total energy for state 12:                 -2123.66912177 au
    Multiplicity: Singlet
    Trans. Mom.:  0.8694 X  -0.0043 Y   0.4752 Z
    Strength   :     0.0880007462
    D(175) --> V(  1) amplitude =  0.7583
    D(179) --> V(  2) amplitude =  0.4935
    D(180) --> V(  2) amplitude = -0.2626

 ---------------------------------------------------

                    Orbital Energies (a.u.)
 --------------------------------------------------------------

 Alpha MOs
 -- Occupied --
-19.526 -19.525 -10.503 -10.501 -10.489 -10.484 -10.465 -10.465
-10.464 -10.464 -10.464 -10.464 -10.464 -10.464 -10.463 -10.463
-10.462 -10.462 -10.461 -10.461 -10.461 -10.461 -10.461 -10.461
-10.458 -10.458 -10.458 -10.458 -10.454 -10.453 -10.453 -10.452
-10.452 -10.452 -10.450 -10.449 -10.448 -10.448 -10.434 -10.434
-10.434 -10.433 -10.433 -10.430 -10.429 -10.426 -10.425 -10.424
-10.424 -10.422 -10.416 -10.414  -6.946  -6.939  -1.192  -1.180
 -1.015  -1.015  -0.961  -0.958  -0.953  -0.944  -0.933  -0.932
 -0.907  -0.898  -0.873  -0.871  -0.859  -0.854  -0.851  -0.847
 -0.846  -0.846  -0.822  -0.813  -0.811  -0.803  -0.792  -0.788
 -0.765  -0.761  -0.755  -0.751  -0.734  -0.727  -0.726  -0.720
 -0.688  -0.683  -0.679  -0.665  -0.660  -0.649  -0.645  -0.644
 -0.642  -0.637  -0.595  -0.591  -0.590  -0.587  -0.583  -0.582
 -0.581  -0.575  -0.575  -0.558  -0.557  -0.543  -0.543  -0.538
 -0.535  -0.532  -0.526  -0.522  -0.512  -0.506  -0.503  -0.496
 -0.493  -0.489  -0.489  -0.488  -0.484  -0.484  -0.483  -0.480
 -0.478  -0.475  -0.472  -0.469  -0.468  -0.465  -0.464  -0.463
 -0.462  -0.460  -0.456  -0.454  -0.443  -0.442  -0.440  -0.440
 -0.433  -0.427  -0.425  -0.424  -0.423  -0.421  -0.417  -0.410
 -0.400  -0.397  -0.397  -0.395  -0.395  -0.393  -0.391  -0.391
 -0.378  -0.375  -0.370  -0.363  -0.362  -0.359  -0.353  -0.350
 -0.342  -0.336  -0.320  -0.314  -0.296  -0.295  -0.282  -0.279
 -0.276  -0.262  -0.256  -0.255  -0.250  -0.233

          Ground-State Mulliken Net Atomic Charges

     Atom                 Charge (a.u.)
  ----------------------------------------
      1 C                    -0.148334
      2 C                    -0.390673
      3 H                     0.242377
      4 C                     0.094712
      5 C                     0.091579
      6 C                    -0.395370
      7 H                     0.242306
      8 C                    -0.153853
      9 C                     0.184488
     10 C                    -0.386255
     11 H                     0.239853
     12 C                    -0.065463
     13 C                     0.230374
     14 C                     0.187142
     15 C                    -0.387135
     16 H                     0.239614
     17 C                    -0.220647
     18 H                     0.244257
     19 C                    -0.341713
     20 H                     0.240279
     21 C                    -0.221170
     22 H                     0.244198
     23 C                    -0.340507
     24 H                     0.240453
     25 B                     0.669743
     26 C                    -0.151181
     27 C                    -0.393260
     28 H                     0.240825
     29 C                     0.093827
     30 C                     0.092098
     31 C                    -0.393413
     32 H                     0.242861
     33 C                    -0.151022
     34 C                     0.180949
     35 C                    -0.383267
     36 H                     0.240114
     37 C                    -0.063726
     38 C                     0.230953
     39 C                     0.184869
     40 C                    -0.387236
     41 H                     0.239906
     42 C                    -0.221846
     43 H                     0.244302
     44 C                    -0.340214
     45 H                     0.240431
     46 C                    -0.220180
     47 H                     0.244356
     48 C                    -0.342316
     49 H                     0.240469
     50 B                     0.688025
     51 C                    -0.258849
     52 C                     0.070158
     53 C                    -0.413207
     54 H                     0.229093
     55 C                     0.393098
     56 O                    -0.450626
     57 C                    -0.457088
     58 H                     0.236537
     59 C                     0.089426
     60 C                    -0.414871
     61 H                     0.251302
     62 H                     0.219279
     63 H                     0.219610
     64 C                    -0.764398
     65 H                     0.240661
     66 H                     0.246875
     67 H                     0.246814
     68 C                    -0.765838
     69 H                     0.244931
     70 H                     0.247772
     71 H                     0.248055
     72 C                    -0.223147
     73 C                     0.048707
     74 C                    -0.446194
     75 H                     0.241042
     76 C                     0.395118
     77 O                    -0.464250
     78 C                    -0.394294
     79 H                     0.232919
     80 C                     0.059804
     81 C                    -0.418755
     82 H                     0.246855
     83 H                     0.212085
     84 H                     0.211754
     85 C                    -0.767395
     86 H                     0.245880
     87 H                     0.246614
     88 H                     0.246153
     89 C                    -0.765678
     90 H                     0.242460
     91 H                     0.247858
     92 H                     0.247155
  ----------------------------------------
  Sum of atomic charges =     0.000000

                    Cartesian Multipole Moments
 -----------------------------------------------------------------
    Charge (ESU x 10^10)
                 0.0000
    Dipole Moment (Debye)
         X       0.7893      Y      -1.2506      Z       0.5342
       Tot       1.5724
    Quadrupole Moments (Debye-Ang)
        XX    -254.0567     XY      18.7120     YY    -309.0894
        XZ      -0.0307     YZ      17.1413     ZZ    -255.3592

 Total job time:  9419.43s(wall), 30865.06s(cpu)
        *  Thank you very much for using Q-Chem.  Have a nice day.  *
