 Q-Chem 5.0, Q-Chem, Inc., Pleasanton, CA (2017)
 Q-Chem 5.0.1 for Intel X86 EM64T Linux

User input:
--------------------------------------------------------------
$rem
threads 8
jobtype	opt
method PBEh-3c
basis def2-mSVP
mem_static	512
mem_total	6096
sym_ignore	true
$end

$molecule
read incoords2.mol
$end

--------------------------------------------------------------

   15   -2202.2152128260      4.81E-09 Convergence criterion met
 Total energy in the final basis set = -2202.21521283
   12   -2202.2469729302      8.54E-09 Convergence criterion met
 Total energy in the final basis set = -2202.24697293
   12   -2202.2549131869      9.07E-09 Convergence criterion met
 Total energy in the final basis set = -2202.25491319
   12   -2202.2552028776      7.69E-09 Convergence criterion met
 Total energy in the final basis set = -2202.25520288
   12   -2202.2547285962      9.99E-09 Convergence criterion met
 Total energy in the final basis set = -2202.25472860
   12   -2202.2545652895      6.27E-09 Convergence criterion met
 Total energy in the final basis set = -2202.25456529
   12   -2202.2545272262      5.94E-09 Convergence criterion met
 Total energy in the final basis set = -2202.25452723
   12   -2202.2544632453      7.39E-09 Convergence criterion met
    9   -2202.2549203532      6.87E-09 Convergence criterion met
 Total energy in the final basis set = -2202.25492035
    9   -2202.2549341612      5.69E-09 Convergence criterion met
 Total energy in the final basis set = -2202.25493416
    9   -2202.2549140675      5.42E-09 Convergence criterion met
 Total energy in the final basis set = -2202.25491407
    8   -2202.2549153676      5.48E-09 Convergence criterion met
 Total energy in the final basis set = -2202.25491537
    8   -2202.2549054687      6.13E-09 Convergence criterion met
 Total energy in the final basis set = -2202.25490547
    6   -2202.2549032743      8.16E-09 Convergence criterion met
 Total energy in the final basis set = -2202.25490327

             Standard Nuclear Orientation (Angstroms)
    I     Atom           X                Y                Z
 ----------------------------------------------------------------
    1      C       2.0793293967    -1.1179913323    -0.1627631249
    2      C       2.9753972025    -0.7197986982    -1.1825210705
    3      B       4.1056100925    -1.6876355841    -1.6365388704
    4      C       4.3931991788    -2.9774493492    -0.8144981464
    5      C       3.4811303209    -3.3840944802     0.1875709429
    6      B       2.2345088172    -2.5123565286     0.5097150171
    7      C       5.4650979756    -3.8075412872    -1.1558009499
    8      C       5.6343810577    -5.0180664629    -0.5118078993
    9      C       4.7076330546    -5.4357479616     0.4686393040
   10      C       3.6450144094    -4.6236197448     0.8129437252
   11      C       0.9907113335    -0.3051510666     0.1615317939
   12      C       0.7945528129     0.8856713589    -0.5114803228
   13      C       1.6980897232     1.2949634856    -1.5166651179
   14      C       2.7718016944     0.4903623030    -1.8516985886
   15      C       7.6588690266    -6.3171057700    -1.5563771826
   16      C       8.3134176925    -7.5711074286    -1.5145817853
   17      C       7.9078790772    -8.5882584860    -0.6832469835
   18      C       6.7995394969    -8.4014327653     0.1766252959
   19      C       6.1929300735    -7.1509551983     0.1304856373
   20      C       6.5912142828    -6.1067252222    -0.7245677592
   21      C       6.2104774589    -9.3508104083     1.0459750334
   22      C       5.0941286806    -9.0174206355     1.7758621069
   23      C       4.4927606744    -7.7387236708     1.7002015182
   24      C       5.0513173547    -6.7994800542     0.8736746515
   25      C       0.7429328053     4.4437508074    -3.4810113027
   26      C       1.5765779605     3.3542607803    -3.1335719725
   27      C       1.1869023723     2.5323512230    -2.1096008357
   28      C      -0.0257318959     2.8104996082    -1.4514279949
   29      C      -0.8805079636     3.8529557256    -1.7901197745
   30      C      -0.4495173911     4.6937084351    -2.8438251404
   31      C      -0.3114182514     1.8413435588    -0.4722186881
   32      C      -1.5003922328     1.9218864862     0.2034641210
   33      C      -2.3850171424     2.9807827963    -0.1098287901
   34      C      -2.0980658005     3.9211048576    -1.0709699699
   35      C       6.7045678656    -0.7692018521    -4.3807358896
   36      C       6.1047991409    -0.9133660246    -3.1282755748
   37      C       4.8315843290    -1.4646140122    -3.0090379742
   38      C       4.1644847173    -1.8837524940    -4.1758777533
   39      C       4.7686265886    -1.7450181476    -5.4106682177
   40      C       6.0391180457    -1.1840536345    -5.5240657186
   41      C       6.8396872859    -0.4069588136    -1.9142558216
   42      C       2.7944669071    -2.5004712920    -4.0876713121
   43      O       6.5339579013    -1.0944162371    -6.7765265790
   44      C       7.8055938044    -0.5330326401    -6.9548343638
   45      C       0.2483354476    -3.4343723794     3.6893573712
   46      C       1.2341565798    -2.9413890548     2.8541996533
   47      C       1.1133089973    -3.0652082161     1.4599852019
   48      C      -0.0186416372    -3.6909054132     0.9388482432
   49      C      -1.0068001654    -4.1898636802     1.7878293593
   50      C      -0.8773570627    -4.0648539794     3.1622062687
   51      C       2.4412155149    -2.2597786348     3.4349921598
   52      C      -0.1861531571    -3.8938938648    -0.5467245476
   53      O      -1.7842720682    -4.5097646185     4.0577471648
   54      C      -2.9381311852    -5.1457807841     3.5779040519
   55      H       6.1372007820    -3.5187671851    -1.9562454494
   56      H       2.9130799618    -4.9605571656     1.5393870349
   57      H       0.2799117040    -0.6366155899     0.9107334801
   58      H       3.4336906096     0.7706380268    -2.6639665608
   59      H       8.0011073468    -5.5595805675    -2.2501894853
   60      H       9.1552669160    -7.7364990191    -2.1741215524
   61      H       8.4281159417    -9.5382228443    -0.6984839215
   62      H       6.6297471598   -10.3463768574     1.1259004137
   63      H       4.6495159321    -9.7600326758     2.4255599871
   64      H       3.6013282377    -7.5333693300     2.2800199532
   65      H       1.0510945707     5.0915209360    -4.2912172951
   66      H       2.4899860753     3.1816409009    -3.6891683484
   67      H      -1.0651613733     5.5270971457    -3.1593600201
   68      H      -1.7835955010     1.1918954777     0.9516835488
   69      H      -3.3260142126     3.0422926761     0.4211658824
   70      H      -2.8122038895     4.7063152756    -1.2867535328
   71      H       7.6952006935    -0.3342684359    -4.4337902587
   72      H       4.2622192138    -2.0779791208    -6.3090687144
   73      H       6.5903693530    -1.0138743040    -1.0389846498
   74      C       6.5258615176     1.0573809500    -1.6171862348
   75      H       7.9167586017    -0.5233918193    -2.0605946017
   76      H       8.0061171775    -0.5488327977    -8.0242013228
   77      H       8.5889149578    -1.1054995450    -6.4469753135
   78      H       7.8549277020     0.5046056350    -6.6081242846
   79      H       0.3351269430    -3.3302190096     4.7642622568
   80      H      -1.8732932135    -4.6674019089     1.3462756304
   81      H       0.3362756445    -3.1084321323    -1.1001429829
   82      H      -1.2410166197    -3.7874773860    -0.8146019434
   83      C       0.3143840262    -5.2600855155    -1.0116268709
   84      H      -3.5267470785    -5.4229303274     4.4500785403
   85      H      -3.5440101979    -4.4882558473     2.9454478485
   86      H      -2.7080301863    -6.0542881076     3.0115060901
   87      H       1.3775705634    -5.3827417663    -0.8058469191
   88      H       0.1661669626    -5.3854782694    -2.0849475163
   89      H      -0.2158147451    -6.0670082901    -0.5045402470
   90      H       7.0945676092     1.4150596554    -0.7583290504
   91      H       5.4681263860     1.1946086332    -1.3930575163
   92      H       6.7693636937     1.6916978582    -2.4702449762
   93      H       2.4592411030    -2.8702476784    -5.0562040367
   94      H       2.0528129735    -1.7802875864    -3.7365736950
   95      H       2.7748807360    -3.3442267847    -3.3933660071
   96      H       3.3555893489    -2.8167313926     3.2194628093
   97      H       2.3675584855    -2.1560067453     4.5168981155
   98      H       2.5730168897    -1.2591506834     3.0170991174
 ----------------------------------------------------------------

    6   -2202.2549013791      9.66E-09 Convergence criterion met
 Total energy in the final basis set = -2202.25490138
 Final energy is   -2202.25490137907
 **  OPTIMIZATION CONVERGED  **

                    Orbital Energies (a.u.)
 --------------------------------------------------------------

 Alpha MOs
 -- Occupied --
-19.523 -19.523 -10.499 -10.499 -10.489 -10.488 -10.462 -10.462
-10.462 -10.462 -10.462 -10.462 -10.460 -10.460 -10.460 -10.460
-10.459 -10.459 -10.459 -10.459 -10.458 -10.458 -10.458 -10.458
-10.457 -10.457 -10.457 -10.457 -10.450 -10.449 -10.449 -10.449
-10.449 -10.449 -10.448 -10.447 -10.444 -10.444 -10.434 -10.432
-10.431 -10.430 -10.430 -10.430 -10.429 -10.429 -10.427 -10.426
-10.424 -10.423 -10.421 -10.418 -10.413 -10.412  -6.945  -6.944
 -1.180  -1.180  -1.013  -1.013  -0.960  -0.956  -0.952  -0.951
 -0.931  -0.931  -0.906  -0.898  -0.881  -0.880  -0.858  -0.853
 -0.851  -0.848  -0.844  -0.844  -0.819  -0.816  -0.814  -0.811
 -0.809  -0.802  -0.773  -0.773  -0.761  -0.761  -0.732  -0.726
 -0.724  -0.718  -0.708  -0.706  -0.687  -0.679  -0.677  -0.662
 -0.657  -0.646  -0.644  -0.643  -0.636  -0.635  -0.592  -0.590
 -0.590  -0.586  -0.583  -0.583  -0.581  -0.573  -0.572  -0.559
 -0.558  -0.541  -0.541  -0.534  -0.533  -0.533  -0.526  -0.522
 -0.510  -0.505  -0.500  -0.498  -0.496  -0.495  -0.494  -0.491
 -0.489  -0.487  -0.483  -0.481  -0.481  -0.479  -0.477  -0.474
 -0.472  -0.469  -0.466  -0.466  -0.463  -0.461  -0.459  -0.452
 -0.445  -0.442  -0.438  -0.438  -0.432  -0.426  -0.426  -0.421
 -0.421  -0.420  -0.417  -0.413  -0.411  -0.408  -0.404  -0.403
 -0.396  -0.392  -0.392  -0.392  -0.390  -0.388  -0.384  -0.382
 -0.376  -0.370  -0.366  -0.362  -0.361  -0.354  -0.352  -0.348
 -0.337  -0.335  -0.315  -0.309  -0.293  -0.292  -0.277  -0.272
 -0.272  -0.259  -0.253  -0.253  -0.247  -0.245

          Ground-State Mulliken Net Atomic Charges

     Atom                 Charge (a.u.)
  ----------------------------------------
      1 C                    -0.156213
      2 C                    -0.149534
      3 B                     0.666996
      4 C                    -0.149692
      5 C                    -0.151854
      6 B                     0.669289
      7 C                    -0.384781
      8 C                     0.102082
      9 C                     0.088600
     10 C                    -0.391604
     11 C                    -0.380894
     12 C                     0.092722
     13 C                     0.098801
     14 C                    -0.398715
     15 C                    -0.380274
     16 C                    -0.203866
     17 C                    -0.334129
     18 C                     0.248756
     19 C                    -0.061079
     20 C                     0.193611
     21 C                    -0.333089
     22 C                    -0.204496
     23 C                    -0.380863
     24 C                     0.194723
     25 C                    -0.203776
     26 C                    -0.380946
     27 C                     0.191339
     28 C                    -0.061014
     29 C                     0.248611
     30 C                    -0.334033
     31 C                     0.190638
     32 C                    -0.378194
     33 C                    -0.204614
     34 C                    -0.332872
     35 C                    -0.423019
     36 C                     0.094280
     37 C                    -0.208671
     38 C                     0.052264
     39 C                    -0.383421
     40 C                     0.403214
     41 C                    -0.540917
     42 C                    -0.764371
     43 O                    -0.453154
     44 C                    -0.405099
     45 C                    -0.377868
     46 C                     0.075290
     47 C                    -0.227394
     48 C                     0.074400
     49 C                    -0.429696
     50 C                     0.403073
     51 C                    -0.758000
     52 C                    -0.551797
     53 O                    -0.453815
     54 C                    -0.405948
     55 H                     0.230320
     56 H                     0.237976
     57 H                     0.233459
     58 H                     0.235527
     59 H                     0.219231
     60 H                     0.225432
     61 H                     0.219528
     62 H                     0.219457
     63 H                     0.225974
     64 H                     0.220945
     65 H                     0.225880
     66 H                     0.219986
     67 H                     0.219649
     68 H                     0.220901
     69 H                     0.225849
     70 H                     0.219517
     71 H                     0.220472
     72 H                     0.221466
     73 H                     0.246502
     74 C                    -0.642492
     75 H                     0.224532
     76 H                     0.238987
     77 H                     0.202480
     78 H                     0.202718
     79 H                     0.220636
     80 H                     0.221427
     81 H                     0.255780
     82 H                     0.227651
     83 C                    -0.642194
     84 H                     0.238999
     85 H                     0.203233
     86 H                     0.203281
     87 H                     0.243645
     88 H                     0.217008
     89 H                     0.213127
     90 H                     0.219934
     91 H                     0.238275
     92 H                     0.214185
     93 H                     0.239051
     94 H                     0.249020
     95 H                     0.248231
     96 H                     0.244882
     97 H                     0.236931
     98 H                     0.243619
  ----------------------------------------
  Sum of atomic charges =    -0.000000

                    Cartesian Multipole Moments
 -----------------------------------------------------------------
    Charge (ESU x 10^10)
                -0.0000
    Dipole Moment (Debye)
         X      -0.3115      Y      -0.3998      Z      -1.2393
       Tot       1.3389
    Quadrupole Moments (Debye-Ang)
        XX    -278.0361     XY      -5.2095     YY    -285.4976
        XZ     -21.8652     YZ     -14.4921     ZZ    -316.5406

 Total job time:  13283.01s(wall), 52891.23s(cpu)
        *  Thank you very much for using Q-Chem.  Have a nice day.  *
