 Q-Chem 5.1, Q-Chem, Inc., Pleasanton, CA (2018)
 Q-Chem 5.1.1 for Intel X86 EM64T Linux

User input:
--------------------------------------------------------------
$rem
threads 4
jobtype	opt
method PBEh-3c
basis def2-mSVP
mem_static	512
mem_total	6096
sym_ignore	true
scf_convergence 9
$end

$molecule
read gsopt.mol
$end

--------------------------------------------------------------

   17   -2202.2554143222      6.43e-10  Convergence criterion met
 Total energy in the final basis set =    -2202.2554143222
   14   -2202.2571464528      7.72e-10  Convergence criterion met
 Total energy in the final basis set =    -2202.2571464528
   14   -2202.2578059303      5.29e-10  Convergence criterion met
 Total energy in the final basis set =    -2202.2578059303
   14   -2202.2577769243      4.32e-10  Convergence criterion met
 Total energy in the final basis set =    -2202.2577769243
   13   -2202.2579424371      5.71e-10  Convergence criterion met
 Total energy in the final basis set =    -2202.2579424371
   13   -2202.2579737512      5.97e-10  Convergence criterion met
 Total energy in the final basis set =    -2202.2579737512
   13   -2202.2579873720      4.35e-10  Convergence criterion met
 Total energy in the final basis set =    -2202.2579873720
   12   -2202.2579950952      7.82e-10  Convergence criterion met
 Total energy in the final basis set =    -2202.2579950952
   12   -2202.2579993658      3.57e-10  Convergence criterion met
 Total energy in the final basis set =    -2202.2579993658
   11   -2202.2579955164      8.54e-10  Convergence criterion met
 Total energy in the final basis set =    -2202.2579955164
   10   -2202.2579914120      6.08e-10  Convergence criterion met
 Total energy in the final basis set =    -2202.2579914120
    9   -2202.2579898968      7.01e-10  Convergence criterion met
 Total energy in the final basis set =    -2202.2579898968

             Standard Nuclear Orientation (Angstroms)
    I     Atom           X                Y                Z
 ----------------------------------------------------------------
    1      C       0.0625794847    -0.4824329592     0.0789423738
    2      C       0.0575051327    -0.4860054539     1.4798648124
    3      H       0.9992939498    -0.4898269491     2.0182176260
    4      C      -1.1427688025    -0.4806664611     2.1709658618
    5      C      -2.3595109914    -0.4634466170     1.4544217714
    6      C      -2.3671328625    -0.4541453494     0.0738145519
    7      H      -3.3062061434    -0.4401151727    -0.4695730165
    8      C      -1.1628806525    -0.4645471883    -0.6299411675
    9      C      -1.4695965516    -0.4854360673     3.6014794755
   10      C      -0.7565191064    -0.5001498820     4.7700318153
   11      H       0.3260974662    -0.5122379349     4.7799029098
   12      C      -2.8761728905    -0.4708864307     3.6837379398
   13      C      -3.6028783539    -0.4701014653     4.8679206908
   14      C      -3.4637141261    -0.4569286573     2.4067080469
   15      C      -4.8294708653    -0.4409722260     2.3015010940
   16      H      -5.3298465965    -0.4289499642     1.3408134772
   17      C      -1.4664065034    -0.4997587822     5.9953592888
   18      H      -0.9000444257    -0.5115499539     6.9171971493
   19      C      -2.8399181531    -0.4852889744     6.0591285421
   20      H      -3.3355381483    -0.4856297589     7.0220474061
   21      C      -5.5943609892    -0.4398459110     3.4907306793
   22      H      -6.6737751330    -0.4271533631     3.4130294243
   23      C      -5.0133679618    -0.4539497823     4.7372413804
   24      H      -5.6391864183    -0.4523608584     5.6212137897
   25      B      -1.1821918981    -0.4514744641    -2.1846940657
   26      B       1.4073784577    -0.4913111665    -0.7087305253
   27      C       1.3958973132    -0.5322918957    -2.2647558226
   28      C       2.5984782191    -0.6047292831    -2.9785018116
   29      H       3.5378612970    -0.6419629618    -2.4380005660
   30      C       2.5815146365    -0.6299086476    -4.3628670154
   31      C       1.3479117976    -0.5695388137    -5.0469144777
   32      C       0.1560984617    -0.5009079998    -4.3548819343
   33      H      -0.7858978279    -0.4594994544    -4.8907219048
   34      C       0.1637812578    -0.4919906704    -2.9606257535
   35      C       1.6069818812    -0.6062801616    -6.4825783224
   36      C       0.8262341268    -0.5805164741    -7.6083819880
   37      H      -0.2534683753    -0.5139603486    -7.5543979994
   38      C       3.0018851671    -0.6934390790    -6.6251794179
   39      C       3.6511602798    -0.7594169338    -7.8534635022
   40      C       3.6451227158    -0.7119002115    -5.3725592255
   41      C       5.0114596781    -0.8026078574    -5.3552899812
   42      H       5.5712078923    -0.8255750774    -4.4289301618
   43      C       1.4595821134    -0.6438931450    -8.8714281492
   44      H       0.8442015162    -0.6233322305    -9.7615634929
   45      C       2.8252847158    -0.7315688650    -9.0036274880
   46      H       3.2690995027    -0.7794854618    -9.9905703101
   47      C       5.0615364996    -0.8504936391    -7.8037296327
   48      H       5.6355738934    -0.9062874248    -8.7205577724
   49      C       5.7042207308    -0.8702982302    -6.5886292157
   50      H       6.7836956299    -0.9420321733    -6.5685741506
   51      C       2.7702155957    -0.4777900440     0.0633794889
   52      C       3.4815016006     0.7030939820     0.2658152807
   53      C       4.6833361800     0.6936161741     0.9744946226
   54      H       5.2081695487     1.6307335027     1.1138292496
   55      C       5.1867333512    -0.4969270912     1.4773095965
   56      O       6.3376042160    -0.6085662311     2.1734688679
   57      C       4.4878244088    -1.6833599948     1.2610636363
   58      H       4.8987855584    -2.6100604236     1.6439260194
   59      C       3.2935054037    -1.6814502455     0.5650532164
   60      C       7.0779325987     0.5541060358     2.4281846025
   61      H       7.9466627906     0.2498473310     3.0083652571
   62      H       7.4264229625     1.0358934705     1.5084756403
   63      H       6.5112667865     1.2886726098     3.0100550732
   64      C       2.5556467207    -2.9710210958     0.3292537331
   65      H       3.1140898969    -3.8306799695     0.6982668464
   66      H       1.5829002450    -2.9734904021     0.8256110792
   67      H       2.3685695778    -3.1343006860    -0.7347801444
   68      C       2.9441183956     2.0191477742    -0.2358380786
   69      H       3.7764278199     2.6811223609    -0.4892654096
   70      H       2.3917913489     1.8707342495    -1.1681770756
   71      C       2.0403513170     2.7127781565     0.7815358710
   72      H       1.1597072006     2.1111834851     1.0069916520
   73      H       1.6939567217     3.6753789528     0.4033936274
   74      H       2.5678599548     2.8906425976     1.7192616099
   75      C      -2.5414664202    -0.3853857420    -2.9733730492
   76      C      -3.1396716203    -1.5317730243    -3.4937439164
   77      C      -4.3327716138    -1.4499413486    -4.2134435036
   78      H      -4.7640410764    -2.3642505343    -4.6036555092
   79      C      -4.9400496519    -0.2226959072    -4.4239349834
   80      O      -6.0904050327    -0.0442144173    -5.1071439304
   81      C      -4.3449025926     0.9292941259    -3.9133244921
   82      H      -4.8202207450     1.8865241290    -4.0917235566
   83      C      -3.1639881904     0.8558942899    -3.1980251890
   84      C      -6.7276427581    -1.1700509827    -5.6479538312
   85      H      -7.6264041371    -0.8108507881    -6.1451368768
   86      H      -7.0214915760    -1.8918991711    -4.8787401522
   87      H      -6.1055911694    -1.6861478115    -6.3868037050
   88      C      -2.5317849943     2.1138049286    -2.6721099041
   89      H      -3.1003218001     2.9996967018    -2.9527041907
   90      H      -2.4598737634     2.1000987690    -1.5828087618
   91      H      -1.5176432010     2.2399161290    -3.0582331439
   92      C      -2.5508168464    -2.8988361085    -3.2541320375
   93      H      -1.4708413911    -2.8286230920    -3.0986666464
   94      H      -2.6800425632    -3.5144664674    -4.1485826692
   95      C      -3.1898530764    -3.6027886718    -2.0593102931
   96      H      -3.0299721167    -3.0393004480    -1.1399321553
   97      H      -2.7663415697    -4.5976456129    -1.9174781167
   98      H      -4.2661460552    -3.7132208354    -2.1967306394
 ----------------------------------------------------------------

    9   -2202.2579891964      6.12e-10  Convergence criterion met
 Total energy in the final basis set =    -2202.2579891964
 Final energy is   -2202.25798919635
 **  OPTIMIZATION CONVERGED  **

                    Orbital Energies (a.u.)
 --------------------------------------------------------------

 Alpha MOs
 -- Occupied --
-19.523 -19.522 -10.499 -10.498 -10.489 -10.488 -10.463 -10.462
-10.462 -10.462 -10.462 -10.461 -10.461 -10.460 -10.460 -10.460
-10.460 -10.459 -10.459 -10.459 -10.458 -10.458 -10.458 -10.457
-10.457 -10.457 -10.457 -10.456 -10.451 -10.450 -10.449 -10.449
-10.448 -10.447 -10.447 -10.446 -10.444 -10.443 -10.433 -10.432
-10.431 -10.431 -10.430 -10.430 -10.429 -10.428 -10.427 -10.426
-10.424 -10.423 -10.419 -10.417 -10.413 -10.411  -6.944  -6.944
 -1.180  -1.180  -1.014  -1.013  -0.960  -0.956  -0.952  -0.950
 -0.931  -0.930  -0.906  -0.898  -0.881  -0.879  -0.858  -0.852
 -0.851  -0.847  -0.845  -0.844  -0.819  -0.815  -0.814  -0.811
 -0.809  -0.801  -0.774  -0.772  -0.761  -0.761  -0.732  -0.726
 -0.724  -0.718  -0.706  -0.705  -0.687  -0.679  -0.677  -0.662
 -0.657  -0.646  -0.645  -0.643  -0.635  -0.634  -0.593  -0.590
 -0.590  -0.586  -0.583  -0.582  -0.581  -0.573  -0.572  -0.559
 -0.558  -0.541  -0.541  -0.534  -0.533  -0.533  -0.526  -0.521
 -0.510  -0.505  -0.500  -0.497  -0.495  -0.495  -0.494  -0.491
 -0.489  -0.487  -0.483  -0.481  -0.480  -0.479  -0.477  -0.473
 -0.472  -0.470  -0.466  -0.465  -0.463  -0.461  -0.459  -0.452
 -0.445  -0.442  -0.438  -0.437  -0.432  -0.426  -0.425  -0.422
 -0.421  -0.420  -0.416  -0.413  -0.411  -0.408  -0.404  -0.403
 -0.396  -0.393  -0.392  -0.392  -0.390  -0.388  -0.383  -0.381
 -0.375  -0.370  -0.365  -0.362  -0.359  -0.353  -0.352  -0.348
 -0.337  -0.335  -0.315  -0.309  -0.293  -0.292  -0.277  -0.272
 -0.272  -0.259  -0.254  -0.252  -0.248  -0.245

          Ground-State Mulliken Net Atomic Charges

     Atom                 Charge (a.u.)
  ----------------------------------------
      1 C                    -0.152257
      2 C                    -0.403060
      3 H                     0.238853
      4 C                     0.113016
      5 C                     0.086912
      6 C                    -0.395315
      7 H                     0.237287
      8 C                    -0.148416
      9 C                     0.197100
     10 C                    -0.387646
     11 H                     0.220996
     12 C                    -0.063811
     13 C                     0.252963
     14 C                     0.195576
     15 C                    -0.377721
     16 H                     0.220913
     17 C                    -0.202748
     18 H                     0.225913
     19 C                    -0.337591
     20 H                     0.219889
     21 C                    -0.206153
     22 H                     0.226279
     23 C                    -0.332720
     24 H                     0.219512
     25 B                     0.680755
     26 B                     0.681538
     27 C                    -0.156278
     28 C                    -0.389245
     29 H                     0.234129
     30 C                     0.112350
     31 C                     0.085753
     32 C                    -0.378208
     33 H                     0.233602
     34 C                    -0.156577
     35 C                     0.195890
     36 C                    -0.378068
     37 H                     0.220252
     38 C                    -0.062994
     39 C                     0.252575
     40 C                     0.196877
     41 C                    -0.388447
     42 H                     0.220418
     43 C                    -0.205650
     44 H                     0.225694
     45 C                    -0.332525
     46 H                     0.219151
     47 C                    -0.337723
     48 H                     0.219631
     49 C                    -0.202306
     50 H                     0.225378
     51 C                    -0.221065
     52 C                     0.084210
     53 C                    -0.430865
     54 H                     0.221072
     55 C                     0.402369
     56 O                    -0.453678
     57 C                    -0.382393
     58 H                     0.220413
     59 C                     0.062626
     60 C                    -0.405673
     61 H                     0.238691
     62 H                     0.203079
     63 H                     0.203230
     64 C                    -0.761726
     65 H                     0.237337
     66 H                     0.246660
     67 H                     0.244486
     68 C                    -0.551926
     69 H                     0.226189
     70 H                     0.254068
     71 C                    -0.644401
     72 H                     0.244597
     73 H                     0.217479
     74 H                     0.213742
     75 C                    -0.227325
     76 C                     0.080651
     77 C                    -0.425324
     78 H                     0.221430
     79 C                     0.402630
     80 O                    -0.453670
     81 C                    -0.381481
     82 H                     0.220865
     83 C                     0.061745
     84 C                    -0.405742
     85 H                     0.239095
     86 H                     0.203195
     87 H                     0.203123
     88 C                    -0.760636
     89 H                     0.237386
     90 H                     0.246314
     91 H                     0.243937
     92 C                    -0.549225
     93 H                     0.254224
     94 H                     0.226591
     95 C                    -0.639611
     96 H                     0.238771
     97 H                     0.218323
     98 H                     0.212464
  ----------------------------------------
  Sum of atomic charges =    -0.000000

                    Cartesian Multipole Moments
 -----------------------------------------------------------------
    Charge (ESU x 10^10)
                -0.0000
    Dipole Moment (Debye)
         X      -0.1171      Y      -0.0971      Z      -0.1967
       Tot       0.2486
    Quadrupole Moments (Debye-Ang)
        XX    -278.5849     XY      15.6180     YY    -324.7972
        XZ      -0.0937     YZ      10.7575     ZZ    -276.6780

 Total job time:  20996.77s(wall), 83547.53s(cpu)
        *  Thank you very much for using Q-Chem.  Have a nice day.  *
