 Q-Chem 5.1, Q-Chem, Inc., Pleasanton, CA (2018)
 Q-Chem 5.1.1 for Intel X86 EM64T Linux

User input:
--------------------------------------------------------------
$rem
threads 8
jobtype	opt
method PBEh-3c
basis def2-mSVP
mem_static	1024
mem_total	12000
sym_ignore	true
cis_n_roots             2
cis_singlets            true
cis_triplets		false
rpa                     false
cis_state_deriv         1
$end

$molecule
read s1opt.mol
$end

--------------------------------------------------------------

   15   -2202.2463114075      6.99e-09  Convergence criterion met
 Total energy in the final basis set =    -2202.2463114075
   12   -2202.2477361851      6.31e-09  Convergence criterion met
 Total energy in the final basis set =    -2202.2477361851
   12   -2202.2467915644      7.16e-09  Convergence criterion met
 Total energy in the final basis set =    -2202.2467915644
   12   -2202.2469673493      6.15e-09  Convergence criterion met
 Total energy in the final basis set =    -2202.2469673493
   12   -2202.2474725274      4.32e-09  Convergence criterion met
 Total energy in the final basis set =    -2202.2474725274
   11   -2202.2476165231      7.15e-09  Convergence criterion met
 Total energy in the final basis set =    -2202.2476165231
   10   -2202.2474739252      7.26e-09  Convergence criterion met
 Total energy in the final basis set =    -2202.2474739252
    9   -2202.2474571751      6.52e-09  Convergence criterion met
 Total energy in the final basis set =    -2202.2474571751
    9   -2202.2474469612      5.19e-09  Convergence criterion met
 Total energy in the final basis set =    -2202.2474469612
    9   -2202.2474273425      4.81e-09  Convergence criterion met
 Total energy in the final basis set =    -2202.2474273425

             Standard Nuclear Orientation (Angstroms)
    I     Atom           X                Y                Z
 ----------------------------------------------------------------
    1      C       0.0391109844    -0.3902850226     0.0700558737
    2      C       0.0408907063    -0.3474350214     1.4855631796
    3      H       0.9805069826    -0.3588000802     2.0303718825
    4      C      -1.1374863308    -0.2909775941     2.1888373770
    5      C      -2.3755105879    -0.2718325383     1.4834564612
    6      C      -2.3981271970    -0.3181740729     0.1104441267
    7      H      -3.3456312761    -0.3097498332    -0.4192251552
    8      C      -1.2076716790    -0.3817397558    -0.6294874289
    9      C      -3.4567275390    -0.2076020753     2.4531215275
   10      C      -4.8263202719    -0.1644668389     2.3744685173
   11      H      -5.3430481811    -0.1734656867     1.4226983313
   12      C      -2.8497256123    -0.1917655012     3.7234781130
   13      C      -3.5576371195    -0.1364236708     4.9199107191
   14      C      -1.4443212221    -0.2409880616     3.6202536285
   15      C      -0.7153019588    -0.2344035162     4.7813590217
   16      H       0.3668827489    -0.2715304124     4.7763979665
   17      C      -1.4045750236    -0.1788627633     6.0149152268
   18      H      -0.8249719942    -0.1746856515     6.9291038079
   19      C      -2.7769060793    -0.1307576004     6.0992412984
   20      H      -3.2579878750    -0.0894745874     7.0687453023
   21      C      -5.5686061048    -0.1076300305     3.5745594297
   22      H      -6.6490219697    -0.0740744461     3.5132135400
   23      C      -4.9697172079    -0.0936154101     4.8131354422
   24      H      -5.5800778486    -0.0499683808     5.7067552301
   25      B       1.3269726760    -0.4649249693    -0.7429955549
   26      C       1.3200823305    -0.5724281652    -2.2650862250
   27      C       2.5140857201    -0.6785054338    -3.0176196444
   28      H       3.4758154780    -0.7034694336    -2.5136896674
   29      C       2.4744978045    -0.7511301699    -4.3886454514
   30      C       1.2170750880    -0.7068786154    -5.0564759958
   31      C       0.0476193075    -0.6067853019    -4.3443677989
   32      H      -0.9045031940    -0.5753655912    -4.8637485872
   33      C       0.0629957444    -0.5459201192    -2.9433719532
   34      C       1.4524115199    -0.7888437464    -6.4898376645
   35      C       0.6531116919    -0.7923416894    -7.6059722522
   36      H      -0.4250951966    -0.7198401626    -7.5348263527
   37      C       2.8467668579    -0.8854492150    -6.6568138417
   38      C       3.4734990560    -0.9879202601    -7.8962778644
   39      C       3.5157060231    -0.8682068474    -5.4158128290
   40      C       4.8842282492    -0.9605567030    -5.4261606645
   41      H       5.4639192924    -0.9570229771    -4.5116287243
   42      C       1.2645839399    -0.8938885224    -8.8756291287
   43      H       0.6329674034    -0.8962261525    -9.7550370108
   44      C       2.6275905235    -0.9899048740    -9.0325832140
   45      H       3.0536777576    -1.0664312633   -10.0255157426
   46      C       5.5511698629    -1.0652769226    -6.6691106459
   47      H       6.6312263901    -1.1381365606    -6.6696956679
   48      C       4.8842822869    -1.0798421851    -7.8719487692
   49      H       5.4392977560    -1.1630454328    -8.7984893723
   50      B      -1.2609480006    -0.4490782908    -2.1660030367
   51      C       2.7099357823    -0.4596655545     0.0000684128
   52      C       3.4342620343     0.7619597281     0.2205169792
   53      C       4.5948827191     0.7531063433     0.9496568502
   54      H       5.1278606041     1.6798678741     1.1143416230
   55      C       5.0864512629    -0.4642783212     1.4617457019
   56      O       6.1772571779    -0.5719655292     2.1789519892
   57      C       4.4128504072    -1.6867435618     1.2040510746
   58      H       4.8380081494    -2.5986556662     1.6028757237
   59      C       3.2615297970    -1.6958791258     0.4740193625
   60      C       6.9473236149     0.5745765235     2.5117496854
   61      H       7.7691969854     0.2147804656     3.1221565163
   62      H       7.3463426988     1.0547529077     1.6174252947
   63      H       6.3595297349     1.2926001468     3.0848622912
   64      C       2.5382334802    -2.9687417934     0.1787768986
   65      H       3.0812615909    -3.8375878137     0.5469872939
   66      H       2.3850797920    -3.0813771614    -0.8950236655
   67      H       1.5464892925    -2.9599282300     0.6324428530
   68      C       2.9074961289     2.0499614749    -0.3333691512
   69      H       2.4241631455     1.8623431610    -1.2927532698
   70      H       3.7441563905     2.7252132329    -0.5267771746
   71      C       1.9130578123     2.7261016051     0.6130898428
   72      H       1.0326279485     2.1078266771     0.7760965256
   73      H       1.5792074820     3.6697157838     0.1837518089
   74      H       2.3654947528     2.9388857237     1.5822686949
   75      C      -2.6398191143    -0.3977025822    -2.9393654161
   76      C      -3.2746734523    -1.5520886820    -3.3991890116
   77      C      -4.4835194394    -1.4808351610    -4.0948215378
   78      H      -4.9386292087    -2.4040664573    -4.4338622935
   79      C      -5.0749863885    -0.2542737839    -4.3460500768
   80      O      -6.2414672857    -0.0858576166    -5.0106196541
   81      C      -4.4472922597     0.9067296973    -3.9022701175
   82      H      -4.9093522245     1.8642168346    -4.1122708988
   83      C      -3.2505484591     0.8412153452    -3.2108359886
   84      C      -6.9140693064    -1.2255208238    -5.4695052980
   85      H      -7.8232390007    -0.8774639644    -5.9564009135
   86      H      -7.1941242864    -1.9015210584    -4.6544444759
   87      H      -6.3263299026    -1.7925711147    -6.1995742220
   88      C      -2.5906893877     2.1133117785    -2.7583890012
   89      H      -3.1504952738     2.9929207469    -3.0760646448
   90      H      -1.5798400064     2.1977211580    -3.1629216384
   91      H      -2.5007425159     2.1497451721    -1.6712429020
   92      C      -2.7081188672    -2.9210112660    -3.1200942437
   93      H      -1.6201233776    -2.8698657890    -3.0365932313
   94      H      -2.9154497083    -3.5816914822    -3.9668421307
   95      C      -3.2865535752    -3.5346714949    -1.8472583381
   96      H      -3.0513576062    -2.9216531457    -0.9771877660
   97      H      -4.3723931146    -3.6202096073    -1.9091019269
   98      H      -2.8817089665    -4.5325287832    -1.6721246459
 ----------------------------------------------------------------

    8   -2202.2474315850      6.12e-09  Convergence criterion met
 Total energy in the final basis set =    -2202.2474315850

         TDDFT/TDA Excitation Energies
 ---------------------------------------------------

 Excited state   1: excitation energy (eV) =    2.4276
 Total energy for state  1:                 -2202.15822058 au
    Multiplicity: Singlet
    Trans. Mom.: -0.1957 X   0.0207 Y  -0.0406 Z
    Strength   :     0.0024015785
    D(190) --> V(  1) amplitude =  0.9726

 Excited state   2: excitation energy (eV) =    2.8798
 Total energy for state  2:                 -2202.14159956 au
    Multiplicity: Singlet
    Trans. Mom.: -0.1288 X   0.0124 Y   0.2975 Z
    Strength   :     0.0074253915
    D(187) --> V(  1) amplitude =  0.5904
    D(188) --> V(  1) amplitude =  0.7588

 ---------------------------------------------------

 Final energy is   -2202.15822058251
 **  OPTIMIZATION CONVERGED  **

                    Orbital Energies (a.u.)
 --------------------------------------------------------------

 Alpha MOs
 -- Occupied --
-19.523 -19.522 -10.498 -10.498 -10.492 -10.488 -10.463 -10.463
-10.462 -10.462 -10.462 -10.462 -10.461 -10.461 -10.461 -10.460
-10.460 -10.460 -10.460 -10.460 -10.459 -10.458 -10.458 -10.458
-10.458 -10.457 -10.457 -10.457 -10.452 -10.450 -10.449 -10.449
-10.447 -10.447 -10.445 -10.444 -10.444 -10.443 -10.432 -10.431
-10.430 -10.430 -10.429 -10.429 -10.428 -10.426 -10.426 -10.423
-10.422 -10.420 -10.418 -10.414 -10.414 -10.409  -6.942  -6.934
 -1.189  -1.179  -1.013  -1.012  -0.958  -0.955  -0.951  -0.941
 -0.932  -0.931  -0.904  -0.896  -0.880  -0.879  -0.857  -0.851
 -0.851  -0.847  -0.845  -0.844  -0.820  -0.814  -0.814  -0.811
 -0.809  -0.800  -0.773  -0.767  -0.760  -0.758  -0.732  -0.727
 -0.724  -0.718  -0.706  -0.703  -0.687  -0.679  -0.677  -0.663
 -0.655  -0.645  -0.643  -0.641  -0.634  -0.628  -0.594  -0.590
 -0.589  -0.587  -0.582  -0.580  -0.579  -0.573  -0.573  -0.558
 -0.556  -0.541  -0.541  -0.537  -0.533  -0.533  -0.525  -0.521
 -0.510  -0.504  -0.501  -0.496  -0.495  -0.494  -0.492  -0.490
 -0.487  -0.486  -0.482  -0.481  -0.480  -0.479  -0.477  -0.472
 -0.471  -0.468  -0.465  -0.464  -0.462  -0.461  -0.458  -0.452
 -0.444  -0.441  -0.438  -0.435  -0.432  -0.426  -0.425  -0.422
 -0.420  -0.419  -0.417  -0.412  -0.410  -0.408  -0.403  -0.401
 -0.396  -0.393  -0.392  -0.392  -0.389  -0.389  -0.382  -0.380
 -0.375  -0.369  -0.363  -0.359  -0.356  -0.353  -0.349  -0.346
 -0.338  -0.330  -0.316  -0.310  -0.293  -0.292  -0.278  -0.273
 -0.271  -0.259  -0.253  -0.251  -0.247  -0.230

          Ground-State Mulliken Net Atomic Charges

     Atom                 Charge (a.u.)
  ----------------------------------------
      1 C                    -0.150908
      2 C                    -0.397269
      3 H                     0.238182
      4 C                     0.114739
      5 C                     0.095566
      6 C                    -0.403035
      7 H                     0.237257
      8 C                    -0.138972
      9 C                     0.194208
     10 C                    -0.376738
     11 H                     0.221493
     12 C                    -0.066121
     13 C                     0.253240
     14 C                     0.201374
     15 C                    -0.386456
     16 H                     0.221334
     17 C                    -0.201923
     18 H                     0.225947
     19 C                    -0.337255
     20 H                     0.220167
     21 C                    -0.205591
     22 H                     0.226273
     23 C                    -0.331986
     24 H                     0.220076
     25 B                     0.655572
     26 C                    -0.146997
     27 C                    -0.390991
     28 H                     0.233509
     29 C                     0.115463
     30 C                     0.091961
     31 C                    -0.384574
     32 H                     0.232912
     33 C                    -0.154925
     34 C                     0.195322
     35 C                    -0.376201
     36 H                     0.221031
     37 C                    -0.065958
     38 C                     0.251512
     39 C                     0.201478
     40 C                    -0.387450
     41 H                     0.220903
     42 C                    -0.205629
     43 H                     0.225717
     44 C                    -0.331173
     45 H                     0.219650
     46 C                    -0.201735
     47 H                     0.225595
     48 C                    -0.336985
     49 H                     0.219945
     50 B                     0.672516
     51 C                    -0.255138
     52 C                     0.107014
     53 C                    -0.449222
     54 H                     0.216042
     55 C                     0.399384
     56 O                    -0.443796
     57 C                    -0.393135
     58 H                     0.216707
     59 C                     0.082011
     60 C                    -0.402961
     61 H                     0.242087
     62 H                     0.209273
     63 H                     0.209349
     64 C                    -0.760613
     65 H                     0.235021
     66 H                     0.245839
     67 H                     0.245814
     68 C                    -0.549260
     69 H                     0.252693
     70 H                     0.224280
     71 C                    -0.648129
     72 H                     0.250203
     73 H                     0.216237
     74 H                     0.213105
     75 C                    -0.225852
     76 C                     0.076823
     77 C                    -0.422320
     78 H                     0.221330
     79 C                     0.401051
     80 O                    -0.454306
     81 C                    -0.378901
     82 H                     0.220996
     83 C                     0.057036
     84 C                    -0.405747
     85 H                     0.238617
     86 H                     0.202819
     87 H                     0.202541
     88 C                    -0.759214
     89 H                     0.236817
     90 H                     0.244071
     91 H                     0.245915
     92 C                    -0.547155
     93 H                     0.252992
     94 H                     0.225614
     95 C                    -0.641122
     96 H                     0.240287
     97 H                     0.212699
     98 H                     0.218135
  ----------------------------------------
  Sum of atomic charges =    -0.000000

                    Cartesian Multipole Moments
 -----------------------------------------------------------------
    Charge (ESU x 10^10)
                -0.0000
    Dipole Moment (Debye)
         X       0.1655      Y      -0.0376      Z       0.1393
       Tot       0.2195
    Quadrupole Moments (Debye-Ang)
        XX    -275.1375     XY      15.1691     YY    -324.9539
        XZ       0.5394     YZ      12.5446     ZZ    -275.1899

 Total job time:  24928.40s(wall), 182239.58s(cpu)
        *  Thank you very much for using Q-Chem.  Have a nice day.  *
