 Q-Chem 5.1, Q-Chem, Inc., Pleasanton, CA (2018)
 Q-Chem 5.1.1 for Intel X86 EM64T Linux

User input:
--------------------------------------------------------------
$rem
threads 8
jobtype	sp
method PBEh-3c
basis def2-mSVP
mem_static	1024
mem_total	10000
sym_ignore	true
cis_n_roots             6
cis_singlets            true
cis_triplets		true
rpa                     false
calc_soc 		true
cis_moments             true
cis_relaxed_density	true
$end

$molecule
read s1opt.mol
$end

--------------------------------------------------------------

             Standard Nuclear Orientation (Angstroms)
    I     Atom           X                Y                Z
 ----------------------------------------------------------------
    1      C       0.0000000000     0.0000000000     0.0000000000
    2      C       0.0000000000     0.0000000000     1.4133340000
    3      H       0.9375563928     0.0000000000     1.9621259260
    4      C      -1.1773241198    -0.0359253187     2.1143744480
    5      C      -2.4208661098    -0.0854680883     1.4198502756
    6      C      -2.4412351533    -0.0722731775     0.0455655535
    7      H      -3.3851620288    -0.1277982317    -0.4872136869
    8      C      -1.2470304862    -0.0304032086    -0.6944459481
    9      C      -3.4859971750    -0.2246963489     2.4076122066
   10      C      -4.8479729130    -0.3923536995     2.3595942177
   11      H      -5.3870998685    -0.4141279417     1.4207884165
   12      C      -2.8559904955    -0.2319634880     3.6688211991
   13      C      -3.5270391530    -0.3964866495     4.8780681194
   14      C      -1.4573400485    -0.1178573831     3.5475917361
   15      C      -0.7007394432    -0.1498215994     4.6917731291
   16      H       0.3795236731    -0.0790166600     4.6646809448
   17      C      -1.3560656172    -0.2942227127     5.9355007634
   18      H      -0.7566836578    -0.3207861748     6.8367060687
   19      C      -2.7219696559    -0.4164455150     6.0414615829
   20      H      -3.1801367980    -0.5404832564     7.0152692628
   21      C      -5.5542748013    -0.5566822230     3.5729731691
   22      H      -6.6274467519    -0.6931763857     3.5303919876
   23      C      -4.9313057341    -0.5587483836     4.7991454230
   24      H      -5.5133872385    -0.6973955782     5.7020945616
   25      B       1.2941456366    -0.0690890205    -0.8021438822
   26      C       1.2919352541    -0.1405034110    -2.3263682113
   27      C       2.4861294308    -0.2656020068    -3.0712227648
   28      H       3.4461969036    -0.2676196325    -2.5636845439
   29      C       2.4486307260    -0.4266225428    -4.4339221304
   30      C       1.1953669677    -0.4626707032    -5.1094740717
   31      C       0.0242401062    -0.3112099176    -4.4045958405
   32      H      -0.9306073386    -0.3520488227    -4.9180981921
   33      C       0.0372222280    -0.1581496164    -3.0088472071
   34      C       1.4435488058    -0.7774203193    -6.5100200158
   35      C       0.6531862775    -1.0262797932    -7.6039111607
   36      H      -0.4265477300    -0.9602573405    -7.5532351820
   37      C       2.8403454194    -0.9069409961    -6.6462172724
   38      C       3.4779524942    -1.2807198235    -7.8253353462
   39      C       3.4982972790    -0.6919118606    -5.4183885599
   40      C       4.8627996403    -0.8278484606    -5.3814989961
   41      H       5.4262717570    -0.6884043316    -4.4671628131
   42      C       1.2759786835    -1.3975869903    -8.8168227764
   43      H       0.6510052129    -1.5984353375    -9.6777092416
   44      C       2.6399634624    -1.5250730566    -8.9401984242
   45      H       3.0711471085    -1.8243508601    -9.8876271740
   46      C       5.5415015073    -1.1795927788    -6.5706891673
   47      H       6.6180835374    -1.2888464328    -6.5380034272
   48      C       4.8858461291    -1.4070915725    -7.7583620618
   49      H       5.4472646300    -1.6937770107    -8.6391903529
   50      B      -1.2901920234    -0.1144262554    -2.2288320885
   51      C       2.6529875829    -0.2397341160    -0.0291120543
   52      C       3.4892291382     0.8808709586     0.2987728195
   53      C       4.6571862889     0.6967022712     0.9924715078
   54      H       5.2807178905     1.5489741553     1.2272141134
   55      C       5.0375142565    -0.6032512288     1.3821458199
   56      O       6.1310438350    -0.8811514993     2.0478101803
   57      C       4.2334036277    -1.7240441902     1.0533634102
   58      H       4.5698317485    -2.7035844774     1.3678680998
   59      C       3.0733029035    -1.5592434457     0.3560033316
   60      C       7.0296683756     0.1448244985     2.4443969671
   61      H       7.8327896110    -0.3527098365     2.9782731249
   62      H       7.4414226960     0.6652186060     1.5789617063
   63      H       6.5445199019     0.8603124172     3.1093579197
   64      C       2.2225267903    -2.7334183922    -0.0028591248
   65      H       2.6731196784    -3.6695390842     0.3229061380
   66      H       2.0658717306    -2.7791747297    -1.0808109259
   67      H       1.2351527938    -2.6460518427     0.4511716990
   68      C       3.0665274828     2.2608850765    -0.0973589772
   69      H       2.5175288811     2.2174528464    -1.0385422282
   70      H       3.9520098212     2.8761319032    -0.2724907611
   71      C       2.1923051242     2.9116149088     0.9765287791
   72      H       1.2765223405     2.3464610730     1.1379774992
   73      H       1.9099999178     3.9171585821     0.6685378496
   74      H       2.7212957157     2.9862310622     1.9274251344
   75      C      -2.6748544039    -0.2015067861    -2.9846756957
   76      C      -3.2263300326    -1.4229839672    -3.3715584983
   77      C      -4.4454797342    -1.4764241179    -4.0507337263
   78      H      -4.8346773933    -2.4466308985    -4.3360138897
   79      C      -5.1284657215    -0.3100535130    -4.3534035018
   80      O      -6.3068438347    -0.2626451469    -5.0166246096
   81      C      -4.5904758576     0.9157857711    -3.9678065515
   82      H      -5.1287618893     1.8237563375    -4.2129910032
   83      C      -3.3841812243     0.9735679878    -3.2931178114
   84      C      -6.8689662338    -1.4680516845    -5.4550988796
   85      H      -7.7926883544    -1.2132752853    -5.9713371400
   86      H      -7.1102286240    -2.1429778784    -4.6266998627
   87      H      -6.2167344687    -2.0023773135    -6.1544451550
   88      C      -2.8179625542     2.3056179880    -2.8891777881
   89      H      -3.4317184141     3.1321681075    -3.2469343469
   90      H      -1.8094767855     2.4410699872    -3.2849372254
   91      H      -2.7441761031     2.3899515041    -1.8030981770
   92      C      -2.5529583963    -2.7303198440    -3.0333712291
   93      H      -1.4765951412    -2.5824542601    -2.9217998582
   94      H      -2.6753740679    -3.4304647086    -3.8650405313
   95      C      -3.1107115932    -3.3608411606    -1.7590363927
   96      H      -2.9559811184    -2.7101640963    -0.8981150647
   97      H      -4.1823393123    -3.5457933026    -1.8459412642
   98      H      -2.6239910276    -4.3142096635    -1.5476447313
 ----------------------------------------------------------------

   15   -2202.2463114075      6.99e-09  Convergence criterion met
 Total energy in the final basis set =    -2202.2463114075

         TDDFT/TDA Excitation Energies
 ---------------------------------------------------

 Excited state   1: excitation energy (eV) =    2.2036
 Total energy for state  1:                 -2202.16532985 au
    Multiplicity: Triplet
    Trans. Mom.:  0.0000 X   0.0000 Y   0.0000 Z
    Strength   :     0.0000000000
    D(183) --> V(  2) amplitude =  0.2469
    D(187) --> V(  1) amplitude =  0.5359
    D(188) --> V(  1) amplitude =  0.7427

 Excited state   2: excitation energy (eV) =    2.4045
 Total energy for state  2:                 -2202.15794619 au
    Multiplicity: Triplet
    Trans. Mom.:  0.0000 X   0.0000 Y   0.0000 Z
    Strength   :     0.0000000000
    D(187) --> V(  1) amplitude =  0.2870
    D(190) --> V(  1) amplitude =  0.8832

 Excited state   3: excitation energy (eV) =    2.4437
 Total energy for state  3:                 -2202.15650739 au
    Multiplicity: Triplet
    Trans. Mom.:  0.0000 X   0.0000 Y   0.0000 Z
    Strength   :     0.0000000000
    D(186) --> V(  2) amplitude = -0.4408
    D(187) --> V(  1) amplitude =  0.5869
    D(188) --> V(  1) amplitude = -0.4436
    D(190) --> V(  1) amplitude = -0.3618

 Excited state   4: excitation energy (eV) =    2.4537
 Total energy for state  4:                 -2202.15613891 au
    Multiplicity: Singlet
    Trans. Mom.: -0.0999 X   0.0046 Y  -0.1962 Z
    Strength   :     0.0029146685
    D(190) --> V(  1) amplitude =  0.9727

 Excited state   5: excitation energy (eV) =    2.4941
 Total energy for state  5:                 -2202.15465454 au
    Multiplicity: Triplet
    Trans. Mom.:  0.0000 X   0.0000 Y   0.0000 Z
    Strength   :     0.0000000000
    D(186) --> V(  1) amplitude =  0.7205
    D(186) --> V(  4) amplitude =  0.2317
    D(187) --> V(  2) amplitude = -0.3890
    D(188) --> V(  2) amplitude =  0.3852

 Excited state   6: excitation energy (eV) =    2.7034
 Total energy for state  6:                 -2202.14696282 au
    Multiplicity: Triplet
    Trans. Mom.:  0.0000 X   0.0000 Y   0.0000 Z
    Strength   :     0.0000000000
    D(183) --> V(  1) amplitude = -0.6944
    D(187) --> V(  2) amplitude = -0.3921
    D(188) --> V(  2) amplitude = -0.3959

 Excited state   7: excitation energy (eV) =    2.8753
 Total energy for state  7:                 -2202.14064430 au
    Multiplicity: Triplet
    Trans. Mom.:  0.0000 X   0.0000 Y   0.0000 Z
    Strength   :     0.0000000000
    D(189) --> V(  1) amplitude =  0.9293

 Excited state   8: excitation energy (eV) =    2.8858
 Total energy for state  8:                 -2202.14025837 au
    Multiplicity: Singlet
    Trans. Mom.: -0.1259 X   0.0132 Y   0.1472 Z
    Strength   :     0.0026642300
    D(187) --> V(  1) amplitude =  0.5798
    D(188) --> V(  1) amplitude =  0.7503

 Excited state   9: excitation energy (eV) =    2.9178
 Total energy for state  9:                 -2202.13908410 au
    Multiplicity: Singlet
    Trans. Mom.:  0.1441 X  -0.0042 Y   0.3185 Z
    Strength   :     0.0087345633
    D(189) --> V(  1) amplitude =  0.9502

 Excited state  10: excitation energy (eV) =    3.2228
 Total energy for state 10:                 -2202.12787488 au
    Multiplicity: Singlet
    Trans. Mom.:  1.7008 X  -0.2101 Y  -3.0495 Z
    Strength   :     0.9661465257
    D(187) --> V(  1) amplitude =  0.7441
    D(188) --> V(  1) amplitude = -0.5859

 Excited state  11: excitation energy (eV) =    3.5252
 Total energy for state 11:                 -2202.11676175 au
    Multiplicity: Singlet
    Trans. Mom.: -0.1253 X  -0.2553 Y  -0.0014 Z
    Strength   :     0.0069870289
    D(186) --> V(  1) amplitude =  0.9318

 Excited state  12: excitation energy (eV) =    3.6551
 Total energy for state 12:                 -2202.11198820 au
    Multiplicity: Singlet
    Trans. Mom.:  0.7122 X   0.0259 Y   0.3831 Z
    Strength   :     0.0586276397
    D(183) --> V(  1) amplitude = -0.7205
    D(187) --> V(  2) amplitude = -0.3824
    D(188) --> V(  2) amplitude = -0.4373

 ---------------------------------------------------

                    Orbital Energies (a.u.)
 --------------------------------------------------------------

 Alpha MOs
 -- Occupied --
-19.523 -19.522 -10.499 -10.498 -10.492 -10.488 -10.463 -10.463
-10.463 -10.462 -10.462 -10.462 -10.461 -10.460 -10.460 -10.460
-10.460 -10.460 -10.459 -10.459 -10.459 -10.459 -10.458 -10.458
-10.458 -10.458 -10.457 -10.457 -10.450 -10.450 -10.449 -10.448
-10.448 -10.447 -10.445 -10.444 -10.444 -10.444 -10.432 -10.430
-10.430 -10.430 -10.429 -10.429 -10.429 -10.426 -10.426 -10.423
-10.422 -10.419 -10.418 -10.416 -10.413 -10.411  -6.942  -6.935
 -1.189  -1.179  -1.013  -1.012  -0.958  -0.955  -0.950  -0.941
 -0.931  -0.931  -0.904  -0.896  -0.880  -0.879  -0.857  -0.851
 -0.850  -0.847  -0.845  -0.844  -0.820  -0.815  -0.814  -0.811
 -0.809  -0.800  -0.772  -0.768  -0.760  -0.758  -0.732  -0.727
 -0.725  -0.718  -0.705  -0.704  -0.687  -0.679  -0.677  -0.663
 -0.655  -0.645  -0.643  -0.641  -0.633  -0.629  -0.594  -0.590
 -0.589  -0.587  -0.582  -0.581  -0.579  -0.573  -0.573  -0.558
 -0.556  -0.541  -0.541  -0.538  -0.533  -0.532  -0.525  -0.521
 -0.510  -0.504  -0.501  -0.497  -0.496  -0.494  -0.493  -0.490
 -0.487  -0.486  -0.482  -0.481  -0.480  -0.479  -0.477  -0.473
 -0.472  -0.468  -0.465  -0.464  -0.462  -0.461  -0.458  -0.452
 -0.444  -0.442  -0.438  -0.436  -0.431  -0.426  -0.425  -0.421
 -0.420  -0.420  -0.417  -0.413  -0.410  -0.408  -0.403  -0.402
 -0.396  -0.393  -0.392  -0.392  -0.389  -0.389  -0.382  -0.381
 -0.375  -0.369  -0.363  -0.359  -0.356  -0.353  -0.349  -0.346
 -0.338  -0.331  -0.316  -0.310  -0.293  -0.292  -0.278  -0.273
 -0.271  -0.259  -0.252  -0.251  -0.247  -0.230

          Ground-State Mulliken Net Atomic Charges

     Atom                 Charge (a.u.)
  ----------------------------------------
      1 C                    -0.144128
      2 C                    -0.400448
      3 H                     0.241819
      4 C                     0.103741
      5 C                     0.102419
      6 C                    -0.404123
      7 H                     0.239089
      8 C                    -0.140524
      9 C                     0.194363
     10 C                    -0.380126
     11 H                     0.221704
     12 C                    -0.065509
     13 C                     0.248526
     14 C                     0.199222
     15 C                    -0.381087
     16 H                     0.221155
     17 C                    -0.203433
     18 H                     0.226158
     19 C                    -0.333421
     20 H                     0.220010
     21 C                    -0.204215
     22 H                     0.226110
     23 C                    -0.331990
     24 H                     0.220234
     25 B                     0.651061
     26 C                    -0.147404
     27 C                    -0.385284
     28 H                     0.232236
     29 C                     0.102083
     30 C                     0.100046
     31 C                    -0.386473
     32 H                     0.232971
     33 C                    -0.154642
     34 C                     0.191555
     35 C                    -0.376490
     36 H                     0.221058
     37 C                    -0.063842
     38 C                     0.249224
     39 C                     0.197181
     40 C                    -0.380925
     41 H                     0.220998
     42 C                    -0.204857
     43 H                     0.225502
     44 C                    -0.332088
     45 H                     0.219768
     46 C                    -0.202978
     47 H                     0.225793
     48 C                    -0.334273
     49 H                     0.219798
     50 B                     0.670979
     51 C                    -0.252765
     52 C                     0.114727
     53 C                    -0.445007
     54 H                     0.215732
     55 C                     0.399929
     56 O                    -0.444028
     57 C                    -0.393748
     58 H                     0.217300
     59 C                     0.074248
     60 C                    -0.402480
     61 H                     0.242214
     62 H                     0.209088
     63 H                     0.209018
     64 C                    -0.759550
     65 H                     0.235282
     66 H                     0.246769
     67 H                     0.247457
     68 C                    -0.546339
     69 H                     0.249476
     70 H                     0.224189
     71 C                    -0.647660
     72 H                     0.247368
     73 H                     0.217585
     74 H                     0.212757
     75 C                    -0.229624
     76 C                     0.071041
     77 C                    -0.423760
     78 H                     0.221359
     79 C                     0.401297
     80 O                    -0.454198
     81 C                    -0.378434
     82 H                     0.220841
     83 C                     0.066183
     84 C                    -0.405656
     85 H                     0.238631
     86 H                     0.202118
     87 H                     0.202652
     88 C                    -0.760238
     89 H                     0.236889
     90 H                     0.244572
     91 H                     0.245348
     92 C                    -0.547219
     93 H                     0.254293
     94 H                     0.225943
     95 C                    -0.640274
     96 H                     0.240359
     97 H                     0.211652
     98 H                     0.218118
  ----------------------------------------
  Sum of atomic charges =     0.000000

                    Cartesian Multipole Moments
 -----------------------------------------------------------------
    Charge (ESU x 10^10)
                -0.0000
    Dipole Moment (Debye)
         X       0.5264      Y      -1.1036      Z       0.3704
       Tot       1.2776
    Quadrupole Moments (Debye-Ang)
        XX    -274.8558     XY      16.3712     YY    -323.2620
        XZ       1.1789     YZ      15.5283     ZZ    -277.9516

 Total job time:  6647.15s(wall), 31827.55s(cpu)
        *  Thank you very much for using Q-Chem.  Have a nice day.  *
