 Q-Chem 5.1, Q-Chem, Inc., Pleasanton, CA (2018)
 Q-Chem 5.1.1 for Intel X86 EM64T Linux

User input:
--------------------------------------------------------------
$rem
threads 8
jobtype	opt
method PBEh-3c
basis def2-mSVP
mem_static	1024
mem_total	14000
sym_ignore	true
cis_n_roots             4
cis_singlets            false
cis_triplets		true
rpa                     false
cis_state_deriv         1
state_follow		true
$end

$molecule
read t3preopt.mol
$end

--------------------------------------------------------------

   15   -2202.2488054512      7.73e-09  Convergence criterion met
 Total energy in the final basis set =    -2202.2488054512
   11   -2202.2490625009      8.92e-09  Convergence criterion met
 Total energy in the final basis set =    -2202.2490625009
   10   -2202.2491733925      6.32e-09  Convergence criterion met
 Total energy in the final basis set =    -2202.2491733925
   11   -2202.2491556431      7.82e-09  Convergence criterion met
 Total energy in the final basis set =    -2202.2491556431
   11   -2202.2493310213      7.64e-09  Convergence criterion met
 Total energy in the final basis set =    -2202.2493310213
   11   -2202.2495366174      6.27e-09  Convergence criterion met
 Total energy in the final basis set =    -2202.2495366174
   10   -2202.2497242885      6.68e-09  Convergence criterion met
 Total energy in the final basis set =    -2202.2497242885
   10   -2202.2497438067      5.15e-09  Convergence criterion met
 Total energy in the final basis set =    -2202.2497438067
   10   -2202.2497455472      4.75e-09  Convergence criterion met
 Total energy in the final basis set =    -2202.2497455472
   10   -2202.2497762378      4.58e-09  Convergence criterion met
 Total energy in the final basis set =    -2202.2497762378
    9   -2202.2498206693      6.07e-09  Convergence criterion met
 Total energy in the final basis set =    -2202.2498206693
    8   -2202.2498343411      9.98e-09  Convergence criterion met
 Total energy in the final basis set =    -2202.2498343411

             Standard Nuclear Orientation (Angstroms)
    I     Atom           X                Y                Z
 ----------------------------------------------------------------
    1      C       2.5593069743    -1.4984628024     0.0111991094
    2      C       3.5306200213    -1.1664707822    -1.0281455216
    3      B       4.5811643318    -2.2009465701    -1.4640046745
    4      C       4.6320353745    -3.5524056041    -0.7337710459
    5      C       3.6479046161    -3.8912403478     0.2743874072
    6      B       2.5641144996    -2.8820485162     0.6819669169
    7      C       5.5942697899    -4.5058109593    -1.1051184121
    8      C       5.5831386334    -5.7576481674    -0.5430379894
    9      C       4.5739509694    -6.1083457438     0.4330866787
   10      C       3.6443194583    -5.1788219179     0.8310769961
   11      C       1.5528565631    -0.5810874262     0.3288395462
   12      C       1.4676612922     0.6171884459    -0.3417780753
   13      C       2.4485124597     0.9609098571    -1.3630134866
   14      C       3.4471652058     0.0719581637    -1.6822079073
   15      C       7.4389727899    -7.2442579097    -1.6237915538
   16      C       7.9286307607    -8.5675250490    -1.6318957729
   17      C       7.3830313711    -9.5648712270    -0.8550185871
   18      C       6.2895644286    -9.2842100112    -0.0016568720
   19      C       5.8392538994    -7.9671206165     0.0034257978
   20      C       6.3846361809    -6.9411489503    -0.7965451301
   21      C       5.5777696031   -10.1903685490     0.8206246352
   22      C       4.5009775593    -9.7555256834     1.5609314330
   23      C       4.0604697816    -8.4154452443     1.5448500216
   24      C       4.7384636697    -7.5119028490     0.7608369030
   25      C       1.8074559844     4.1922583387    -3.2827582337
   26      C       2.5373118839     3.0345004027    -2.9451217253
   27      C       2.0567538416     2.2300862705    -1.9378058882
   28      C       0.8580205929     2.6050969284    -1.2902314771
   29      C       0.1059098513     3.7267072565    -1.6231685380
   30      C       0.6289488548     4.5385124706    -2.6579422732
   31      C       0.4703285037     1.6573243732    -0.3158216809
   32      C      -0.7152745265     1.8459033406     0.3585218594
   33      C      -1.4881725675     2.9802818762     0.0449366386
   34      C      -1.1053628507     3.8979945355    -0.9101496587
   35      C       7.4933102593    -1.0177389219    -3.7560416932
   36      C       6.6954370293    -1.2177098810    -2.6277593683
   37      C       5.5100582049    -1.9462414667    -2.7097386687
   38      C       5.1336944538    -2.4738923739    -3.9603697195
   39      C       5.9268218240    -2.2683029929    -5.0744320480
   40      C       7.1108373406    -1.5405702497    -4.9814236945
   41      C       7.1772240390    -0.6775394087    -1.3068713938
   42      C       3.8594421315    -3.2621937684    -4.1010322511
   43      O       7.8067125950    -1.3944218591    -6.1296812150
   44      C       9.0045114181    -0.6679031181    -6.0962692859
   45      C       0.7469790678    -3.4901078690     4.0396078877
   46      C       1.7154662781    -3.1579340001     3.1099006795
   47      C       1.4568021092    -3.2763757453     1.7323372008
   48      C       0.2049842577    -3.7426632060     1.3311381065
   49      C      -0.7681039924    -4.0775336004     2.2746084073
   50      C      -0.5026818129    -3.9503642475     3.6285018970
   51      C       3.0559133134    -2.6599078039     3.5721731544
   52      C      -0.1280275523    -3.9495167709    -0.1260480334
   53      O      -1.3830653276    -4.2398053262     4.6109379953
   54      C      -2.6646954270    -4.6773632965     4.2493892037
   55      H       6.3225531407    -4.2548151051    -1.8682750888
   56      H       2.8805480800    -5.4401381636     1.5554278527
   57      H       0.8138933109    -0.8442607311     1.0772590414
   58      H       4.1569961836     0.3002411422    -2.4692033124
   59      H       7.8879150671    -6.5017083318    -2.2707378368
   60      H       8.7577819610    -8.8078762474    -2.2844768437
   61      H       7.7840417543   -10.5696415233    -0.9075459283
   62      H       5.8717660143   -11.2321315383     0.8587049661
   63      H       3.9651882177   -10.4685872910     2.1739648437
   64      H       3.1985909249    -8.1271378038     2.1330155837
   65      H       2.1819442439     4.8247418083    -4.0769759757
   66      H       3.4425292454     2.7905086030    -3.4859399592
   67      H       0.0965530476     5.4288070098    -2.9686824371
   68      H      -1.0656133116     1.1415618365     1.1021472453
   69      H      -2.4236016224     3.1304200829     0.5680503175
   70      H      -1.7418663232     4.7478431250    -1.1231277681
   71      H       8.4065055397    -0.4445001592    -3.6513629098
   72      H       5.6320067765    -2.6646807343    -6.0390623683
   73      H       7.7268418438     0.2540052413    -1.4667842342
   74      C       8.0723358499    -1.6720630663    -0.5706096386
   75      H       6.3259834898    -0.4193298679    -0.6713237650
   76      H       9.3993708199    -0.6709110033    -7.1103032411
   77      H       9.7488064120    -1.1214298170    -5.4331741857
   78      H       8.8526084397     0.3712892827    -5.7863405715
   79      H       0.9437740362    -3.3886788503     5.1002749113
   80      H      -1.7289935440    -4.4314835485     1.9206505930
   81      H       0.4707688478    -3.2844255931    -0.7527688846
   82      H      -1.1698745038    -3.6697462860    -0.3063359854
   83      C       0.0890327385    -5.3933451935    -0.5742542351
   84      H      -3.2122127790    -4.8391685959     5.1757164366
   85      H      -3.2047899584    -3.9351255110     3.6520190715
   86      H      -2.6422162094    -5.6193185440     3.6911550822
   87      H       1.1314888083    -5.6904385309    -0.4570332010
   88      H      -0.1761001630    -5.5214445231    -1.6243943714
   89      H      -0.5195028835    -6.0838758641     0.0110728380
   90      H       8.9423347133    -1.9369235404    -1.1728463265
   91      H       7.5350552229    -2.5929253751    -0.3428808353
   92      H       8.4304040765    -1.2571284867     0.3722915008
   93      H       3.6578602501    -3.5138681005    -5.1419637210
   94      H       2.9980340261    -2.7063828698    -3.7252327027
   95      H       3.9005249156    -4.1973946510    -3.5391476781
   96      H       3.2946851774    -1.6918254448     3.1271609537
   97      H       3.8554642184    -3.3457814208     3.2840777771
   98      H       3.0941498935    -2.5450952455     4.6549693909
 ----------------------------------------------------------------

    8   -2202.2498124674      7.21e-09  Convergence criterion met
 Total energy in the final basis set =    -2202.2498124674

         TDDFT/TDA Excitation Energies
 ---------------------------------------------------

 Excited state   1: excitation energy (eV) =    1.9940
 Total energy for state  1:                 -2202.17653467 au
    Multiplicity: Triplet
    Trans. Mom.:  0.0000 X   0.0000 Y   0.0000 Z
    Strength   :     0.0000000000
    D(183) --> V(  2) amplitude = -0.2483
    D(188) --> V(  1) amplitude =  0.2309
    D(189) --> V(  1) amplitude =  0.7907
    D(190) --> V(  1) amplitude =  0.4194

 Excited state   2: excitation energy (eV) =    2.3687
 Total energy for state  2:                 -2202.16276482 au
    Multiplicity: Triplet
    Trans. Mom.:  0.0000 X   0.0000 Y   0.0000 Z
    Strength   :     0.0000000000
    D(186) --> V(  2) amplitude =  0.4590
    D(187) --> V(  1) amplitude =  0.7583

 Excited state   3: excitation energy (eV) =    2.4366
 Total energy for state  3:                 -2202.16026886 au
    Multiplicity: Triplet
    Trans. Mom.:  0.0000 X   0.0000 Y   0.0000 Z
    Strength   :     0.0000000000
    D(186) --> V(  1) amplitude =  0.6846
    D(186) --> V(  4) amplitude =  0.2163
    D(187) --> V(  2) amplitude =  0.5187

 Excited state   4: excitation energy (eV) =    2.4936
 Total energy for state  4:                 -2202.15817393 au
    Multiplicity: Triplet
    Trans. Mom.:  0.0000 X   0.0000 Y   0.0000 Z
    Strength   :     0.0000000000
    D(183) --> V(  1) amplitude = -0.6690
    D(189) --> V(  2) amplitude =  0.4867
    D(190) --> V(  2) amplitude =  0.2277

 ---------------------------------------------------

 Final energy is   -2202.17653466930
 **  OPTIMIZATION CONVERGED  **

                    Orbital Energies (a.u.)
 --------------------------------------------------------------

 Alpha MOs
 -- Occupied --
-19.522 -19.522 -10.498 -10.498 -10.488 -10.488 -10.464 -10.463
-10.463 -10.463 -10.463 -10.463 -10.461 -10.461 -10.461 -10.461
-10.461 -10.461 -10.460 -10.460 -10.459 -10.459 -10.459 -10.458
-10.458 -10.458 -10.458 -10.458 -10.449 -10.449 -10.449 -10.448
-10.448 -10.448 -10.447 -10.446 -10.445 -10.445 -10.432 -10.432
-10.432 -10.431 -10.431 -10.430 -10.430 -10.430 -10.426 -10.426
-10.423 -10.421 -10.419 -10.418 -10.412 -10.412  -6.939  -6.939
 -1.180  -1.180  -1.012  -1.011  -0.957  -0.953  -0.951  -0.949
 -0.932  -0.932  -0.902  -0.894  -0.880  -0.879  -0.859  -0.854
 -0.852  -0.848  -0.846  -0.846  -0.815  -0.815  -0.813  -0.811
 -0.810  -0.795  -0.773  -0.772  -0.760  -0.760  -0.731  -0.730
 -0.727  -0.716  -0.706  -0.705  -0.687  -0.681  -0.676  -0.664
 -0.655  -0.646  -0.641  -0.639  -0.634  -0.633  -0.596  -0.592
 -0.588  -0.588  -0.582  -0.582  -0.581  -0.574  -0.573  -0.558
 -0.557  -0.540  -0.540  -0.533  -0.533  -0.533  -0.525  -0.521
 -0.512  -0.507  -0.499  -0.498  -0.495  -0.495  -0.493  -0.490
 -0.489  -0.488  -0.481  -0.480  -0.480  -0.480  -0.477  -0.473
 -0.471  -0.468  -0.465  -0.463  -0.461  -0.460  -0.457  -0.454
 -0.443  -0.443  -0.439  -0.435  -0.430  -0.427  -0.424  -0.421
 -0.419  -0.418  -0.417  -0.412  -0.410  -0.406  -0.404  -0.402
 -0.397  -0.394  -0.393  -0.393  -0.389  -0.387  -0.382  -0.382
 -0.373  -0.369  -0.365  -0.361  -0.359  -0.355  -0.351  -0.345
 -0.337  -0.333  -0.319  -0.313  -0.294  -0.293  -0.273  -0.271
 -0.271  -0.260  -0.252  -0.247  -0.245  -0.245

          Ground-State Mulliken Net Atomic Charges

     Atom                 Charge (a.u.)
  ----------------------------------------
      1 C                    -0.157282
      2 C                    -0.155136
      3 B                     0.664332
      4 C                    -0.149155
      5 C                    -0.146689
      6 B                     0.663051
      7 C                    -0.397540
      8 C                     0.094998
      9 C                     0.089340
     10 C                    -0.395060
     11 C                    -0.375138
     12 C                     0.083116
     13 C                     0.089311
     14 C                    -0.378686
     15 C                    -0.375899
     16 C                    -0.204737
     17 C                    -0.332558
     18 C                     0.247489
     19 C                    -0.068763
     20 C                     0.198177
     21 C                    -0.331885
     22 C                    -0.204670
     23 C                    -0.375436
     24 C                     0.198753
     25 C                    -0.204309
     26 C                    -0.372625
     27 C                     0.198234
     28 C                    -0.071159
     29 C                     0.248272
     30 C                    -0.332605
     31 C                     0.196975
     32 C                    -0.368443
     33 C                    -0.205214
     34 C                    -0.331629
     35 C                    -0.423857
     36 C                     0.088622
     37 C                    -0.220946
     38 C                     0.053609
     39 C                    -0.381592
     40 C                     0.402046
     41 C                    -0.546015
     42 C                    -0.759099
     43 O                    -0.453809
     44 C                    -0.405243
     45 C                    -0.378457
     46 C                     0.068684
     47 C                    -0.230150
     48 C                     0.073372
     49 C                    -0.425041
     50 C                     0.401922
     51 C                    -0.759036
     52 C                    -0.548107
     53 O                    -0.453829
     54 C                    -0.405477
     55 H                     0.241407
     56 H                     0.239665
     57 H                     0.234058
     58 H                     0.232339
     59 H                     0.221970
     60 H                     0.226419
     61 H                     0.220163
     62 H                     0.220094
     63 H                     0.226437
     64 H                     0.222108
     65 H                     0.226146
     66 H                     0.221745
     67 H                     0.220171
     68 H                     0.222238
     69 H                     0.226158
     70 H                     0.220010
     71 H                     0.220660
     72 H                     0.220936
     73 H                     0.224669
     74 C                    -0.644020
     75 H                     0.250503
     76 H                     0.238625
     77 H                     0.202578
     78 H                     0.202780
     79 H                     0.220632
     80 H                     0.221091
     81 H                     0.255399
     82 H                     0.225962
     83 C                    -0.640218
     84 H                     0.238812
     85 H                     0.202946
     86 H                     0.202572
     87 H                     0.240400
     88 H                     0.217885
     89 H                     0.211527
     90 H                     0.213211
     91 H                     0.241419
     92 H                     0.218908
     93 H                     0.236726
     94 H                     0.245359
     95 H                     0.248196
     96 H                     0.244486
     97 H                     0.245379
     98 H                     0.236420
  ----------------------------------------
  Sum of atomic charges =     0.000000

                    Cartesian Multipole Moments
 -----------------------------------------------------------------
    Charge (ESU x 10^10)
                -0.0000
    Dipole Moment (Debye)
         X      -0.5817      Y      -0.1524      Z      -0.9583
       Tot       1.1313
    Quadrupole Moments (Debye-Ang)
        XX    -280.9540     XY      -2.9378     YY    -279.6978
        XZ     -22.1435     YZ     -12.4547     ZZ    -320.3678

 Total job time:  30661.41s(wall), 212361.22s(cpu)
        *  Thank you very much for using Q-Chem.  Have a nice day.  *
