 Q-Chem 5.1, Q-Chem, Inc., Pleasanton, CA (2018)
 Q-Chem 5.1.1 for Intel X86 EM64T Linux

User input:
--------------------------------------------------------------
$rem
threads 8
jobtype	opt
method PBEh-3c
basis def2-mSVP
mem_static	1024
mem_total	14000
sym_ignore	true
cis_n_roots             2
cis_singlets            false
cis_triplets		true
rpa                     false
cis_state_deriv         1
$end

$molecule
read s1opt.mol
$end

--------------------------------------------------------------

   15   -2202.2463114075      6.99e-09  Convergence criterion met
 Total energy in the final basis set =    -2202.2463114075
   13   -2202.2509135409      4.94e-09  Convergence criterion met
 Total energy in the final basis set =    -2202.2509135409
   12   -2202.2508760749      6.48e-09  Convergence criterion met
 Total energy in the final basis set =    -2202.2508760749
   12   -2202.2508992251      6.51e-09  Convergence criterion met
 Total energy in the final basis set =    -2202.2508992251
   11   -2202.2515339285      6.38e-09  Convergence criterion met
 Total energy in the final basis set =    -2202.2515339285
   10   -2202.2516361503      8.02e-09  Convergence criterion met
 Total energy in the final basis set =    -2202.2516361503
   10   -2202.2516298713      6.09e-09  Convergence criterion met
 Total energy in the final basis set =    -2202.2516298713
    9   -2202.2516211452      6.05e-09  Convergence criterion met
 Total energy in the final basis set =    -2202.2516211452

             Standard Nuclear Orientation (Angstroms)
    I     Atom           X                Y                Z
 ----------------------------------------------------------------
    1      C       0.0202532878    -0.4038557844     0.0655901450
    2      C       0.0284821162    -0.3601798190     1.4732158448
    3      H       0.9789970734    -0.3638606345     1.9952992756
    4      C      -1.1509856139    -0.3068696192     2.1750958050
    5      C      -2.4126833117    -0.2860955070     1.4580611224
    6      C      -2.4406378023    -0.3290095281     0.0839583694
    7      H      -3.3874828861    -0.3159251966    -0.4452020774
    8      C      -1.2500239060    -0.3935432440    -0.6456627294
    9      C      -3.4803139816    -0.2211196970     2.4242029462
   10      C      -4.8535865601    -0.1756191755     2.3446141540
   11      H      -5.3699611919    -0.1836106022     1.3930554966
   12      C      -2.8661690169    -0.2058730292     3.6951158087
   13      C      -3.5721879363    -0.1487484943     4.8915729183
   14      C      -1.4586562077    -0.2558622894     3.5937734168
   15      C      -0.7245991570    -0.2483245948     4.7544106794
   16      H       0.3569737313    -0.2852524968     4.7448121312
   17      C      -1.4143640644    -0.1912335920     5.9844899144
   18      H      -0.8357368807    -0.1857987778     6.8987654765
   19      C      -2.7882573355    -0.1424147711     6.0689044042
   20      H      -3.2675732928    -0.0995161884     7.0389180290
   21      C      -5.5894390524    -0.1175287444     3.5436963112
   22      H      -6.6697175626    -0.0818640758     3.4882819203
   23      C      -4.9839904968    -0.1040853659     4.7821819605
   24      H      -5.5937836900    -0.0586803078     5.6759234777
   25      B       1.3451343409    -0.4618339496    -0.7136560408
   26      C       1.3004033014    -0.5548672713    -2.2470311290
   27      C       2.4966610684    -0.6661919963    -2.9801664809
   28      H       3.4395508252    -0.6961781378    -2.4459423793
   29      C       2.4661003183    -0.7325298180    -4.3519636419
   30      C       1.1907908440    -0.6781506336    -5.0444390461
   31      C       0.0122522525    -0.5787550990    -4.3453158882
   32      H      -0.9349936065    -0.5469070167    -4.8720076859
   33      C       0.0257417161    -0.5268401520    -2.9494237669
   34      C       1.4415866419    -0.7569559596    -6.4620620504
   35      C       0.6484054251    -0.7534916081    -7.5875030202
   36      H      -0.4295195617    -0.6751505391    -7.5244439475
   37      C       2.8410518095    -0.8608787520    -6.6121467191
   38      C       3.4779980049    -0.9642196331    -7.8454426227
   39      C       3.5030022302    -0.8507909752    -5.3649102546
   40      C       4.8735720546    -0.9509860355    -5.3604251098
   41      H       5.4417115650    -0.9522796447    -4.4393908204
   42      C       1.2719989334    -0.8555112357    -8.8463119201
   43      H       0.6526537954    -0.8528112268    -9.7339247617
   44      C       2.6391690376    -0.9588786336    -8.9868961633
   45      H       3.0731699080    -1.0358487189    -9.9761987063
   46      C       5.5462678190    -1.0563430971    -6.5968452044
   47      H       6.6254356490    -1.1353802910    -6.5902333328
   48      C       4.8879710558    -1.0642970082    -7.8064358417
   49      H       5.4511887225    -1.1485852293    -8.7275994483
   50      B      -1.3018141194    -0.4482262569    -2.1807595244
   51      C       2.7231689186    -0.4538041391     0.0432900114
   52      C       3.4593332110     0.7189781600     0.2101241020
   53      C       4.6717463589     0.7071850585     0.9015122290
   54      H       5.2131085752     1.6388417112     1.0115154053
   55      C       5.1639901531    -0.4787450053     1.4252588263
   56      O       6.3231208091    -0.5923910034     2.1087503433
   57      C       4.4436511515    -1.6578712601     1.2459029541
   58      H       4.8451773809    -2.5817452777     1.6454004441
   59      C       3.2395982451    -1.6526037500     0.5656175319
   60      C       7.0816816718     0.5648139672     2.3302203679
   61      H       7.9536483261     0.2611644910     2.9060136022
   62      H       7.4252738935     1.0232717936     1.3967464744
   63      H       6.5322251115     1.3191159638     2.9034358627
   64      C       2.4846473128    -2.9392537350     0.3719192583
   65      H       3.0302966191    -3.7925036205     0.7739085006
   66      H       2.2982337788    -3.1353206031    -0.6862841342
   67      H       1.5094330153    -2.9112367388     0.8622703271
   68      C       2.9434455052     2.0339464547    -0.3167317317
   69      H       2.3943684278     1.8773529069    -1.2490405221
   70      H       3.7865796284     2.6810122632    -0.5731903034
   71      C       2.0417083164     2.7555499036     0.6823605735
   72      H       1.1492681231     2.1707339620     0.9053128765
   73      H       1.7148092385     3.7191720554     0.2895731390
   74      H       2.5624894174     2.9354958788     1.6235502821
   75      C      -2.6743169106    -0.4028856493    -2.9579574569
   76      C      -3.2992372083    -1.5631880475    -3.4150065358
   77      C      -4.5034032523    -1.4993444240    -4.1187464575
   78      H      -4.9533425386    -2.4253551836    -4.4568797475
   79      C      -5.0978386177    -0.2756377381    -4.3790333053
   80      O      -6.2585719503    -0.1140401785    -5.0502809907
   81      C      -4.4776787909     0.8906065831    -3.9359638756
   82      H      -4.9425139770     1.8449020010    -4.1536257120
   83      C      -3.2857378884     0.8339597908    -3.2367092277
   84      C      -6.9236334020    -1.2565207358    -5.5169627987
   85      H      -7.8283261383    -0.9102422942    -6.0127204029
   86      H      -7.2100292873    -1.9327320457    -4.7046090908
   87      H      -6.3261961353    -1.8205096096    -6.2411278975
   88      C      -2.6325568643     2.1097755054    -2.7847302435
   89      H      -3.1944622657     2.9863750173    -3.1057542160
   90      H      -1.6208829187     2.2015167281    -3.1859035813
   91      H      -2.5470000267     2.1523470491    -1.6972226819
   92      C      -2.7276180365    -2.9280513676    -3.1257210425
   93      H      -1.6431419199    -2.8690653455    -3.0052479331
   94      H      -2.8978568199    -3.5847361788    -3.9834398294
   95      C      -3.3413186550    -3.5584219883    -1.8779078844
   96      H      -3.1421793834    -2.9516541694    -0.9944520127
   97      H      -4.4233654119    -3.6544948639    -1.9763219691
   98      H      -2.9316103143    -4.5529331833    -1.6977992741
 ----------------------------------------------------------------

    9   -2202.2516243113      4.76e-09  Convergence criterion met
 Total energy in the final basis set =    -2202.2516243113

         TDDFT/TDA Excitation Energies
 ---------------------------------------------------

 Excited state   1: excitation energy (eV) =    1.9906
 Total energy for state  1:                 -2202.17847228 au
    Multiplicity: Triplet
    Trans. Mom.:  0.0000 X   0.0000 Y   0.0000 Z
    Strength   :     0.0000000000
    D(183) --> V(  2) amplitude = -0.2484
    D(189) --> V(  1) amplitude =  0.9173

 Excited state   2: excitation energy (eV) =    2.3754
 Total energy for state  2:                 -2202.16432957 au
    Multiplicity: Triplet
    Trans. Mom.:  0.0000 X   0.0000 Y   0.0000 Z
    Strength   :     0.0000000000
    D(186) --> V(  2) amplitude =  0.4768
    D(187) --> V(  1) amplitude =  0.7972

 ---------------------------------------------------

 Final energy is   -2202.17847228104
 **  OPTIMIZATION CONVERGED  **

                    Orbital Energies (a.u.)
 --------------------------------------------------------------

 Alpha MOs
 -- Occupied --
-19.523 -19.522 -10.498 -10.497 -10.488 -10.487 -10.464 -10.463
-10.463 -10.463 -10.463 -10.463 -10.462 -10.462 -10.461 -10.461
-10.461 -10.461 -10.460 -10.460 -10.459 -10.459 -10.458 -10.458
-10.458 -10.458 -10.458 -10.457 -10.451 -10.449 -10.449 -10.448
-10.447 -10.447 -10.447 -10.446 -10.445 -10.444 -10.432 -10.432
-10.431 -10.431 -10.430 -10.430 -10.430 -10.430 -10.426 -10.425
-10.423 -10.422 -10.418 -10.416 -10.413 -10.411  -6.940  -6.938
 -1.180  -1.179  -1.012  -1.011  -0.957  -0.953  -0.951  -0.949
 -0.932  -0.932  -0.902  -0.894  -0.880  -0.878  -0.859  -0.854
 -0.852  -0.849  -0.846  -0.845  -0.816  -0.814  -0.813  -0.811
 -0.810  -0.795  -0.773  -0.771  -0.760  -0.760  -0.731  -0.730
 -0.727  -0.716  -0.705  -0.705  -0.687  -0.681  -0.676  -0.664
 -0.655  -0.645  -0.640  -0.639  -0.634  -0.633  -0.596  -0.592
 -0.588  -0.587  -0.582  -0.581  -0.581  -0.574  -0.573  -0.558
 -0.557  -0.540  -0.540  -0.533  -0.533  -0.532  -0.525  -0.521
 -0.512  -0.506  -0.500  -0.498  -0.495  -0.494  -0.493  -0.490
 -0.489  -0.488  -0.481  -0.481  -0.480  -0.480  -0.477  -0.472
 -0.471  -0.468  -0.465  -0.463  -0.461  -0.460  -0.457  -0.454
 -0.443  -0.442  -0.439  -0.434  -0.431  -0.426  -0.425  -0.421
 -0.419  -0.418  -0.417  -0.412  -0.410  -0.406  -0.403  -0.402
 -0.397  -0.394  -0.393  -0.393  -0.389  -0.387  -0.382  -0.380
 -0.373  -0.369  -0.364  -0.361  -0.359  -0.355  -0.351  -0.344
 -0.337  -0.333  -0.319  -0.313  -0.294  -0.293  -0.274  -0.271
 -0.271  -0.260  -0.252  -0.247  -0.245  -0.245

          Ground-State Mulliken Net Atomic Charges

     Atom                 Charge (a.u.)
  ----------------------------------------
      1 C                    -0.152582
      2 C                    -0.397809
      3 H                     0.239931
      4 C                     0.104551
      5 C                     0.081434
      6 C                    -0.392683
      7 H                     0.237531
      8 C                    -0.146072
      9 C                     0.197734
     10 C                    -0.370364
     11 H                     0.222157
     12 C                    -0.071004
     13 C                     0.252211
     14 C                     0.202084
     15 C                    -0.380564
     16 H                     0.222240
     17 C                    -0.203570
     18 H                     0.226338
     19 C                    -0.335709
     20 H                     0.220429
     21 C                    -0.205717
     22 H                     0.226699
     23 C                    -0.331995
     24 H                     0.220098
     25 B                     0.664862
     26 C                    -0.156786
     27 C                    -0.384570
     28 H                     0.235107
     29 C                     0.103643
     30 C                     0.078146
     31 C                    -0.375024
     32 H                     0.233925
     33 C                    -0.154469
     34 C                     0.198739
     35 C                    -0.369441
     36 H                     0.221769
     37 C                    -0.071137
     38 C                     0.250423
     39 C                     0.202521
     40 C                    -0.380824
     41 H                     0.221841
     42 C                    -0.205876
     43 H                     0.226187
     44 C                    -0.330991
     45 H                     0.219719
     46 C                    -0.203345
     47 H                     0.225878
     48 C                    -0.335414
     49 H                     0.220200
     50 B                     0.667053
     51 C                    -0.222191
     52 C                     0.084146
     53 C                    -0.429734
     54 H                     0.220871
     55 C                     0.401503
     56 O                    -0.453933
     57 C                    -0.380485
     58 H                     0.220259
     59 C                     0.060170
     60 C                    -0.405517
     61 H                     0.238409
     62 H                     0.202767
     63 H                     0.203073
     64 C                    -0.759817
     65 H                     0.236296
     66 H                     0.244426
     67 H                     0.246086
     68 C                    -0.549882
     69 H                     0.253509
     70 H                     0.225234
     71 C                    -0.645359
     72 H                     0.245711
     73 H                     0.217392
     74 H                     0.213305
     75 C                    -0.227832
     76 C                     0.079264
     77 C                    -0.423518
     78 H                     0.221210
     79 C                     0.401751
     80 O                    -0.453915
     81 C                    -0.379689
     82 H                     0.220755
     83 C                     0.060041
     84 C                    -0.405630
     85 H                     0.238828
     86 H                     0.203116
     87 H                     0.202914
     88 C                    -0.759160
     89 H                     0.236589
     90 H                     0.244295
     91 H                     0.245670
     92 C                    -0.547888
     93 H                     0.254028
     94 H                     0.225901
     95 C                    -0.640155
     96 H                     0.239445
     97 H                     0.212141
     98 H                     0.218100
  ----------------------------------------
  Sum of atomic charges =     0.000000

                    Cartesian Multipole Moments
 -----------------------------------------------------------------
    Charge (ESU x 10^10)
                 0.0000
    Dipole Moment (Debye)
         X      -0.1322      Y      -0.0874      Z      -0.1701
       Tot       0.2325
    Quadrupole Moments (Debye-Ang)
        XX    -277.4326     XY      15.0600     YY    -324.7927
        XZ      -1.9503     YZ      12.1286     ZZ    -275.2553

 Total job time:  19211.70s(wall), 140302.22s(cpu)
        *  Thank you very much for using Q-Chem.  Have a nice day.  *
