 Q-Chem 5.1, Q-Chem, Inc., Pleasanton, CA (2018)
 Q-Chem 5.1.1 for Intel X86 EM64T Linux

User input:
--------------------------------------------------------------
$rem
threads 8
jobtype	opt
method PBEh-3c
basis def2-mSVP
mem_static	512
mem_total	6096
sym_ignore	true
solvent_method  pcm
$end

$pcm
theory iefpcm
$end
$solvent
dielectric 7
$end

$molecule
0 1
C        -19.14123        9.29663       -7.40062
C        -16.85698        8.85892       -7.03766
C        -15.84458        8.41289       -5.98880
H        -15.86645        9.10130       -5.13539
O        -14.53992        8.39234       -6.56781
H        -16.10761        7.41429       -5.61961
C        -13.55881        7.98585       -5.62278
H        -13.52400        8.68523       -4.78190
H        -12.58378        7.98573       -6.11733
H        -13.76865        6.97374       -5.26358
O        -18.16153        8.88029       -6.45841
H        -19.17554        8.60588       -8.24863
H        -18.93017       10.31218       -7.74924
H        -20.11686        9.29261       -6.90726
H        -16.83593        8.17020       -7.89083
H        -16.59324        9.85718       -7.40728
$end

--------------------------------------------------------------

   11    -308.1822298576      5.21e-09  Convergence criterion met
 Total energy in the final basis set =     -308.1822298576
   10    -308.1840132561      8.42e-09  Convergence criterion met
 Total energy in the final basis set =     -308.1840132561
   10    -308.1843657338      8.39e-09  Convergence criterion met
 Total energy in the final basis set =     -308.1843657338

             Standard Nuclear Orientation (Angstroms)
    I     Atom           X                Y                Z
 ----------------------------------------------------------------
    1      C     -19.1112946004     9.2848921195    -7.3843477022
    2      C     -16.8398553467     8.8635346139    -7.0459745298
    3      C     -15.8606298306     8.4149097853    -5.9787868357
    4      H     -15.9032231363     9.1030591263    -5.1218425201
    5      O     -14.5787916084     8.3942978236    -6.5482385279
    6      H     -16.1458790763     7.4199909877    -5.6067588112
    7      C     -13.5893894953     7.9930439160    -5.6402203565
    8      H     -13.5219848852     8.6681532688    -4.7781013506
    9      H     -12.6317378743     8.0026332490    -6.1597714697
   10      H     -13.7652386112     6.9795690708    -5.2585750759
   11      O     -18.1217686836     8.8833668304    -6.4765984299
   12      H     -19.1779155574     8.6108591274    -8.2473749256
   13      H     -18.9363891324    10.2990405601    -7.7646259228
   14      H     -20.0690917163     9.2736375376    -6.8650820890
   15      H     -16.7970030784     8.1755968615    -7.9030696521
   16      H     -16.5550873673     9.8586751223    -7.4177618011
 ----------------------------------------------------------------

   10    -308.1843762697      8.14e-09  Convergence criterion met
 Total energy in the final basis set =     -308.1843762697
 Final energy is   -308.184376269697
 **  OPTIMIZATION CONVERGED  **

                    Orbital Energies (a.u.)
 --------------------------------------------------------------

 Alpha MOs
 -- Occupied --
-19.499 -19.499 -10.480 -10.479 -10.473 -10.473  -1.155  -1.145
 -0.853  -0.775  -0.721  -0.680  -0.565  -0.563  -0.541  -0.521
 -0.514  -0.486  -0.467  -0.413  -0.410  -0.382  -0.372  -0.316
 -0.312

          Ground-State Mulliken Net Atomic Charges

     Atom                 Charge (a.u.)
  ----------------------------------------
      1 C                    -0.385863
      2 C                    -0.161495
      3 C                    -0.161492
      4 H                     0.198637
      5 O                    -0.477906
      6 H                     0.198713
      7 C                    -0.385864
      8 H                     0.198719
      9 H                     0.230492
     10 H                     0.198709
     11 O                    -0.477916
     12 H                     0.198703
     13 H                     0.198714
     14 H                     0.230485
     15 H                     0.198643
     16 H                     0.198720
  ----------------------------------------
  Sum of atomic charges =     0.000000

                    Cartesian Multipole Moments
 -----------------------------------------------------------------
    Charge (ESU x 10^10)
                 0.0000
    Dipole Moment (Debye)
         X       0.0000      Y       0.0009      Z       0.0003
       Tot       0.0009
    Quadrupole Moments (Debye-Ang)
        XX     -32.8014     XY      -2.4746     YY     -36.9527
        XZ       6.1346     YZ      -1.3236     ZZ     -36.1756

 Total job time:  42.89s(wall), 314.66s(cpu)
        *  Thank you very much for using Q-Chem.  Have a nice day.  *
