 Q-Chem 5.0, Q-Chem, Inc., Pleasanton, CA (2017)
 Q-Chem 5.0.1 for Intel X86 EM64T Linux

User input:
--------------------------------------------------------------
$rem
threads 8
jobtype	opt
method PBEh-3c
basis def2-mSVP
mem_static	512
mem_total	6096
sym_ignore	true
$end

$molecule
read incoords3.mol
$end

--------------------------------------------------------------

   15   -2280.6635343149      5.07E-09 Convergence criterion met
 Total energy in the final basis set = -2280.66353431
   12   -2280.6974110053      8.01E-09 Convergence criterion met
 Total energy in the final basis set = -2280.69741101
   12   -2280.7063596322      9.12E-09 Convergence criterion met
 Total energy in the final basis set = -2280.70635963
   13   -2280.7075515506      5.26E-09 Convergence criterion met
 Total energy in the final basis set = -2280.70755155
   13   -2280.7074200665      6.04E-09 Convergence criterion met
 Total energy in the final basis set = -2280.70742007
   12   -2280.7061285696      6.22E-09 Convergence criterion met
 Total energy in the final basis set = -2280.70612857
   12   -2280.7064679989      4.75E-09 Convergence criterion met
 Total energy in the final basis set = -2280.70646800
   10   -2280.7065501656      7.28E-09 Convergence criterion met
 Total energy in the final basis set = -2280.70655017
   11   -2280.7065303340      5.82E-09 Convergence criterion met
 Total energy in the final basis set = -2280.70653033
   10   -2280.7064443926      6.62E-09 Convergence criterion met
 Total energy in the final basis set = -2280.70644439
    9   -2280.7064686632      7.19E-09 Convergence criterion met
 Total energy in the final basis set = -2280.70646866
    9   -2280.7064805969      7.41E-09 Convergence criterion met
 Total energy in the final basis set = -2280.70648060
    8   -2280.7064676635      7.91E-09 Convergence criterion met
 Total energy in the final basis set = -2280.70646766

             Standard Nuclear Orientation (Angstroms)
    I     Atom           X                Y                Z
 ----------------------------------------------------------------
    1      C       2.6703003497    -0.7046039991    -0.4009594816
    2      C       3.3641662963    -0.3634198219    -1.5862054482
    3      B       4.1663453020    -1.4503111781    -2.3569825348
    4      C       4.3231284435    -2.8706694595    -1.7454104938
    5      C       3.6312297676    -3.2139350035    -0.5617719003
    6      B       2.7548617778    -2.1535747496     0.1639440170
    7      C       5.0680755833    -3.8392635405    -2.4218972008
    8      C       5.1151512812    -5.1321704308    -1.9386871626
    9      C       4.4033842559    -5.4835113113    -0.7704322841
   10      C       3.6769937846    -4.5277501709    -0.0858990859
   11      C       1.8355895945     0.2353470040     0.2087339027
   12      C       1.6875404094     1.4925219523    -0.3494164156
   13      C       2.4077988861     1.8437196538    -1.5120503456
   14      C       3.2336893443     0.9185737027    -2.1244031803
   15      C       6.4942880680    -6.6415963944    -3.5784849329
   16      C       6.8721331057    -7.9878499541    -3.7958706655
   17      C       6.4973822923    -9.0045948059    -2.9499203160
   18      C       5.7065164399    -8.7242715888    -1.8101677898
   19      C       5.3656771316    -7.3899923157    -1.6132252958
   20      C       5.7370162550    -6.3435025231    -2.4765184462
   21      C       5.1944835087    -9.6464122245    -0.8665184519
   22      C       4.4011311094    -9.2042506058     0.1652927043
   23      C       4.0648758085    -7.8397717782     0.3342933837
   24      C       4.5538671005    -6.9261545721    -0.5623441954
   25      C       1.5826647548     5.2372813126    -3.0782358783
   26      C       2.2840369864     4.0135054067    -2.9684526761
   27      C       1.9918792605     3.1859513825    -1.9175454181
   28      C       1.0089910026     3.5886346532    -0.9954085583
   29      C       0.2814506992     4.7684812591    -1.0941862574
   30      C       0.6088966977     5.6122340040    -2.1828436622
   31      C       0.7860655921     2.5967445488    -0.0217338118
   32      C      -0.2046505146     2.7978796645     0.9017607297
   33      C      -0.9533704415     3.9969171202     0.8367923651
   34      C      -0.7296067010     4.9575486718    -0.1214622344
   35      C       6.4958984637    -0.4834500645    -5.2936013950
   36      C       6.0140978333    -0.6926723123    -4.0021759387
   37      C       4.7200797518    -1.1717648422    -3.8003008833
   38      C       3.9090391769    -1.4490375927    -4.9144735918
   39      C       4.3953792764    -1.2368081056    -6.1919926447
   40      C       5.6853748363    -0.7532068563    -6.3872943490
   41      C       6.8758910923    -0.4251673615    -2.7897907557
   42      C       2.5138756517    -1.9845776671    -4.6853612343
   43      O       6.0585449103    -0.5818408984    -7.6744406275
   44      C       7.3460954407    -0.0980791721    -7.9418306112
   45      C       1.7721430209    -2.8763532510     3.8221321557
   46      C       2.4972139434    -2.4823771937     2.7107354975
   47      C       1.9288457016    -2.5731506672     1.4310204089
   48      C       0.6323933651    -3.0718193481     1.2924351901
   49      C      -0.0911487044    -3.4632602448     2.4169497456
   50      C       0.4767139895    -3.3653470247     3.6795468922
   51      C       3.9056781411    -1.9506669963     2.8268063171
   52      C       0.0433470063    -3.1930391766    -0.0962611824
   53      O      -0.1505705431    -3.7207971436     4.8221897437
   54      C      -1.4579664473    -4.2194605588     4.7414362943
   55      H       5.5740871078    -3.5802605578    -3.3455873189
   56      H       3.1182418543    -4.7956564134     0.8043642140
   57      H       1.2764934989    -0.0458578918     1.0947956489
   58      H       3.7450691735     1.1618678859    -3.0497908894
   59      H       6.7971508544    -5.8814396371    -4.2876175164
   60      H       7.4686353173    -8.2233859361    -4.6676142424
   61      H       6.7980720906   -10.0231494654    -3.1637559720
   62      H       5.4178180847   -10.7020692180    -0.9625463709
   63      H       4.0102187283    -9.9237967137     0.8729058403
   64      H       3.4238627115    -7.5479248075     1.1567171549
   65      H       1.8113031732     5.8907320176    -3.9100035932
   66      H       3.0170126494     3.7464497733    -3.7196505284
   67      H       0.0827035808     6.5487709649    -2.3207521031
   68      H      -0.4372565778     2.0613985323     1.6608556230
   69      H      -1.7395479605     4.1541968029     1.5635714581
   70      H      -1.3395613268     5.8522796271    -0.1404935041
   71      H       7.5020950615    -0.1131247019    -5.4327944650
   72      H       3.7883980763    -1.4423420811    -7.0641949651
   73      H       6.3412749645     0.2641629885    -2.1275432444
   74      C       8.2658955477     0.1300365448    -3.0541651233
   75      H       6.9713745701    -1.3558752933    -2.2198053299
   76      H       2.5864978034    -2.8987227353    -4.0862356567
   77      C       1.6878640478    -2.2853234680    -5.9259109907
   78      H       1.9647989723    -1.2724374103    -4.0604453705
   79      H       7.4348289126    -0.0307026300    -9.0243156721
   80      H       8.1287990207    -0.7685309121    -7.5713509928
   81      H       7.5138120137     0.8974947564    -7.5177322293
   82      H       2.1917796780    -2.8136169750     4.8177709514
   83      H      -1.0959429334    -3.8428614887     2.2935958863
   84      H       3.9336569549    -0.9444314240     2.3944130237
   85      H       4.5579642462    -2.5565961009     2.1884069130
   86      C       4.4980047956    -1.9011255842     4.2249467993
   87      H       0.6727758231    -3.8713921898    -0.6827018113
   88      H       0.1231200338    -2.2226724826    -0.5977790200
   89      C      -1.3986179761    -3.6661672115    -0.1885833458
   90      H      -1.7703771843    -4.4409673331     5.7599635802
   91      H      -2.1564774779    -3.4915232553     4.3153054750
   92      H      -1.5176770760    -5.1408326358     4.1524570114
   93      H       2.1640389865    -3.0355416602    -6.5580527663
   94      H       1.5179195243    -1.3935975877    -6.5305110778
   95      H       0.7110335787    -2.6741680269    -5.6392307642
   96      H      -1.7179014479    -3.6930227702    -1.2300281796
   97      H      -1.5263115656    -4.6719372353     0.2138820732
   98      H      -2.0791772442    -3.0002777577     0.3435820854
   99      H       3.9213158240    -1.2543685212     4.8870800679
  100      H       5.5141557167    -1.5095189100     4.1900058556
  101      H       4.5448301394    -2.8914628335     4.6795388852
  102      H       8.8708855984    -0.5562100168    -3.6482169441
  103      H       8.7912673184     0.2951075064    -2.1141508219
  104      H       8.2267635989     1.0856670425    -3.5787197474
 ----------------------------------------------------------------

    7   -2280.7064670612      9.58E-09 Convergence criterion met
 Total energy in the final basis set = -2280.70646706
 Final energy is   -2280.70646706118
 **  OPTIMIZATION CONVERGED  **

                    Orbital Energies (a.u.)
 --------------------------------------------------------------

 Alpha MOs
 -- Occupied --
-19.521 -19.521 -10.496 -10.496 -10.487 -10.487 -10.462 -10.462
-10.462 -10.462 -10.462 -10.462 -10.460 -10.460 -10.459 -10.459
-10.459 -10.459 -10.459 -10.459 -10.458 -10.458 -10.458 -10.458
-10.457 -10.457 -10.457 -10.457 -10.450 -10.449 -10.449 -10.448
-10.447 -10.447 -10.446 -10.446 -10.444 -10.443 -10.435 -10.434
-10.431 -10.431 -10.430 -10.429 -10.429 -10.429 -10.429 -10.428
-10.425 -10.424 -10.424 -10.424 -10.420 -10.420 -10.410 -10.409
 -6.944  -6.944  -1.178  -1.178  -1.013  -1.013  -0.960  -0.956
 -0.951  -0.950  -0.931  -0.931  -0.906  -0.897  -0.886  -0.886
 -0.863  -0.861  -0.851  -0.851  -0.845  -0.844  -0.824  -0.823
 -0.817  -0.810  -0.809  -0.801  -0.798  -0.797  -0.774  -0.773
 -0.732  -0.726  -0.724  -0.723  -0.723  -0.718  -0.690  -0.690
 -0.687  -0.679  -0.677  -0.662  -0.659  -0.647  -0.644  -0.643
 -0.621  -0.621  -0.593  -0.591  -0.590  -0.587  -0.584  -0.584
 -0.581  -0.573  -0.572  -0.545  -0.545  -0.541  -0.541  -0.534
 -0.532  -0.532  -0.526  -0.521  -0.510  -0.510  -0.507  -0.503
 -0.503  -0.502  -0.500  -0.498  -0.497  -0.490  -0.488  -0.487
 -0.485  -0.482  -0.482  -0.480  -0.480  -0.478  -0.476  -0.473
 -0.472  -0.465  -0.462  -0.452  -0.447  -0.440  -0.436  -0.433
 -0.429  -0.429  -0.427  -0.426  -0.425  -0.423  -0.422  -0.416
 -0.406  -0.403  -0.402  -0.402  -0.399  -0.399  -0.397  -0.396
 -0.395  -0.392  -0.392  -0.392  -0.392  -0.390  -0.387  -0.387
 -0.375  -0.369  -0.363  -0.359  -0.355  -0.351  -0.349  -0.348
 -0.335  -0.335  -0.315  -0.309  -0.293  -0.292  -0.277  -0.272
 -0.272  -0.259  -0.253  -0.253  -0.244  -0.242

          Ground-State Mulliken Net Atomic Charges

     Atom                 Charge (a.u.)
  ----------------------------------------
      1 C                    -0.159518
      2 C                    -0.155962
      3 B                     0.700185
      4 C                    -0.155552
      5 C                    -0.157547
      6 B                     0.706251
      7 C                    -0.385592
      8 C                     0.095372
      9 C                     0.097894
     10 C                    -0.388900
     11 C                    -0.387236
     12 C                     0.096414
     13 C                     0.096066
     14 C                    -0.386087
     15 C                    -0.381259
     16 C                    -0.204423
     17 C                    -0.333905
     18 C                     0.249399
     19 C                    -0.060814
     20 C                     0.193905
     21 C                    -0.334300
     22 C                    -0.203956
     23 C                    -0.382970
     24 C                     0.194986
     25 C                    -0.204539
     26 C                    -0.378504
     27 C                     0.188723
     28 C                    -0.058452
     29 C                     0.248824
     30 C                    -0.333750
     31 C                     0.190125
     32 C                    -0.380079
     33 C                    -0.204244
     34 C                    -0.333874
     35 C                    -0.459114
     36 C                     0.089921
     37 C                    -0.233927
     38 C                     0.067858
     39 C                    -0.413695
     40 C                     0.437850
     41 C                    -0.522437
     42 C                    -0.524967
     43 O                    -0.455404
     44 C                    -0.405277
     45 C                    -0.406313
     46 C                     0.085187
     47 C                    -0.235592
     48 C                     0.071698
     49 C                    -0.468585
     50 C                     0.437248
     51 C                    -0.526847
     52 C                    -0.524402
     53 O                    -0.455538
     54 C                    -0.405833
     55 H                     0.235175
     56 H                     0.236576
     57 H                     0.234600
     58 H                     0.232865
     59 H                     0.220274
     60 H                     0.225623
     61 H                     0.219351
     62 H                     0.219502
     63 H                     0.225695
     64 H                     0.220594
     65 H                     0.225984
     66 H                     0.220364
     67 H                     0.219597
     68 H                     0.220742
     69 H                     0.225685
     70 H                     0.219544
     71 H                     0.231565
     72 H                     0.227100
     73 H                     0.242731
     74 C                    -0.668069
     75 H                     0.243220
     76 H                     0.247128
     77 C                    -0.664894
     78 H                     0.245794
     79 H                     0.238384
     80 H                     0.201795
     81 H                     0.202271
     82 H                     0.226524
     83 H                     0.231907
     84 H                     0.243675
     85 H                     0.245236
     86 C                    -0.665935
     87 H                     0.245208
     88 H                     0.245888
     89 C                    -0.666529
     90 H                     0.238590
     91 H                     0.202428
     92 H                     0.202154
     93 H                     0.219287
     94 H                     0.218839
     95 H                     0.229087
     96 H                     0.232944
     97 H                     0.214362
     98 H                     0.216365
     99 H                     0.218466
    100 H                     0.230247
    101 H                     0.219075
    102 H                     0.214775
    103 H                     0.233717
    104 H                     0.215983
  ----------------------------------------
  Sum of atomic charges =    -0.000000

                    Cartesian Multipole Moments
 -----------------------------------------------------------------
    Charge (ESU x 10^10)
                -0.0000
    Dipole Moment (Debye)
         X      -0.6568      Y      -0.2607      Z      -0.8779
       Tot       1.1270
    Quadrupole Moments (Debye-Ang)
        XX    -307.8006     XY      -4.0679     YY    -293.5449
        XZ     -28.6947     YZ      -7.4077     ZZ    -323.2336

 Total job time:  11349.09s(wall), 45159.22s(cpu)
        *  Thank you very much for using Q-Chem.  Have a nice day.  *
