 Q-Chem 5.0, Q-Chem, Inc., Pleasanton, CA (2017)
 Q-Chem 5.0.1 for Intel X86 EM64T Linux

User input:
--------------------------------------------------------------
$rem
threads 8
jobtype	opt
method PBEh-3c
basis def2-mSVP
mem_static	512
mem_total	6096
sym_ignore	true
$end

$molecule
read incoords4.mol
$end

--------------------------------------------------------------

   15   -2280.6622601411      5.03E-09 Convergence criterion met
 Total energy in the final basis set = -2280.66226014
   12   -2280.6947203275      8.65E-09 Convergence criterion met
 Total energy in the final basis set = -2280.69472033
   12   -2280.7028196668      6.95E-09 Convergence criterion met
 Total energy in the final basis set = -2280.70281967
   12   -2280.7033321091      7.97E-09 Convergence criterion met
 Total energy in the final basis set = -2280.70333211
   12   -2280.7051363521      8.28E-09 Convergence criterion met
 Total energy in the final basis set = -2280.70513635
   12   -2280.7063365252      5.73E-09 Convergence criterion met
 Total energy in the final basis set = -2280.70633653
   12   -2280.7073453420      6.13E-09 Convergence criterion met
 Total energy in the final basis set = -2280.70734534
   11   -2280.7082251236      9.45E-09 Convergence criterion met
    9   -2280.7108551712      9.35E-09 Convergence criterion met
 Total energy in the final basis set = -2280.71085517
   12   -2280.7110033812      6.23E-09 Convergence criterion met
 Total energy in the final basis set = -2280.71100338
   11   -2280.7108761969      8.80E-09 Convergence criterion met
 Total energy in the final basis set = -2280.71087620
    9   -2280.7108877003      8.85E-09 Convergence criterion met
 Total energy in the final basis set = -2280.71088770
   10   -2280.7108951666      4.89E-09 Convergence criterion met
 Total energy in the final basis set = -2280.71089517
    8   -2280.7108897629      6.93E-09 Convergence criterion met
 Total energy in the final basis set = -2280.71088976

             Standard Nuclear Orientation (Angstroms)
    I     Atom           X                Y                Z
 ----------------------------------------------------------------
    1      C       2.2090716344     0.3743973684    -1.7538450514
    2      C       2.9484207470     0.5426408204    -2.9495561547
    3      B       3.7999175744    -0.6384123499    -3.5002393460
    4      C       4.0033725686    -1.9101911509    -2.6307872749
    5      C       3.2639486429    -2.0803851585    -1.4372893882
    6      B       2.2897049450    -0.9639833118    -0.9633233857
    7      C       4.8321074446    -2.9388194793    -3.0846815187
    8      C       4.9225593345    -4.1180492747    -2.3716693708
    9      C       4.1587466319    -4.3017217262    -1.1983591532
   10      C       3.3415031899    -3.2875658327    -0.7366577475
   11      C       1.3278814394     1.3768950689    -1.3398496468
   12      C       1.1809656243     2.5254612640    -2.0948650875
   13      C       1.9413156473     2.7054550582    -3.2707253440
   14      C       2.8099560624     1.7162046701    -3.6943693773
   15      C       6.4611871570    -5.8086585823    -3.6529015104
   16      C       6.9046462347    -7.1518547983    -3.6179683530
   17      C       6.5193025937    -8.0302772974    -2.6331399120
   18      C       5.6516300957    -7.6016709135    -1.6005818182
   19      C       5.2498395031    -6.2709164743    -1.6493972055
   20      C       5.6284711833    -5.3674394830    -2.6587638913
   21      C       5.1153721492    -8.3781565726    -0.5460860284
   22      C       4.2422437247    -7.8099459216     0.3508487924
   23      C       3.8449842456    -6.4538499245     0.2694796807
   24      C       4.3564527914    -5.6786758604    -0.7378749310
   25      C       1.0864164985     5.7715422459    -5.4013910632
   26      C       1.8172260242     4.6065125406    -5.0683380870
   27      C       1.5091828510     3.9512458302    -3.9057652293
   28      C       0.4787357347     4.4663042340    -3.0974893849
   29      C      -0.2791514287     5.5871328196    -3.4149347492
   30      C       0.0674288857     6.2541367777    -4.6144596333
   31      C       0.2392499209     3.6384644821    -1.9852054750
   32      C      -0.7994369478     3.9491808375    -1.1486749764
   33      C      -1.5790734916     5.0941862494    -1.4365744225
   34      C      -1.3384940616     5.8947029634    -2.5282541238
   35      C       6.0169223737    -0.0788167611    -6.6376681442
   36      C       5.5674690168    -0.0631274606    -5.3173944117
   37      C       4.3371216674    -0.6230221692    -4.9768972748
   38      C       3.5553453626    -1.2011224145    -5.9912999909
   39      C       4.0071839262    -1.2093261040    -7.2990128846
   40      C       5.2381249520    -0.6531808369    -7.6322082747
   41      C       6.4647850662     0.5306900922    -4.2616993463
   42      C       2.2165108984    -1.8331458212    -5.6932433763
   43      O       5.5796827843    -0.7119443506    -8.9371367323
   44      C       6.8089455593    -0.1683231147    -9.3337300850
   45      C       0.9129698464    -1.2470376970     2.6420046994
   46      C       1.7673216766    -1.0007155250     1.5813726113
   47      C       1.3426991938    -1.2234192841     0.2622502070
   48      C       0.0562272716    -1.7177095657     0.0453508435
   49      C      -0.7969839252    -1.9660846037     1.1197358302
   50      C      -0.3755859643    -1.7256564169     2.4191752855
   51      C       3.1430383630    -0.4532727147     1.8585735414
   52      C      -0.4542471551    -2.0018740622    -1.3478622582
   53      O      -1.1320619280    -1.9363661167     3.5175104191
   54      C      -2.4399817418    -2.4108693822     3.3454619844
   55      H       5.3674350615    -2.8246439984    -4.0207035801
   56      H       2.7343401559    -3.4336471260     0.1495676429
   57      H       0.7299430888     1.2278703734    -0.4473897127
   58      H       3.3505770252     1.8228864163    -4.6284798806
   59      H       6.7755618149    -5.1649113407    -4.4650867061
   60      H       7.5603794998    -7.5001238777    -4.4053682111
   61      H       6.8700423694    -9.0549285931    -2.6565741497
   62      H       5.3824369037    -9.4237418949    -0.4521580478
   63      H       3.8334185027    -8.4210272467     1.1449382732
   64      H       3.1398844247    -6.0615936270     0.9915523250
   65      H       1.3291841253     6.2873239397    -6.3212756588
   66      H       2.5852047612     4.2462699515    -5.7416394094
   67      H      -0.4803079271     7.1361709307    -4.9226667767
   68      H      -1.0466935290     3.3345479078    -0.2918406072
   69      H      -2.4024172475     5.3377493483    -0.7779340914
   70      H      -1.9724717893     6.7521787238    -2.7176870486
   71      H       6.9759584947     0.3706107131    -6.8658259647
   72      H       3.3993907560    -1.6422438192    -8.0859858431
   73      H       6.9207900990     1.4492485054    -4.6417085561
   74      C       7.5644358895    -0.4330615412    -3.8226919447
   75      H       5.8772833928     0.8324566067    -3.3894578611
   76      H       1.8419782623    -1.5045612459    -4.7194640120
   77      C       2.2536604482    -3.3587817908    -5.7252973669
   78      H       1.4814652745    -1.4758060080    -6.4198297730
   79      H       6.8870744499    -0.3256627564   -10.4076362537
   80      H       7.6584015309    -0.6609166789    -8.8489517287
   81      H       6.8725896705     0.9067731609    -9.1357195973
   82      H       1.2405457451    -1.0767643618     3.6613039389
   83      H      -1.7851398717    -2.3603015347     0.9141921164
   84      H       3.8479768430    -0.8012972395     1.0974399483
   85      H       3.5113691243    -0.8525851198     2.8069885311
   86      C       3.1656301460     1.0723509449     1.9127134361
   87      H      -0.9205649098    -2.9912526972    -1.3636776676
   88      H       0.3764631628    -2.0647437686    -2.0569183216
   89      C      -1.4582194356    -0.9659594590    -1.8471039181
   90      H      -2.8725352540    -2.4998622235     4.3399332688
   91      H      -3.0586340603    -1.7237483938     2.7583719057
   92      H      -2.4669636717    -3.3952206311     2.8663434224
   93      H       2.9378716937    -3.7544750624    -4.9751405132
   94      H       2.5781833876    -3.7266564263    -6.6991826721
   95      H       1.2656054406    -3.7748426928    -5.5249355591
   96      H      -1.8324965000    -1.2322289110    -2.8361581514
   97      H      -2.3153053133    -0.8879097593    -1.1772735925
   98      H      -1.0027547344     0.0211870341    -1.9208389390
   99      H       2.4911773902     1.4465595416     2.6835782459
  100      H       2.8584130285     1.5085332028     0.9624874744
  101      H       4.1677445319     1.4401003997     2.1357575971
  102      H       7.1443900115    -1.3300421659    -3.3678115100
  103      H       8.2239180094     0.0315261992    -3.0891910878
  104      H       8.1739273333    -0.7461667183    -4.6711858869
 ----------------------------------------------------------------

    8   -2280.7108837656      5.52E-09 Convergence criterion met
 Total energy in the final basis set = -2280.71088377
 Final energy is   -2280.71088376561
 **  OPTIMIZATION CONVERGED  **

                    Orbital Energies (a.u.)
 --------------------------------------------------------------

 Alpha MOs
 -- Occupied --
-19.522 -19.522 -10.498 -10.498 -10.488 -10.488 -10.462 -10.462
-10.462 -10.462 -10.462 -10.462 -10.460 -10.460 -10.459 -10.459
-10.459 -10.459 -10.459 -10.458 -10.458 -10.458 -10.458 -10.458
-10.457 -10.457 -10.457 -10.457 -10.450 -10.449 -10.449 -10.449
-10.447 -10.447 -10.446 -10.445 -10.444 -10.443 -10.435 -10.434
-10.431 -10.431 -10.431 -10.430 -10.430 -10.429 -10.429 -10.428
-10.426 -10.426 -10.421 -10.419 -10.416 -10.416 -10.413 -10.412
 -6.945  -6.944  -1.180  -1.180  -1.013  -1.013  -0.960  -0.956
 -0.952  -0.951  -0.931  -0.930  -0.906  -0.897  -0.886  -0.885
 -0.864  -0.861  -0.851  -0.851  -0.845  -0.844  -0.822  -0.820
 -0.816  -0.811  -0.809  -0.801  -0.798  -0.798  -0.773  -0.772
 -0.732  -0.726  -0.724  -0.718  -0.711  -0.710  -0.699  -0.698
 -0.687  -0.678  -0.677  -0.662  -0.656  -0.646  -0.644  -0.644
 -0.627  -0.627  -0.592  -0.590  -0.590  -0.586  -0.583  -0.583
 -0.581  -0.573  -0.572  -0.560  -0.559  -0.541  -0.541  -0.534
 -0.533  -0.533  -0.525  -0.521  -0.510  -0.507  -0.503  -0.502
 -0.500  -0.499  -0.498  -0.491  -0.489  -0.487  -0.487  -0.483
 -0.482  -0.481  -0.479  -0.479  -0.478  -0.477  -0.476  -0.465
 -0.462  -0.459  -0.458  -0.454  -0.450  -0.447  -0.444  -0.443
 -0.438  -0.437  -0.429  -0.423  -0.422  -0.418  -0.418  -0.418
 -0.413  -0.411  -0.407  -0.405  -0.399  -0.397  -0.396  -0.392
 -0.392  -0.392  -0.390  -0.389  -0.387  -0.386  -0.383  -0.380
 -0.375  -0.366  -0.361  -0.360  -0.357  -0.353  -0.351  -0.347
 -0.337  -0.334  -0.314  -0.309  -0.293  -0.292  -0.277  -0.271
 -0.271  -0.258  -0.253  -0.253  -0.248  -0.245

          Ground-State Mulliken Net Atomic Charges

     Atom                 Charge (a.u.)
  ----------------------------------------
      1 C                    -0.142610
      2 C                    -0.153467
      3 B                     0.652678
      4 C                    -0.138785
      5 C                    -0.154439
      6 B                     0.656347
      7 C                    -0.400817
      8 C                     0.093649
      9 C                     0.100369
     10 C                    -0.386115
     11 C                    -0.405300
     12 C                     0.095863
     13 C                     0.098307
     14 C                    -0.384569
     15 C                    -0.383368
     16 C                    -0.203890
     17 C                    -0.333779
     18 C                     0.249233
     19 C                    -0.061534
     20 C                     0.193324
     21 C                    -0.334011
     22 C                    -0.204029
     23 C                    -0.382125
     24 C                     0.194796
     25 C                    -0.204122
     26 C                    -0.378452
     27 C                     0.188887
     28 C                    -0.059749
     29 C                     0.247910
     30 C                    -0.333036
     31 C                     0.188876
     32 C                    -0.381065
     33 C                    -0.204168
     34 C                    -0.333223
     35 C                    -0.422924
     36 C                     0.096895
     37 C                    -0.227776
     38 C                     0.071014
     39 C                    -0.376060
     40 C                     0.403399
     41 C                    -0.546429
     42 C                    -0.552387
     43 O                    -0.453704
     44 C                    -0.404979
     45 C                    -0.377013
     46 C                     0.095729
     47 C                    -0.228339
     48 C                     0.075044
     49 C                    -0.430149
     50 C                     0.403028
     51 C                    -0.549906
     52 C                    -0.551997
     53 O                    -0.453839
     54 C                    -0.405840
     55 H                     0.239428
     56 H                     0.232826
     57 H                     0.244577
     58 H                     0.228735
     59 H                     0.220119
     60 H                     0.225684
     61 H                     0.219376
     62 H                     0.219444
     63 H                     0.225766
     64 H                     0.220945
     65 H                     0.225741
     66 H                     0.219960
     67 H                     0.219565
     68 H                     0.221048
     69 H                     0.225801
     70 H                     0.219516
     71 H                     0.221240
     72 H                     0.219940
     73 H                     0.227146
     74 C                    -0.639962
     75 H                     0.249269
     76 H                     0.254925
     77 C                    -0.639079
     78 H                     0.235630
     79 H                     0.238799
     80 H                     0.202201
     81 H                     0.202555
     82 H                     0.219288
     83 H                     0.222248
     84 H                     0.249625
     85 H                     0.230558
     86 C                    -0.645029
     87 H                     0.231737
     88 H                     0.255465
     89 C                    -0.638581
     90 H                     0.238939
     91 H                     0.202799
     92 H                     0.202906
     93 H                     0.242102
     94 H                     0.215071
     95 H                     0.215893
     96 H                     0.218550
     97 H                     0.209831
     98 H                     0.240608
     99 H                     0.216895
    100 H                     0.241893
    101 H                     0.218207
    102 H                     0.236239
    103 H                     0.219947
    104 H                     0.212262
  ----------------------------------------
  Sum of atomic charges =    -0.000000

                    Cartesian Multipole Moments
 -----------------------------------------------------------------
    Charge (ESU x 10^10)
                -0.0000
    Dipole Moment (Debye)
         X      -0.7220      Y      -0.3314      Z      -1.1403
       Tot       1.3898
    Quadrupole Moments (Debye-Ang)
        XX    -304.7439     XY      -8.7287     YY    -299.4099
        XZ     -27.2885     YZ     -13.7973     ZZ    -315.2291

 Total job time:  23170.28s(wall), 90961.99s(cpu)
        *  Thank you very much for using Q-Chem.  Have a nice day.  *
