 Q-Chem 5.0, Q-Chem, Inc., Pleasanton, CA (2017)
 Q-Chem 5.0.1 for Intel X86 EM64T Linux

User input:
--------------------------------------------------------------
$rem
threads 8
jobtype	opt
method PBEh-3c
basis def2-mSVP
mem_static	512
mem_total	6096
sym_ignore	true
$end

$molecule
read incoords2.mol
$end

--------------------------------------------------------------

   15   -2280.6698017983      4.66E-09 Convergence criterion met
 Total energy in the final basis set = -2280.66980180
   12   -2280.7026485268      8.55E-09 Convergence criterion met
 Total energy in the final basis set = -2280.70264853
   12   -2280.7105827558      9.06E-09 Convergence criterion met
 Total energy in the final basis set = -2280.71058276
   12   -2280.7105261047      8.45E-09 Convergence criterion met
 Total energy in the final basis set = -2280.71052610
   13   -2280.7100206045      5.34E-09 Convergence criterion met
 Total energy in the final basis set = -2280.71002060
   11   -2280.7104997494      7.58E-09 Convergence criterion met
 Total energy in the final basis set = -2280.71049975
   12   -2280.7107426472      5.94E-09 Convergence criterion met
 Total energy in the final basis set = -2280.71074265
   12   -2280.7109980620      6.04E-09 Convergence criterion met
   11   -2280.7123151286      6.42E-09 Convergence criterion met
 Total energy in the final basis set = -2280.71231513
   10   -2280.7123929533      8.79E-09 Convergence criterion met
 Total energy in the final basis set = -2280.71239295
   10   -2280.7124190878      5.27E-09 Convergence criterion met
 Total energy in the final basis set = -2280.71241909
   10   -2280.7123899319      4.75E-09 Convergence criterion met
 Total energy in the final basis set = -2280.71238993
    9   -2280.7124033532      6.18E-09 Convergence criterion met
 Total energy in the final basis set = -2280.71240335
    8   -2280.7123977557      5.93E-09 Convergence criterion met
 Total energy in the final basis set = -2280.71239776

             Standard Nuclear Orientation (Angstroms)
    I     Atom           X                Y                Z
 ----------------------------------------------------------------
    1      C       2.5973762524    -1.3662334634     0.0212254787
    2      C       3.5493951161    -1.0266793448    -0.9687294784
    3      B       4.6105413121    -2.0772403095    -1.4075015082
    4      C       4.7481835510    -3.4115181597    -0.6165377289
    5      C       3.7767664782    -3.7604200514     0.3493100016
    6      B       2.6192933248    -2.7765273813     0.6826889070
    7      C       5.7432401409    -4.3317470221    -0.9613453858
    8      C       5.7763721797    -5.5735705346    -0.3584407868
    9      C       4.7841120293    -5.9336779777     0.5801602021
   10      C       3.7974458222    -5.0330011890     0.9283166614
   11      C       1.5732304700    -0.4689379277     0.3327634047
   12      C       1.4928688350     0.7436045024    -0.3243364902
   13      C       2.4546464395     1.0948101919    -1.2969309368
   14      C       3.4680450006     0.2096787053    -1.6171186539
   15      C       7.7084853369    -7.0186160619    -1.3842902289
   16      C       8.2480884198    -8.3265638204    -1.3623407485
   17      C       7.7264909506    -9.3272176617    -0.5769905380
   18      C       6.6101901466    -9.0675714881     0.2531191468
   19      C       6.1173460130    -7.7671463582     0.2276613606
   20      C       6.6359041858    -6.7384107323    -0.5799239906
   21      C       5.9115390009    -9.9851569461     1.0740387871
   22      C       4.8059372620    -9.5742419053     1.7802735336
   23      C       4.3227890295    -8.2451725300     1.7276695806
   24      C       4.9882198632    -7.3359454350     0.9479462064
   25      C       1.8117779039     4.3490636889    -3.2168975182
   26      C       2.5455922237     3.1888692907    -2.8721526180
   27      C       2.0622106288     2.3807831854    -1.8776985292
   28      C       0.8575704835     2.7446177467    -1.2465481406
   29      C       0.0991019808     3.8597391350    -1.5828389681
   30      C       0.6257325456     4.6830383484    -2.6066413896
   31      C       0.4686659330     1.7853024868    -0.2940913060
   32      C      -0.7253027110     1.9495621834     0.3565188173
   33      C      -1.5128734437     3.0824428868     0.0446253337
   34      C      -1.1263759453     4.0130146831    -0.8908723029
   35      C       7.5285216910    -1.3446087499    -3.8555054468
   36      C       6.7888473741    -1.4731214257    -2.6805718441
   37      C       5.4526040231    -1.8747119850    -2.7165872334
   38      C       4.8673581651    -2.1506228613    -3.9652481500
   39      C       5.6096599237    -2.0211040111    -5.1257017259
   40      C       6.9414337452    -1.6200971549    -5.0824804284
   41      C       7.4436874760    -1.1016372595    -1.3752399571
   42      C       3.4525249308    -2.6657426742    -4.0732552142
   43      O       7.5712480989    -1.5295233011    -6.2726289507
   44      C       8.9156125081    -1.1337398873    -6.2903361409
   45      C       0.5349942633    -3.6689858394     3.8214399949
   46      C       1.5786114119    -3.2422954370     3.0184532628
   47      C       1.4454327043    -3.2372567105     1.6200793313
   48      C       0.2429825158    -3.6820473015     1.0638198912
   49      C      -0.8034762184    -4.1072537932     1.8806582490
   50      C      -0.6636782880    -4.1004671824     3.2605651355
   51      C       2.8309794950    -2.7198845481     3.6719183930
   52      C       0.0620831259    -3.7891749247    -0.4302182418
   53      O      -1.6222556653    -4.4899219423     4.1271772068
   54      C      -2.8549076084    -4.9171829618     3.6134754592
   55      H       6.4617313576    -4.0851659591    -1.7350076191
   56      H       3.0157662412    -5.3169893705     1.6243362505
   57      H       0.8192661368    -0.7494832911     1.0602218832
   58      H       4.1781010088     0.4471683523    -2.4016001798
   59      H       8.1403022068    -6.2741701713    -2.0412239282
   60      H       9.0946031316    -8.5470064224    -1.9994576950
   61      H       8.1619283212   -10.3186711775    -0.6055281890
   62      H       6.2385179433   -11.0160140022     1.1356539333
   63      H       4.2770135774   -10.2923693166     2.3933573316
   64      H       3.4361564013    -7.9778647021     2.2890473261
   65      H       2.1938533351     4.9854347752    -4.0043227066
   66      H       3.4576114980     2.9545390990    -3.4068032131
   67      H       0.0890516970     5.5701264179    -2.9198117324
   68      H      -1.0834575647     1.2318973687     1.0843161395
   69      H      -2.4584335921     3.2116959867     0.5549332721
   70      H      -1.7689625583     4.8576728831    -1.1071255577
   71      H       8.5613670226    -1.0260307345    -3.7846632847
   72      H       5.1597292849    -2.2376198168    -6.0883055503
   73      H       7.0339580631    -1.7023995742    -0.5583145058
   74      C       7.2703044725     0.3791531255    -1.0472507994
   75      H       8.5092570174    -1.3427583731    -1.4154937756
   76      H       3.0033431669    -2.2971320016    -4.9990673670
   77      C       3.3824476347    -4.1919314610    -4.0547951573
   78      H       2.8341732641    -2.2652297107    -3.2660724009
   79      H       9.2257529718    -1.1305788626    -7.3332902953
   80      H       9.5605066856    -1.8260213781    -5.7390731473
   81      H       9.0590293509    -0.1273853732    -5.8830618951
   82      H       0.6380232375    -3.6664217637     4.9006047329
   83      H      -1.7203824695    -4.4427544247     1.4108170902
   84      H       3.7068161316    -2.9550904954     3.0607451555
   85      H       2.9868714553    -3.2314193909     4.6249183445
   86      C       2.7692993857    -1.2131508361     3.9119361877
   87      H       0.6877248014    -3.0570515836    -0.9469667952
   88      H      -0.9677894225    -3.5329560605    -0.6944081832
   89      C       0.3845315406    -5.1862892353    -0.9573472175
   90      H      -3.4774486559    -5.1714259714     4.4689080746
   91      H      -3.3601215189    -4.1344949969     3.0376681983
   92      H      -2.7581057230    -5.8048620941     2.9795144214
   93      H       2.3504867927    -4.5342577033    -4.1448758596
   94      H       3.7865363341    -4.5994075663    -3.1281537885
   95      H       3.9517888761    -4.6206426897    -4.8798945136
   96      H       1.4200236811    -5.4589313809    -0.7515344132
   97      H       0.2365050735    -5.2397373992    -2.0368050556
   98      H      -0.2537326813    -5.9396517759    -0.4943885029
   99      H       2.6727257829    -0.6651709267     2.9745666652
  100      H       3.6724683929    -0.8587464750     4.4097941135
  101      H       1.9152556360    -0.9520317595     4.5374905301
  102      H       7.7682685073     0.6357579557    -0.1117841837
  103      H       6.2163256975     0.6364577754    -0.9427534487
  104      H       7.6879706381     1.0066417046    -1.8352824530
 ----------------------------------------------------------------

    7   -2280.7123941145      7.92E-09 Convergence criterion met
 Total energy in the final basis set = -2280.71239411
 Final energy is   -2280.71239411455
 **  OPTIMIZATION CONVERGED  **

                    Orbital Energies (a.u.)
 --------------------------------------------------------------

 Alpha MOs
 -- Occupied --
-19.523 -19.523 -10.499 -10.499 -10.489 -10.489 -10.462 -10.462
-10.462 -10.462 -10.462 -10.461 -10.460 -10.460 -10.460 -10.459
-10.459 -10.459 -10.459 -10.458 -10.458 -10.458 -10.458 -10.458
-10.457 -10.457 -10.457 -10.457 -10.450 -10.449 -10.449 -10.449
-10.448 -10.448 -10.446 -10.446 -10.444 -10.443 -10.434 -10.432
-10.432 -10.431 -10.430 -10.430 -10.430 -10.429 -10.429 -10.429
-10.426 -10.426 -10.420 -10.418 -10.416 -10.415 -10.414 -10.413
 -6.945  -6.945  -1.181  -1.180  -1.013  -1.013  -0.960  -0.956
 -0.952  -0.951  -0.931  -0.930  -0.906  -0.898  -0.886  -0.885
 -0.864  -0.862  -0.851  -0.851  -0.845  -0.844  -0.821  -0.819
 -0.816  -0.811  -0.809  -0.802  -0.798  -0.798  -0.773  -0.772
 -0.732  -0.726  -0.724  -0.718  -0.709  -0.708  -0.700  -0.700
 -0.687  -0.678  -0.677  -0.662  -0.656  -0.645  -0.644  -0.643
 -0.628  -0.628  -0.592  -0.590  -0.590  -0.586  -0.582  -0.582
 -0.581  -0.573  -0.572  -0.561  -0.560  -0.542  -0.541  -0.534
 -0.534  -0.533  -0.525  -0.521  -0.510  -0.504  -0.502  -0.502
 -0.500  -0.499  -0.498  -0.492  -0.492  -0.487  -0.487  -0.482
 -0.482  -0.481  -0.480  -0.479  -0.479  -0.477  -0.475  -0.465
 -0.462  -0.458  -0.456  -0.454  -0.452  -0.449  -0.440  -0.438
 -0.434  -0.433  -0.429  -0.427  -0.426  -0.423  -0.422  -0.416
 -0.411  -0.410  -0.407  -0.405  -0.399  -0.397  -0.396  -0.393
 -0.392  -0.391  -0.391  -0.388  -0.388  -0.385  -0.380  -0.378
 -0.375  -0.368  -0.362  -0.359  -0.357  -0.353  -0.351  -0.347
 -0.336  -0.335  -0.314  -0.309  -0.293  -0.292  -0.277  -0.272
 -0.272  -0.259  -0.253  -0.253  -0.248  -0.245

          Ground-State Mulliken Net Atomic Charges

     Atom                 Charge (a.u.)
  ----------------------------------------
      1 C                    -0.154325
      2 C                    -0.151009
      3 B                     0.647531
      4 C                    -0.153197
      5 C                    -0.154014
      6 B                     0.653752
      7 C                    -0.384112
      8 C                     0.099993
      9 C                     0.092169
     10 C                    -0.387699
     11 C                    -0.387854
     12 C                     0.094027
     13 C                     0.100392
     14 C                    -0.392737
     15 C                    -0.381135
     16 C                    -0.204048
     17 C                    -0.334238
     18 C                     0.248758
     19 C                    -0.061488
     20 C                     0.194654
     21 C                    -0.333280
     22 C                    -0.204371
     23 C                    -0.381449
     24 C                     0.195018
     25 C                    -0.203542
     26 C                    -0.382025
     27 C                     0.191183
     28 C                    -0.060981
     29 C                     0.249302
     30 C                    -0.334544
     31 C                     0.191006
     32 C                    -0.378135
     33 C                    -0.204888
     34 C                    -0.333115
     35 C                    -0.424168
     36 C                     0.093174
     37 C                    -0.220141
     38 C                     0.072098
     39 C                    -0.377442
     40 C                     0.403020
     41 C                    -0.545300
     42 C                    -0.555551
     43 O                    -0.453146
     44 C                    -0.405264
     45 C                    -0.375829
     46 C                     0.094316
     47 C                    -0.228518
     48 C                     0.073538
     49 C                    -0.427387
     50 C                     0.403199
     51 C                    -0.548552
     52 C                    -0.554298
     53 O                    -0.453612
     54 C                    -0.405896
     55 H                     0.233647
     56 H                     0.236970
     57 H                     0.237076
     58 H                     0.234063
     59 H                     0.219269
     60 H                     0.225320
     61 H                     0.219441
     62 H                     0.219381
     63 H                     0.225895
     64 H                     0.221164
     65 H                     0.225865
     66 H                     0.220300
     67 H                     0.219625
     68 H                     0.220559
     69 H                     0.225725
     70 H                     0.219433
     71 H                     0.220986
     72 H                     0.219845
     73 H                     0.250966
     74 C                    -0.640791
     75 H                     0.224657
     76 H                     0.231592
     77 C                    -0.641954
     78 H                     0.258179
     79 H                     0.239055
     80 H                     0.202523
     81 H                     0.202920
     82 H                     0.219461
     83 H                     0.221813
     84 H                     0.251198
     85 H                     0.229471
     86 C                    -0.644618
     87 H                     0.259361
     88 H                     0.227264
     89 C                    -0.640029
     90 H                     0.239067
     91 H                     0.203334
     92 H                     0.203206
     93 H                     0.214368
     94 H                     0.245182
     95 H                     0.217879
     96 H                     0.243229
     97 H                     0.216502
     98 H                     0.212849
     99 H                     0.240528
    100 H                     0.218388
    101 H                     0.217780
    102 H                     0.219363
    103 H                     0.238690
    104 H                     0.214165
  ----------------------------------------
  Sum of atomic charges =    -0.000000

                    Cartesian Multipole Moments
 -----------------------------------------------------------------
    Charge (ESU x 10^10)
                -0.0000
    Dipole Moment (Debye)
         X      -0.3583      Y      -0.3363      Z      -1.1373
       Tot       1.2389
    Quadrupole Moments (Debye-Ang)
        XX    -289.2732     XY      -5.8322     YY    -298.4809
        XZ     -22.1741     YZ     -11.3626     ZZ    -332.7523

 Total job time:  15633.36s(wall), 61634.11s(cpu)
        *  Thank you very much for using Q-Chem.  Have a nice day.  *
