 Q-Chem 5.1, Q-Chem, Inc., Pleasanton, CA (2018)
 Q-Chem 5.1.1 for Intel X86 EM64T Linux

User input:
--------------------------------------------------------------
$rem
threads 8
jobtype	opt
method PBEh-3c
basis def2-mSVP
mem_static	512
mem_total	6096
sym_ignore	true
solvent_method	pcm
$end

$pcm
theory iefpcm
$end
$solvent
dielectric 20
$end

$molecule
0 1
C         -7.53453       17.34658        5.45553
C         -7.99708       15.97413        5.04603
C         -6.95533       14.94150        4.70886
O         -9.19726       15.70301        4.98832
H         -5.94697       15.34915        4.81229
H         -7.09423       14.61601        3.67478
H         -7.05838       14.09237        5.38925
H         -6.44401       17.41305        5.45303
H         -7.89338       17.55962        6.46568
H         -7.92923       18.08326        4.75121
$end

--------------------------------------------------------------

   12    -192.7410609792      1.19e-09  Convergence criterion met
 Total energy in the final basis set =     -192.7410609792
   11    -192.7424200794      7.31e-09  Convergence criterion met
 Total energy in the final basis set =     -192.7424200794
   11    -192.7424782451      9.20e-09  Convergence criterion met
 Total energy in the final basis set =     -192.7424782451
   12    -192.7424803527      3.92e-09  Convergence criterion met
 Total energy in the final basis set =     -192.7424803527
   12    -192.7424793436      8.26e-10  Convergence criterion met
 Total energy in the final basis set =     -192.7424793436
   12    -192.7424807957      3.73e-09  Convergence criterion met
 Total energy in the final basis set =     -192.7424807957
   12    -192.7424809926      8.80e-09  Convergence criterion met
 Total energy in the final basis set =     -192.7424809926
   12    -192.7425761187      7.11e-09  Convergence criterion met
   11    -192.7460235609      8.66e-09  Convergence criterion met
 Total energy in the final basis set =     -192.7460235609
   11    -192.7460338009      7.81e-09  Convergence criterion met
 Total energy in the final basis set =     -192.7460338009
   11    -192.7460377331      8.31e-09  Convergence criterion met
 Total energy in the final basis set =     -192.7460377331
   11    -192.7460398757      9.55e-09  Convergence criterion met
 Total energy in the final basis set =     -192.7460398757
   11    -192.7460463868      8.00e-09  Convergence criterion met
 Total energy in the final basis set =     -192.7460463868
   11    -192.7460475223      8.75e-09  Convergence criterion met
 Total energy in the final basis set =     -192.7460475223

             Standard Nuclear Orientation (Angstroms)
    I     Atom           X                Y                Z
 ----------------------------------------------------------------
    1      C      -7.5641858406    17.3669089351     5.2526917513
    2      C      -8.0398881481    15.9545035431     5.0446706353
    3      C      -6.9564825869    14.9189160143     4.9095516400
    4      O      -9.2148174768    15.6704838846     4.9901855163
    5      H      -6.3890100368    14.8566637697     5.8407013833
    6      H      -6.2460837533    15.2075818442     4.1328272259
    7      H      -7.3661399945    13.9380591479     4.6780128910
    8      H      -7.0046580206    17.6997574918     4.3757259717
    9      H      -6.8746136842    17.4169912389     6.0972606608
   10      H      -8.3945204582    18.0488141303     5.4233523243
 ----------------------------------------------------------------

   12    -192.7460478153      4.11e-09  Convergence criterion met
 Total energy in the final basis set =     -192.7460478153
 Final energy is   -192.746047815299
 **  OPTIMIZATION CONVERGED  **

                    Orbital Energies (a.u.)
 --------------------------------------------------------------

 Alpha MOs
 -- Occupied --
-19.488 -10.540 -10.431 -10.431  -1.157  -0.857  -0.789  -0.602
 -0.523  -0.518  -0.516  -0.451  -0.448  -0.429  -0.404  -0.309

          Ground-State Mulliken Net Atomic Charges

     Atom                 Charge (a.u.)
  ----------------------------------------
      1 C                    -0.764380
      2 C                     0.376619
      3 C                    -0.764303
      4 O                    -0.393287
      5 H                     0.260619
      6 H                     0.256040
      7 H                     0.256004
      8 H                     0.260520
      9 H                     0.256150
     10 H                     0.256017
  ----------------------------------------
  Sum of atomic charges =    -0.000000

                    Cartesian Multipole Moments
 -----------------------------------------------------------------
    Charge (ESU x 10^10)
                -0.0000
    Dipole Moment (Debye)
         X       3.6725      Y       0.8871      Z       0.1724
       Tot       3.7821
    Quadrupole Moments (Debye-Ang)
        XX     -85.8096     XY      50.5499     YY       5.0891
        XZ      16.9927     YZ       7.2224     ZZ     -22.0063

 Total job time:  83.07s(wall), 648.79s(cpu)
        *  Thank you very much for using Q-Chem.  Have a nice day.  *
