 Q-Chem 5.1, Q-Chem, Inc., Pleasanton, CA (2018)
 Q-Chem 5.1.1 for Intel X86 EM64T Linux

User input:
--------------------------------------------------------------
$rem
threads 8
jobtype	opt
method PBEh-3c
basis def2-mSVP
mem_static	512
mem_total	6096
sym_ignore	true
solvent_method  pcm
$end

$pcm
theory iefpcm
$end
$solvent
dielectric 20
$end

$molecule
read incoords.mol
$end

--------------------------------------------------------------

   14   -2166.4792250664      9.66e-09  Convergence criterion met
 Total energy in the final basis set =    -2166.4792250664
   13   -2166.4789123282      6.77e-09  Convergence criterion met
 Total energy in the final basis set =    -2166.4789123282
   13   -2166.4793943151      5.97e-09  Convergence criterion met
 Total energy in the final basis set =    -2166.4793943151
   13   -2166.4771697673      6.31e-09  Convergence criterion met
 Total energy in the final basis set =    -2166.4771697673
   13   -2166.4800782326      6.02e-09  Convergence criterion met
 Total energy in the final basis set =    -2166.4800782326
   13   -2166.4777811909      6.12e-09  Convergence criterion met
 Total energy in the final basis set =    -2166.4777811909
   13   -2166.4799251981      6.40e-09  Convergence criterion met
 Total energy in the final basis set =    -2166.4799251981
   13   -2166.4795919686      8.14e-09  Convergence criterion met
   13   -2166.4797021801      6.40e-09  Convergence criterion met
 Total energy in the final basis set =    -2166.4797021801
   13   -2166.4801479142      5.94e-09  Convergence criterion met
 Total energy in the final basis set =    -2166.4801479142
   13   -2166.4801118624      6.00e-09  Convergence criterion met
 Total energy in the final basis set =    -2166.4801118624
   13   -2166.4801458086      6.00e-09  Convergence criterion met
 Total energy in the final basis set =    -2166.4801458086
   13   -2166.4801418713      6.19e-09  Convergence criterion met
 Total energy in the final basis set =    -2166.4801418713
   13   -2166.4801454144      6.74e-09  Convergence criterion met
 Total energy in the final basis set =    -2166.4801454144

             Standard Nuclear Orientation (Angstroms)
    I     Atom           X                Y                Z
 ----------------------------------------------------------------
    1      C      -8.9550660165     4.2274213960     0.4954701687
    2      C      -9.0332228881     3.1286346418     1.3798802476
    3      B      -7.9964511550     1.9803732047     1.3032379048
    4      C      -6.8510665713     2.0366343220     0.2615223181
    5      C      -6.6605520160     3.1907886116    -0.5299162231
    6      B      -7.7074844752     4.4192074116    -0.5042914115
    7      C      -5.5969001800     3.2300559447    -1.4379727792
    8      C      -4.7802452316     2.1268226746    -1.6025435088
    9      C      -5.0020698073     0.9526426585    -0.8436613527
   10      C      -6.0079131536     0.9241862046     0.0962262489
   11      C     -10.0045011125     5.1526978905     0.4655317359
   12      C     -11.1172406324     4.9740206443     1.2660544439
   13      C     -11.1691453591     3.9022980714     2.1879460202
   14      C     -10.1325568194     2.9988057880     2.2458248433
   15      H      -9.9719657257     5.9983403300    -0.2139874343
   16      C      -8.1476246096     0.7193592881     2.2358234204
   17      C      -7.0201311155     5.8878763338    -0.3314171971
   18      C      -8.9269351387    -0.3759693074     1.8443018991
   19      C      -9.0411823667    -1.4822011831     2.6814276308
   20      C      -8.3939654540    -1.5365613985     3.9096671785
   21      C      -7.6256805473    -0.4417637030     4.2923872183
   22      C      -7.4955202080     0.6751938581     3.4745250113
   23      C      -6.6585994605     1.8435282313     3.9142940863
   24      C      -9.6362011426    -0.3703609862     0.5181922903
   25      H      -9.6514118094    -2.3226458708     2.3653573111
   26      C      -8.4952593507    -2.7519338180     4.7858164258
   27      H      -7.1150559031    -0.4594903841     5.2501513146
   28      H      -5.8531011258     2.0458260964     3.2040693177
   29      H      -6.2032428540     1.6721310897     4.8892413624
   30      H      -7.2549201000     2.7563675010     3.9837908106
   31      H     -10.2984302723     0.4926169323     0.4173442547
   32      H     -10.2435898129    -1.2651418991     0.3828158595
   33      H      -8.9275958184    -0.3304331955    -0.3127856357
   34      H      -9.3630807749    -3.3596668455     4.5301360478
   35      H      -8.5714762938    -2.4831744127     5.8397321391
   36      H      -7.6126082097    -3.3864966521     4.6800116249
   37      C      -6.1778896318     6.0690975752     0.7916146599
   38      C      -5.5405372548     7.2820901214     1.0306227268
   39      C      -5.6972467352     8.3723011132     0.1879673248
   40      C      -6.5496805491     8.2132062708    -0.8903443010
   41      C      -7.2151253969     7.0134306665    -1.1603806792
   42      C      -8.1279727148     7.0629428749    -2.3660897976
   43      C      -5.9297191368     4.9794296816     1.8009186069
   44      H      -4.9061590921     7.3750804405     1.9069068379
   45      C      -4.9720173743     9.6625401504     0.4359797864
   46      H      -6.7178602315     9.0580081367    -1.5509660813
   47      H      -7.7325754215     6.5041136359    -3.2142050920
   48      H      -8.2429214237     8.0957124345    -2.6956891229
   49      H      -9.1300817940     6.6853577463    -2.1672523596
   50      H      -6.8532786436     4.5215094459     2.1534075764
   51      H      -5.4110150987     5.3769970684     2.6734872789
   52      H      -5.3152655596     4.1751976365     1.3955734658
   53      H      -4.9822663374     9.9318908116     1.4927909345
   54      H      -5.4152290000    10.4852280313    -0.1249647287
   55      H      -3.9243948046     9.5904137468     0.1353286551
   56      C      -3.6937815597     1.8538559805    -2.5488151337
   57      C     -12.4764777519     3.9243119903     2.8494307667
   58      C     -13.1130850775     3.1417950206     3.7771801497
   59      C      -2.0836670784     1.9042397845    -4.3227865182
   60      C      -1.7346863468     0.5883400576    -4.1203694507
   61      C      -2.3714782831    -0.1655171468    -3.1039984029
   62      C     -15.1498007737     4.4780801476     3.5267425944
   63      C     -14.4568662264     3.4437663720     4.1117531974
   64      H     -14.9566786002     2.8246950659     4.8457213183
   65      H      -0.9817806076     0.1259406030    -4.7472139361
   66      C      -3.3199146459     0.5108876847    -2.3426700655
   67      H      -6.1745146613     0.0303142307     0.6881468267
   68      C      -3.0750025304     2.5571637692    -3.5499941321
   69      H      -1.5941786823     2.4616284496    -5.1109814043
   70      H      -3.3304746798     3.5866304589    -3.7687542390
   71      H      -5.4286519461     4.1165529041    -2.0414114338
   72      C      -4.0845933473    -0.0853287068    -1.3210618474
   73      C      -2.1831908752    -1.5373297161    -2.7997563602
   74      C      -2.9277250296    -2.1286287111    -1.8056361358
   75      C      -3.8931784299    -1.4156899005    -1.0512301094
   76      H      -2.7814562033    -3.1800692955    -1.5935304396
   77      H      -4.4659028207    -1.9345247192    -0.2919714549
   78      H     -10.1854807559     2.1541329776     2.9244859195
   79      H     -12.6237821233     2.2972031795     4.2469010232
   80      C     -13.1865814860     4.9943922998     2.2716767316
   81      C     -12.4094054576     5.6691810955     1.3088627648
   82      C     -12.9894060076     6.6938846528     0.6056809003
   83      C     -14.3382693494     7.0284572547     0.8814308789
   84      C     -15.0885174430     6.3612595544     1.8228285042
   85      C     -14.5155487727     5.2951051825     2.5581781843
   86      H     -14.7946659130     7.8337575163     0.3203740775
   87      H     -16.1208349530     6.6431383231     1.9919670532
   88      H     -12.4517689762     7.2402742642    -0.1595843861
   89      H     -16.1827155459     4.6608196899     3.7975667106
   90      H      -1.4635705905    -2.1230172321    -3.3589021723
   91      O      -8.2839161352     4.3534711928    -2.0077464592
   92      C      -9.0270831581     3.5679471083    -2.6051253308
   93      C      -9.6665792278     2.3900558899    -1.9702970047
   94      H     -10.3838832819     2.7152444147    -1.2142300057
   95      H      -8.9183363562     1.7848912462    -1.4587410028
   96      H     -10.1836556885     1.7812584443    -2.7072985015
   97      C      -9.2861172505     3.8064471355    -4.0456404923
   98      H      -8.9298207781     2.9416004798    -4.6110895124
   99      H      -8.8091824996     4.7093787974    -4.4156796580
  100      H     -10.3642203812     3.8532211515    -4.2136992950
 ----------------------------------------------------------------

   13   -2166.4801458628      6.78e-09  Convergence criterion met
 Total energy in the final basis set =    -2166.4801458628
 Final energy is   -2166.48014586280
 **  OPTIMIZATION CONVERGED  **

                    Orbital Energies (a.u.)
 --------------------------------------------------------------

 Alpha MOs
 -- Occupied --
-19.565 -10.591 -10.464 -10.464 -10.462 -10.462 -10.462 -10.461
-10.461 -10.461 -10.460 -10.460 -10.460 -10.460 -10.459 -10.459
-10.457 -10.457 -10.457 -10.456 -10.456 -10.456 -10.455 -10.454
-10.452 -10.450 -10.450 -10.450 -10.449 -10.449 -10.449 -10.447
-10.447 -10.445 -10.444 -10.443 -10.442 -10.442 -10.432 -10.432
-10.432 -10.432 -10.427 -10.426 -10.425 -10.425 -10.425 -10.425
-10.425 -10.424 -10.420 -10.419 -10.419 -10.415  -6.942  -6.940
 -1.228  -1.014  -1.014  -0.960  -0.956  -0.956  -0.949  -0.931
 -0.931  -0.905  -0.898  -0.896  -0.870  -0.869  -0.862  -0.861
 -0.850  -0.849  -0.844  -0.844  -0.822  -0.813  -0.809  -0.808
 -0.801  -0.780  -0.774  -0.758  -0.757  -0.755  -0.747  -0.730
 -0.725  -0.723  -0.717  -0.704  -0.685  -0.676  -0.667  -0.660
 -0.645  -0.643  -0.640  -0.637  -0.633  -0.629  -0.597  -0.590
 -0.588  -0.585  -0.580  -0.573  -0.571  -0.571  -0.560  -0.553
 -0.547  -0.541  -0.538  -0.537  -0.528  -0.523  -0.523  -0.512
 -0.503  -0.498  -0.494  -0.492  -0.491  -0.488  -0.486  -0.485
 -0.484  -0.480  -0.479  -0.478  -0.475  -0.475  -0.472  -0.470
 -0.465  -0.464  -0.463  -0.463  -0.460  -0.459  -0.457  -0.455
 -0.454  -0.451  -0.448  -0.446  -0.444  -0.442  -0.437  -0.434
 -0.431  -0.427  -0.425  -0.424  -0.420  -0.411  -0.407  -0.405
 -0.399  -0.394  -0.394  -0.394  -0.391  -0.387  -0.386  -0.382
 -0.380  -0.379  -0.377  -0.370  -0.367  -0.353  -0.349  -0.342
 -0.329  -0.323  -0.312  -0.311  -0.295  -0.294  -0.275  -0.273
 -0.268  -0.266  -0.262  -0.255  -0.254  -0.249

          Ground-State Mulliken Net Atomic Charges

     Atom                 Charge (a.u.)
  ----------------------------------------
      1 C                    -0.163249
      2 C                    -0.159120
      3 B                     0.639381
      4 C                    -0.159631
      5 C                    -0.188335
      6 B                     0.854405
      7 C                    -0.422806
      8 C                     0.082691
      9 C                     0.059885
     10 C                    -0.403424
     11 C                    -0.416972
     12 C                     0.075873
     13 C                     0.061047
     14 C                    -0.403088
     15 H                     0.235491
     16 C                    -0.224233
     17 C                    -0.178568
     18 C                     0.048196
     19 C                    -0.368777
     20 C                     0.103110
     21 C                    -0.365796
     22 C                     0.050218
     23 C                    -0.777272
     24 C                    -0.778574
     25 H                     0.226424
     26 C                    -0.721770
     27 H                     0.226196
     28 H                     0.247982
     29 H                     0.251937
     30 H                     0.245313
     31 H                     0.246481
     32 H                     0.253385
     33 H                     0.242027
     34 H                     0.237967
     35 H                     0.238078
     36 H                     0.241533
     37 C                     0.023229
     38 C                    -0.351011
     39 C                     0.103613
     40 C                    -0.350064
     41 C                     0.009414
     42 C                    -0.748291
     43 C                    -0.776401
     44 H                     0.220615
     45 C                    -0.723006
     46 H                     0.220110
     47 H                     0.237618
     48 H                     0.236795
     49 H                     0.230250
     50 H                     0.256952
     51 H                     0.242557
     52 H                     0.244964
     53 H                     0.236293
     54 H                     0.235730
     55 H                     0.238990
     56 C                     0.164241
     57 C                     0.174375
     58 C                    -0.402301
     59 C                    -0.236389
     60 C                    -0.352346
     61 C                     0.211702
     62 C                    -0.353777
     63 C                    -0.236392
     64 H                     0.258030
     65 H                     0.256472
     66 C                    -0.068822
     67 H                     0.240384
     68 C                    -0.399744
     69 H                     0.258741
     70 H                     0.252834
     71 H                     0.231084
     72 C                     0.173641
     73 C                    -0.354021
     74 C                    -0.236484
     75 C                    -0.402513
     76 H                     0.257857
     77 H                     0.251421
     78 H                     0.242094
     79 H                     0.251912
     80 C                    -0.069872
     81 C                     0.165208
     82 C                    -0.400801
     83 C                    -0.236317
     84 C                    -0.351893
     85 C                     0.212034
     86 H                     0.258848
     87 H                     0.256641
     88 H                     0.251549
     89 H                     0.255178
     90 H                     0.255036
     91 O                    -0.374016
     92 C                     0.486546
     93 C                    -0.803667
     94 H                     0.303042
     95 H                     0.306884
     96 H                     0.290506
     97 C                    -0.771859
     98 H                     0.291560
     99 H                     0.282007
    100 H                     0.287025
  ----------------------------------------
  Sum of atomic charges =    -0.000000

                    Cartesian Multipole Moments
 -----------------------------------------------------------------
    Charge (ESU x 10^10)
                -0.0000
    Dipole Moment (Debye)
         X      -5.1249      Y      -3.0581      Z      -7.9939
       Tot       9.9760
    Quadrupole Moments (Debye-Ang)
        XX    -210.8821     XY      -1.7368     YY    -321.5845
        XZ      61.6692     YZ     -39.4186     ZZ    -285.0439

 Total job time:  32494.99s(wall), 217860.34s(cpu)
        *  Thank you very much for using Q-Chem.  Have a nice day.  *
