 Q-Chem 5.0, Q-Chem, Inc., Pleasanton, CA (2017)
 Q-Chem 5.0.1 for Intel X86 EM64T Linux

User input:
--------------------------------------------------------------
$rem
threads 8
jobtype	sp
method PBEh-3c
basis def2-mSVP
mem_static	1024
mem_total	8000
sym_ignore	true
unrestricted true
scf_convergence	9
solvent_method	pcm
$end

$molecule
read incoords.mol
$end

$solvent
dielectric	8.93
$end

$pcm
theory iefpcm
$end
--------------------------------------------------------------

   17   -2927.8932570397      3.52E-10 Convergence criterion met
 Total energy in the final basis set = -2927.89325704
 Total job time:  3871.20s(wall), 16005.47s(cpu)
        *  Thank you very much for using Q-Chem.  Have a nice day.  *
 Q-Chem 5.0, Q-Chem, Inc., Pleasanton, CA (2017)
 Q-Chem 5.0.1 for Intel X86 EM64T Linux

User input:
--------------------------------------------------------------

$rem
threads 8
jobtype opt
method PBEh-3c
basis def2-mSVP
scf_guess	read
mem_static      1024
mem_total       8000
sym_ignore      true
unrestricted true
mom_start       1
scf_algorithm	diis
scf_max_cycles	250
solvent_method	pcm
geom_opt_tol_energy 25
geom_opt_tol_gradient 75
$end

$solvent
dielectric      8.93
$end
$pcm
theory iefpcm
$end

$occupied
1 2 3 4 5 6 7 8 9 10 11 12 13 14 15 16 17 18 19 20 21 22 23 24 25 26 27 28 29 30 31 32 33 34 35 36 37 38 39 40 41 42 43 44 45 46 47 48 49 50 51 52 53 54 55 56 57 58 59 60 61 62 63 64 65 66 67 68 69 70 71 72 73 74 75 76 77 78 79 80 81 82 83 84 85 86 87 88 89 90 91 92 93 94 95 96 97 98 99 100 101 102 103 104 105 106 107 108 109 110 111 112 113 114 115 116 117 118 119 120 121 122 123 124 125 126 127 128 129 130 131 132 133 134 135 136 137 138 139 140 141 142 143 144 145 146 147 148 149 150 151 152 153 154 155 156 157 158 159 160 161 162 163 164 165 166 167 168 169 170 171 172 173 174 175 176 177 178 179 180 181 182 183 184 185 186 187 188 189 190 191 192 193 194 195 196 197 198 199 200 201 202 203 204 205 206 207 208 209 210 211 212 213 214 215 216 217 218 219 220 221 222 223 224 225 226 227 228 229 230 231 232 233 234 235 236 237 238 239 240 241 242 243 244 245 246 247 248 249 250 251 252 253  255
1 2 3 4 5 6 7 8 9 10 11 12 13 14 15 16 17 18 19 20 21 22 23 24 25 26 27 28 29 30 31 32 33 34 35 36 37 38 39 40 41 42 43 44 45 46 47 48 49 50 51 52 53 54 55 56 57 58 59 60 61 62 63 64 65 66 67 68 69 70 71 72 73 74 75 76 77 78 79 80 81 82 83 84 85 86 87 88 89 90 91 92 93 94 95 96 97 98 99 100 101 102 103 104 105 106 107 108 109 110 111 112 113 114 115 116 117 118 119 120 121 122 123 124 125 126 127 128 129 130 131 132 133 134 135 136 137 138 139 140 141 142 143 144 145 146 147 148 149 150 151 152 153 154 155 156 157 158 159 160 161 162 163 164 165 166 167 168 169 170 171 172 173 174 175 176 177 178 179 180 181 182 183 184 185 186 187 188 189 190 191 192 193 194 195 196 197 198 199 200 201 202 203 204 205 206 207 208 209 210 211 212 213 214 215 216 217 218 219 220 221 222 223 224 225 226 227 228 229 230 231 232 233 234 235 236 237 238 239 240 241 242 243 244 245 246 247 248 249 250 251 252 253 254
$end

$molecule
read incoords.mol
$end

--------------------------------------------------------------

   53   -2927.8934148098      5.22E-09 Convergence criterion met
 Total energy in the final basis set = -2927.89341481
   13   -2927.8997055258      5.39E-09 Convergence criterion met
 Total energy in the final basis set = -2927.89970553
   13   -2927.9002559677      4.62E-09 Convergence criterion met
 Total energy in the final basis set = -2927.90025597
   13   -2927.9003870298      4.63E-09 Convergence criterion met
 Total energy in the final basis set = -2927.90038703
   13   -2927.9004435554      4.61E-09 Convergence criterion met
 Total energy in the final basis set = -2927.90044356
   13   -2927.9005829753      4.53E-09 Convergence criterion met
 Total energy in the final basis set = -2927.90058298
   13   -2927.9005987910      4.53E-09 Convergence criterion met
   13   -2927.9027328355      4.66E-09 Convergence criterion met
 Total energy in the final basis set = -2927.90273284
   13   -2927.9027599660      4.56E-09 Convergence criterion met
 Total energy in the final basis set = -2927.90275997
   13   -2927.9027721467      4.55E-09 Convergence criterion met
 Total energy in the final basis set = -2927.90277215
   13   -2927.9027764087      4.55E-09 Convergence criterion met
 Total energy in the final basis set = -2927.90277641
   13   -2927.9027754763      4.55E-09 Convergence criterion met
 Total energy in the final basis set = -2927.90277548
   13   -2927.9027740798      4.57E-09 Convergence criterion met
 Total energy in the final basis set = -2927.90277408

             Standard Nuclear Orientation (Angstroms)
    I     Atom           X                Y                Z
 ----------------------------------------------------------------
    1      C      -4.8413956934    -0.3534815492     4.4976054963
    2      C      -5.4565550668    -0.9338301922     3.3955280129
    3      C      -4.7514954409    -1.0815312076     2.1960997295
    4      C      -3.4317233222    -0.6213039839     2.1177575062
    5      C      -2.8376952169    -0.0204718315     3.2199223054
    6      C      -3.5323638164     0.1075655035     4.4183953998
    7      N      -2.9134534586     0.6930756958     5.5405938555
    8      C      -6.8723080712    -1.4315409372     3.4977788866
    9      C      -2.6648908469    -0.7755876645     0.8336833646
   10      C      -1.6310950443     0.2725374445     5.9235500017
   11      C      -0.7128537712     1.1816498927     6.4507458765
   12      C      -4.4260349656     2.5782450558     5.7202922552
   13      C      -3.6442090847     1.5964198628     6.3299653863
   14      C      -5.1831780250     3.4468471654     6.4891869349
   15      C      -5.1589285636     3.3665056833     7.8755493342
   16      C      -4.3720277847     2.3981015927     8.4840382416
   17      C      -3.6264100545     1.5119282593     7.7216905245
   18      C      -1.2507292746    -1.0619244919     5.7719086375
   19      C       0.0241247830    -1.4706879840     6.1283592282
   20      C       0.9336645729    -0.5671594302     6.6613086598
   21      C       0.5526993270     0.7582191720     6.8245063529
   22      C      -6.7414726705    -1.6722079682    -1.2306477220
   23      C      -6.1803048170    -0.9936432960    -0.1208328536
   24      B      -5.4156565989    -1.8009209319     0.9685157679
   25      C      -5.2973394316    -3.3498059958     0.8437619379
   26      C      -5.8728088433    -4.0197787438    -0.2631122773
   27      B      -6.6215477379    -3.2183322647    -1.3601976969
   28      C      -4.6225082387    -4.0846504207     1.8240223245
   29      C      -4.5203894945    -5.4605041776     1.7101670384
   30      C      -5.0988299597    -6.1239130016     0.6043792512
   31      C      -5.7668518093    -5.4077630472    -0.3712010859
   32      C      -7.4188426103    -0.9515222243    -2.2145936042
   33      C      -7.5453961799     0.4199171425    -2.1000867258
   34      C      -6.9913871574     1.1041357923    -0.9955887603
   35      C      -6.3133547787     0.3954072137    -0.0160736209
   36      C      -3.1801812966    -6.4575124845     3.7357595608
   37      C      -2.7121004319    -7.6878611599     4.2586999874
   38      C      -2.9388674763    -8.8929337135     3.6334105683
   39      C      -3.6652231341    -8.9346882147     2.4186944954
   40      C      -4.1116042326    -7.7103371549     1.9305753696
   41      C      -3.8866661388    -6.4716419231     2.5608898079
   42      C      -3.9875715132   -10.0748636059     1.6411290414
   43      C      -4.7031306003    -9.9342624295     0.4736791349
   44      C      -5.1427214336    -8.6744674396     0.0002209821
   45      C      -4.8427979454    -7.5576464281     0.7382014599
   46      C      -7.5075807879     4.9064435956    -0.9519540741
   47      C      -7.0314645890     3.6717984015    -0.4456002995
   48      C      -7.2906819537     2.5303154244    -1.1581282352
   49      C      -8.0188368298     2.6442908910    -2.3587400470
   50      C      -8.5012198933     3.8386207054    -2.8818254772
   51      C      -8.2194732939     5.0031087323    -2.1264242538
   52      C      -8.2006717735     1.3904675428    -2.9698442710
   53      C      -8.8922721779     1.3184193288    -4.1514586888
   54      C      -9.3953422771     2.5188024494    -4.7070038269
   55      C      -9.2135185702     3.7431489630    -4.1037645457
   56      C      -9.1940069464    -4.9255479218    -3.6819582497
   57      C      -8.6039691629    -4.3582128347    -2.5593000516
   58      C      -7.2657692111    -3.9475423548    -2.5940879986
   59      C      -6.5267311181    -4.1573657853    -3.7650607610
   60      C      -7.1208993258    -4.7496344171    -4.8712372242
   61      C      -8.4630622729    -5.1187821355    -4.8501876025
   62      N      -9.0645823962    -5.6536603610    -6.0026284820
   63      C      -9.4199043018    -4.1599256398    -1.3124364269
   64      C      -5.0821731665    -3.7462929621    -3.8279023369
   65      C      -8.7558299075    -5.1159576806    -7.2667612713
   66      C      -8.6815406128    -3.7375139317    -7.4599694555
   67      C     -11.2058416236    -6.5615111508    -6.6971608987
   68      C     -10.0559458213    -6.6444224665    -5.9110753935
   69      C     -12.1749335955    -7.5497251777    -6.6285915289
   70      C     -12.0266085882    -8.6247254060    -5.7628797961
   71      C     -10.8886991256    -8.7034011979    -4.9708123825
   72      C      -9.9047312168    -7.7299581029    -5.0475819873
   73      C      -8.5321437281    -5.9665918717    -8.3491798009
   74      C      -8.2499418226    -5.4456075071    -9.6020015336
   75      C      -8.1665120854    -4.0725108189    -9.7909409942
   76      C      -8.3789640418    -3.2244786094    -8.7121459185
   77      H      -5.3904140570    -0.2631136698     5.4277569290
   78      H      -1.8196824811     0.3444676871     3.1468745412
   79      H      -6.9292037496    -2.5104383976     3.3348465999
   80      H      -7.5149570629    -0.9632227306     2.7488137856
   81      H      -7.3036562424    -1.2241556551     4.4762684735
   82      H      -2.5736808623    -1.8273467397     0.5508260631
   83      H      -1.6573407661    -0.3688407344     0.9113728362
   84      H      -3.1646528716    -0.2668338830     0.0062641434
   85      H      -0.9891985908     2.2221843106     6.5646037974
   86      H      -4.4467573789     2.6547704092     4.6403084758
   87      H      -5.7884859636     4.1987325332     5.9990260940
   88      H      -5.7477406129     4.0490707885     8.4738853263
   89      H      -4.3498942200     2.3164247889     9.5632534369
   90      H      -3.0350789898     0.7467818484     8.2084321344
   91      H      -1.9532734291    -1.7823351906     5.3727365920
   92      H       0.3018043759    -2.5092715697     6.0000334226
   93      H       1.9261098836    -0.8916264043     6.9447197063
   94      H       1.2520157232     1.4772928177     7.2315638591
   95      H      -4.1797813298    -3.5751746938     2.6719722485
   96      H      -6.2082046920    -5.9207593658    -1.2192867865
   97      H      -7.8466076069    -1.4698789358    -3.0659063060
   98      H      -5.8843873943     0.9138949405     0.8341639526
   99      H      -2.9730902678    -5.5379654958     4.2685454478
  100      H      -2.1545772366    -7.6753231804     5.1860255074
  101      H      -2.5607999005    -9.8095341047     4.0698163821
  102      H      -3.6709135912   -11.0591680619     1.9643595223
  103      H      -4.9399983540   -10.8158361518    -0.1080939204
  104      H      -5.7006095954    -8.6183876494    -0.9266816569
  105      H      -7.3012212895     5.8068483546    -0.3884506078
  106      H      -6.4776368789     3.6521570739     0.4846503219
  107      H      -8.5629735784     5.9703000046    -2.4723154269
  108      H      -9.0596682916     0.3778233035    -4.6624935752
  109      H      -9.9423801423     2.4679730283    -5.6395609116
  110      H      -9.6172041521     4.6357235610    -4.5659267152
  111      H     -10.2413505193    -5.2030768847    -3.6482512570
  112      H      -6.5342756453    -4.9109269594    -5.7682482420
  113      H     -10.4469996922    -4.4988603505    -1.4441622593
  114      H      -9.4558801931    -3.1079993203    -1.0201231258
  115      H      -8.9974645025    -4.7118050851    -0.4697318081
  116      H      -4.6511792842    -3.9421354782    -4.8090244029
  117      H      -4.4815838188    -4.2828186062    -3.0900934501
  118      H      -4.9633026218    -2.6798088994    -3.6233962790
  119      H      -8.8634927541    -3.0664072405    -6.6303111974
  120      H     -11.3421282721    -5.7226876179    -7.3678681836
  121      H     -13.0589611523    -7.4693722013    -7.2483867908
  122      H     -12.7873069148    -9.3921849566    -5.7064731587
  123      H     -10.7547059900    -9.5399065799    -4.2967535258
  124      H      -9.0140648889    -7.8146921718    -4.4379098438
  125      H      -8.5826395443    -7.0392479744    -8.2089883278
  126      H      -8.0807282904    -6.1195087426   -10.4322379134
  127      H      -7.9385842038    -3.6678067369   -10.7682450761
  128      H      -8.3243785488    -2.1518343097    -8.8472994086
 ----------------------------------------------------------------

   13   -2927.9027741536      4.58E-09 Convergence criterion met
 Total energy in the final basis set = -2927.90277415
 Final energy is   -2927.90277415362
 **  OPTIMIZATION CONVERGED  **

                    Orbital Energies (a.u.)
 --------------------------------------------------------------

 Alpha MOs
 -- Occupied --
-14.672 -14.672 -10.494 -10.493 -10.493 -10.493 -10.488 -10.487
-10.468 -10.468 -10.467 -10.466 -10.466 -10.466 -10.466 -10.466
-10.465 -10.465 -10.464 -10.464 -10.463 -10.462 -10.462 -10.462
-10.462 -10.462 -10.459 -10.459 -10.459 -10.459 -10.458 -10.458
-10.457 -10.456 -10.456 -10.456 -10.456 -10.456 -10.450 -10.450
-10.450 -10.449 -10.449 -10.449 -10.449 -10.449 -10.449 -10.449
-10.448 -10.447 -10.447 -10.447 -10.446 -10.446 -10.446 -10.446
-10.445 -10.444 -10.444 -10.443 -10.439 -10.439 -10.438 -10.438
-10.437 -10.437 -10.437 -10.437 -10.428 -10.428 -10.427 -10.427
-10.423 -10.422  -6.954  -6.952  -1.082  -1.082  -1.019  -1.019
 -0.967  -0.963  -0.962  -0.962  -0.962  -0.961  -0.942  -0.941
 -0.934  -0.934  -0.912  -0.903  -0.875  -0.875  -0.866  -0.861
 -0.857  -0.855  -0.852  -0.852  -0.848  -0.847  -0.840  -0.839
 -0.839  -0.839  -0.825  -0.816  -0.814  -0.807  -0.802  -0.801
 -0.770  -0.769  -0.766  -0.765  -0.737  -0.731  -0.728  -0.722
 -0.710  -0.710  -0.705  -0.704  -0.690  -0.684  -0.683  -0.682
 -0.680  -0.677  -0.670  -0.668  -0.651  -0.650  -0.646  -0.646
 -0.641  -0.639  -0.607  -0.607  -0.597  -0.596  -0.591  -0.589
 -0.589  -0.588  -0.584  -0.576  -0.575  -0.563  -0.562  -0.553
 -0.553  -0.546  -0.544  -0.543  -0.542  -0.539  -0.529  -0.525
 -0.523  -0.522  -0.518  -0.512  -0.510  -0.510  -0.504  -0.500
 -0.500  -0.498  -0.497  -0.496  -0.496  -0.491  -0.489  -0.488
 -0.487  -0.485  -0.484  -0.483  -0.482  -0.482  -0.480  -0.478
 -0.473  -0.472  -0.471  -0.467  -0.467  -0.466  -0.463  -0.462
 -0.461  -0.455  -0.447  -0.443  -0.441  -0.441  -0.440  -0.440
 -0.435  -0.430  -0.429  -0.427  -0.426  -0.426  -0.424  -0.422
 -0.420  -0.414  -0.412  -0.412  -0.409  -0.407  -0.402  -0.402
 -0.398  -0.398  -0.397  -0.397  -0.397  -0.395  -0.392  -0.391
 -0.388  -0.387  -0.383  -0.372  -0.362  -0.360  -0.356  -0.355
 -0.347  -0.345  -0.323  -0.317  -0.308  -0.306  -0.302  -0.302
 -0.299  -0.298  -0.297  -0.297  -0.289  -0.286  -0.284  -0.279
 -0.278  -0.265  -0.261  -0.259  -0.224  -0.223

 Beta MOs
 -- Occupied --
-14.672 -14.672 -10.494 -10.493 -10.493 -10.493 -10.488 -10.487
-10.468 -10.468 -10.467 -10.466 -10.466 -10.466 -10.466 -10.466
-10.465 -10.465 -10.464 -10.464 -10.463 -10.462 -10.462 -10.462
-10.462 -10.462 -10.459 -10.459 -10.459 -10.459 -10.458 -10.458
-10.457 -10.456 -10.456 -10.456 -10.456 -10.456 -10.450 -10.450
-10.450 -10.449 -10.449 -10.449 -10.449 -10.449 -10.449 -10.449
-10.448 -10.447 -10.447 -10.447 -10.446 -10.446 -10.446 -10.446
-10.445 -10.444 -10.444 -10.443 -10.439 -10.439 -10.438 -10.438
-10.437 -10.437 -10.437 -10.437 -10.428 -10.428 -10.427 -10.427
-10.423 -10.422  -6.954  -6.952  -1.082  -1.082  -1.019  -1.019
 -0.967  -0.963  -0.962  -0.962  -0.962  -0.961  -0.942  -0.941
 -0.934  -0.934  -0.912  -0.903  -0.875  -0.875  -0.866  -0.861
 -0.857  -0.855  -0.852  -0.852  -0.848  -0.847  -0.840  -0.839
 -0.839  -0.839  -0.825  -0.816  -0.814  -0.807  -0.802  -0.801
 -0.770  -0.769  -0.766  -0.765  -0.737  -0.731  -0.728  -0.722
 -0.710  -0.710  -0.705  -0.704  -0.690  -0.684  -0.683  -0.682
 -0.680  -0.677  -0.670  -0.668  -0.651  -0.650  -0.646  -0.646
 -0.641  -0.639  -0.607  -0.607  -0.597  -0.596  -0.591  -0.589
 -0.589  -0.588  -0.584  -0.576  -0.575  -0.563  -0.562  -0.553
 -0.553  -0.546  -0.544  -0.543  -0.542  -0.539  -0.529  -0.525
 -0.523  -0.522  -0.518  -0.512  -0.510  -0.510  -0.504  -0.500
 -0.500  -0.498  -0.497  -0.496  -0.496  -0.491  -0.489  -0.488
 -0.487  -0.485  -0.484  -0.483  -0.482  -0.482  -0.480  -0.478
 -0.473  -0.472  -0.471  -0.467  -0.467  -0.466  -0.463  -0.462
 -0.461  -0.455  -0.447  -0.443  -0.441  -0.441  -0.440  -0.440
 -0.435  -0.430  -0.429  -0.427  -0.426  -0.426  -0.424  -0.422
 -0.420  -0.414  -0.412  -0.412  -0.409  -0.407  -0.402  -0.402
 -0.398  -0.398  -0.397  -0.397  -0.397  -0.395  -0.392  -0.391
 -0.388  -0.387  -0.383  -0.372  -0.362  -0.360  -0.356  -0.355
 -0.347  -0.345  -0.323  -0.317  -0.308  -0.306  -0.302  -0.302
 -0.299  -0.298  -0.297  -0.297  -0.289  -0.286  -0.284  -0.279
 -0.278  -0.265  -0.261  -0.259  -0.224  -0.223

          Ground-State Mulliken Net Atomic Charges

     Atom                 Charge (a.u.)    Spin (a.u.)
  --------------------------------------------------------
      1 C                    -0.372805       0.000000
      2 C                     0.048623      -0.000000
      3 C                    -0.217489       0.000000
      4 C                     0.047248      -0.000000
      5 C                    -0.370587      -0.000000
      6 C                     0.293713      -0.000000
      7 N                    -0.671173      -0.000000
      8 C                    -0.773168      -0.000000
      9 C                    -0.774127       0.000000
     10 C                     0.302208      -0.000000
     11 C                    -0.299591       0.000000
     12 C                    -0.293796       0.000000
     13 C                     0.291684      -0.000000
     14 C                    -0.240558      -0.000000
     15 C                    -0.265978       0.000000
     16 C                    -0.242095      -0.000000
     17 C                    -0.297317       0.000000
     18 C                    -0.301682       0.000000
     19 C                    -0.240099      -0.000000
     20 C                    -0.268104       0.000000
     21 C                    -0.241219      -0.000000
     22 C                    -0.155364       0.000000
     23 C                    -0.157553      -0.000000
     24 B                     0.703173      -0.000000
     25 C                    -0.155922      -0.000000
     26 C                    -0.157874       0.000000
     27 B                     0.698670      -0.000000
     28 C                    -0.393009       0.000000
     29 C                     0.089368       0.000000
     30 C                     0.072059      -0.000000
     31 C                    -0.390286      -0.000000
     32 C                    -0.386568      -0.000000
     33 C                     0.072316      -0.000000
     34 C                     0.092791       0.000000
     35 C                    -0.398491       0.000000
     36 C                    -0.394167       0.000000
     37 C                    -0.232503      -0.000000
     38 C                    -0.348564       0.000000
     39 C                     0.220514       0.000000
     40 C                    -0.066195      -0.000000
     41 C                     0.179490      -0.000000
     42 C                    -0.346612       0.000000
     43 C                    -0.233400      -0.000000
     44 C                    -0.390641       0.000000
     45 C                     0.180044      -0.000000
     46 C                    -0.231960      -0.000000
     47 C                    -0.395310       0.000000
     48 C                     0.178065      -0.000000
     49 C                    -0.065589       0.000000
     50 C                     0.222180      -0.000000
     51 C                    -0.350363       0.000000
     52 C                     0.177764       0.000000
     53 C                    -0.387640      -0.000000
     54 C                    -0.234366       0.000000
     55 C                    -0.346421      -0.000000
     56 C                    -0.386996       0.000000
     57 C                     0.049952      -0.000000
     58 C                    -0.224343       0.000000
     59 C                     0.051301      -0.000000
     60 C                    -0.383607       0.000000
     61 C                     0.320309      -0.000000
     62 N                    -0.673231      -0.000000
     63 C                    -0.772590      -0.000000
     64 C                    -0.771529       0.000000
     65 C                     0.276973       0.000000
     66 C                    -0.286720      -0.000000
     67 C                    -0.298769      -0.000000
     68 C                     0.293689      -0.000000
     69 C                    -0.240840       0.000000
     70 C                    -0.266083      -0.000000
     71 C                    -0.241738       0.000000
     72 C                    -0.293100       0.000000
     73 C                    -0.288148      -0.000000
     74 C                    -0.242227       0.000000
     75 C                    -0.262790      -0.000000
     76 C                    -0.242665       0.000000
     77 H                     0.248940       0.000000
     78 H                     0.249047      -0.000000
     79 H                     0.248973      -0.000000
     80 H                     0.248749      -0.000000
     81 H                     0.254344      -0.000000
     82 H                     0.249055       0.000000
     83 H                     0.254487       0.000000
     84 H                     0.248997       0.000000
     85 H                     0.261143       0.000000
     86 H                     0.259012       0.000000
     87 H                     0.248409      -0.000000
     88 H                     0.245914       0.000000
     89 H                     0.249031      -0.000000
     90 H                     0.260757       0.000000
     91 H                     0.259220       0.000000
     92 H                     0.247724      -0.000000
     93 H                     0.245053       0.000000
     94 H                     0.248434      -0.000000
     95 H                     0.247316       0.000000
     96 H                     0.246991      -0.000000
     97 H                     0.248307      -0.000000
     98 H                     0.245573      -0.000000
     99 H                     0.251123       0.000000
    100 H                     0.257652      -0.000000
    101 H                     0.255212       0.000000
    102 H                     0.255074       0.000000
    103 H                     0.258069      -0.000000
    104 H                     0.252014       0.000000
    105 H                     0.257658      -0.000000
    106 H                     0.251950       0.000000
    107 H                     0.255128      -0.000000
    108 H                     0.251472       0.000000
    109 H                     0.257907       0.000000
    110 H                     0.254826      -0.000000
    111 H                     0.250439       0.000000
    112 H                     0.249901      -0.000000
    113 H                     0.253727      -0.000000
    114 H                     0.248904      -0.000000
    115 H                     0.247797      -0.000000
    116 H                     0.253592       0.000000
    117 H                     0.247712      -0.000000
    118 H                     0.248396       0.000000
    119 H                     0.258086      -0.000000
    120 H                     0.260812      -0.000000
    121 H                     0.248999       0.000000
    122 H                     0.245905      -0.000000
    123 H                     0.248629       0.000000
    124 H                     0.259410       0.000000
    125 H                     0.260388      -0.000000
    126 H                     0.249650      -0.000000
    127 H                     0.246936       0.000000
    128 H                     0.248983       0.000000
  --------------------------------------------------------
  Sum of atomic charges =    -0.000000

                    Cartesian Multipole Moments
 -----------------------------------------------------------------
    Charge (ESU x 10^10)
                -0.0000
    Dipole Moment (Debye)
         X      -0.4154      Y      -0.1499      Z      -0.4694
       Tot       0.6446
    Quadrupole Moments (Debye-Ang)
        XX    -414.1330     XY     -15.2354     YY    -361.9062
        XZ      24.9751     YZ     -10.4614     ZZ    -394.5517

 Total job time:  123166.71s(wall), 509335.04s(cpu)
        *  Thank you very much for using Q-Chem.  Have a nice day.  *
