 Q-Chem 5.1, Q-Chem, Inc., Pleasanton, CA (2018)
 Q-Chem 5.1.1 for Intel X86 EM64T Linux

User input:
--------------------------------------------------------------
$rem
threads 8
jobtype	sp
method PBEh-3c
basis def2-mSVP
mem_static	1024
mem_total	8000
sym_ignore	true
unrestricted true
scf_convergence	9
solvent_method	pcm
$end

$molecule
read moms1opt_eth.mol
$end

$solvent
dielectric	8.93
$end

$pcm
theory iefpcm
$end
--------------------------------------------------------------

   16   -2927.8958428831      5.21e-10  Convergence criterion met
 Total energy in the final basis set =    -2927.8958428831
 Total job time:  2968.92s(wall), 22563.01s(cpu)
        *  Thank you very much for using Q-Chem.  Have a nice day.  *
 Q-Chem 5.1, Q-Chem, Inc., Pleasanton, CA (2018)
 Q-Chem 5.1.1 for Intel X86 EM64T Linux

User input:
--------------------------------------------------------------

$rem
threads 8
jobtype opt
method PBEh-3c
basis def2-mSVP
scf_guess	read
mem_static      1024
mem_total       8000
sym_ignore      true
unrestricted true
mom_start       1
scf_algorithm	diis
scf_max_cycles	250
solvent_method	pcm
geom_opt_tol_energy 25
geom_opt_tol_gradient 75
$end

$solvent
dielectric      8.93
$end
$pcm
theory iefpcm
$end

$occupied
1 2 3 4 5 6 7 8 9 10 11 12 13 14 15 16 17 18 19 20 21 22 23 24 25 26 27 28 29 30 31 32 33 34 35 36 37 38 39 40 41 42 43 44 45 46 47 48 49 50 51 52 53 54 55 56 57 58 59 60 61 62 63 64 65 66 67 68 69 70 71 72 73 74 75 76 77 78 79 80 81 82 83 84 85 86 87 88 89 90 91 92 93 94 95 96 97 98 99 100 101 102 103 104 105 106 107 108 109 110 111 112 113 114 115 116 117 118 119 120 121 122 123 124 125 126 127 128 129 130 131 132 133 134 135 136 137 138 139 140 141 142 143 144 145 146 147 148 149 150 151 152 153 154 155 156 157 158 159 160 161 162 163 164 165 166 167 168 169 170 171 172 173 174 175 176 177 178 179 180 181 182 183 184 185 186 187 188 189 190 191 192 193 194 195 196 197 198 199 200 201 202 203 204 205 206 207 208 209 210 211 212 213 214 215 216 217 218 219 220 221 222 223 224 225 226 227 228 229 230 231 232 233 234 235 236 237 238 239 240 241 242 243 244 245 246 247 248 249 250 251 252 253  255
1 2 3 4 5 6 7 8 9 10 11 12 13 14 15 16 17 18 19 20 21 22 23 24 25 26 27 28 29 30 31 32 33 34 35 36 37 38 39 40 41 42 43 44 45 46 47 48 49 50 51 52 53 54 55 56 57 58 59 60 61 62 63 64 65 66 67 68 69 70 71 72 73 74 75 76 77 78 79 80 81 82 83 84 85 86 87 88 89 90 91 92 93 94 95 96 97 98 99 100 101 102 103 104 105 106 107 108 109 110 111 112 113 114 115 116 117 118 119 120 121 122 123 124 125 126 127 128 129 130 131 132 133 134 135 136 137 138 139 140 141 142 143 144 145 146 147 148 149 150 151 152 153 154 155 156 157 158 159 160 161 162 163 164 165 166 167 168 169 170 171 172 173 174 175 176 177 178 179 180 181 182 183 184 185 186 187 188 189 190 191 192 193 194 195 196 197 198 199 200 201 202 203 204 205 206 207 208 209 210 211 212 213 214 215 216 217 218 219 220 221 222 223 224 225 226 227 228 229 230 231 232 233 234 235 236 237 238 239 240 241 242 243 244 245 246 247 248 249 250 251 252 253 254
$end

$molecule
read moms1opt_eth.mol
$end

--------------------------------------------------------------

   27   -2927.8959837147      9.59E-09 Convergence criterion met
 Total energy in the final basis set = -2927.89598371
   13   -2927.9018728601      5.45E-09 Convergence criterion met
 Total energy in the final basis set = -2927.90187286
   13   -2927.9024281202      4.72E-09 Convergence criterion met
 Total energy in the final basis set = -2927.90242812
   13   -2927.9025804283      4.67E-09 Convergence criterion met
 Total energy in the final basis set = -2927.90258043
   13   -2927.9026759099      4.65E-09 Convergence criterion met
 Total energy in the final basis set = -2927.90267591
   13   -2927.9027698371      4.59E-09 Convergence criterion met
 Total energy in the final basis set = -2927.90276984
   13   -2927.9027567732      4.53E-09 Convergence criterion met
   13   -2927.9027631257      4.53E-09 Convergence criterion met
 Total energy in the final basis set = -2927.90276313
   13   -2927.9027661217      4.57E-09 Convergence criterion met
 Total energy in the final basis set = -2927.90276612
   13   -2927.9027694498      4.57E-09 Convergence criterion met
 Total energy in the final basis set = -2927.90276945
   13   -2927.9027724630      4.58E-09 Convergence criterion met
 Total energy in the final basis set = -2927.90277246
   13   -2927.9027754631      4.56E-09 Convergence criterion met
 Total energy in the final basis set = -2927.90277546
   13   -2927.9027768335      4.56E-09 Convergence criterion met
 Total energy in the final basis set = -2927.90277683

             Standard Nuclear Orientation (Angstroms)
    I     Atom           X                Y                Z
 ----------------------------------------------------------------
    1      C      -4.8440842176    -0.3496801773     4.4975180945
    2      C      -5.4591947122    -0.9310202492     3.3959533690
    3      C      -4.7538504351    -1.0804049182     2.1968736404
    4      C      -3.4338412818    -0.6209224662     2.1184184171
    5      C      -2.8398729322    -0.0189887932     3.2200421879
    6      C      -3.5348561198     0.1108181325     4.4181170309
    7      N      -2.9162859901     0.6975732920     5.5398533878
    8      C      -6.8753226040    -1.4276660565     3.4983029039
    9      C      -2.6665787925    -0.7771042056     0.8348215362
   10      C      -1.6333087814     0.2788083517     5.9225776800
   11      C      -0.7151438399     1.1894211872     6.4472686640
   12      C      -4.4286931620     2.5834711568     5.7149077747
   13      C      -3.6464847903     1.6033812194     6.3268639860
   14      C      -5.1853828187     3.4542283706     6.4818403757
   15      C      -5.1602851171     3.3778334636     7.8683882032
   16      C      -4.3729541774     2.4111790881     8.4791396567
   17      C      -3.6278273681     1.5228695747     7.7188441581
   18      C      -1.2522615933    -1.0557232914     5.7730961179
   19      C       0.0231262033    -1.4630819121     6.1291631194
   20      C       0.9326216374    -0.5580252370     6.6596343162
   21      C       0.5510104090     0.7674114417     6.8206803532
   22      C      -6.7407562070    -1.6725016584    -1.2313748654
   23      C      -6.1799585926    -0.9933793956    -0.1216895180
   24      B      -5.4180202120    -1.8004783900     0.9696831731
   25      C      -5.3018817294    -3.3497235548     0.8470299039
   26      C      -5.8768277341    -4.0201683733    -0.2598698615
   27      B      -6.6229362265    -3.2189098502    -1.3589166596
   28      C      -4.6293462786    -4.0844024836     1.8289637258
   29      C      -4.5290415037    -5.4605468499     1.7168351352
   30      C      -5.1069457566    -6.1243913799     0.6110412476
   31      C      -5.7726331790    -5.4083892308    -0.3662482072
   32      C      -7.4155592078    -0.9520283502    -2.2171969122
   33      C      -7.5398041656     0.4198079788    -2.1048364178
   34      C      -6.9861049162     1.1046131170    -1.0005558607
   35      C      -6.3107634832     0.3960224665    -0.0190517227
   36      C      -3.1926568567    -6.4571460289     3.7451571679
   37      C      -2.7267609009    -7.6875401158     4.2699564509
   38      C      -2.9542803249    -8.8929759701     3.6456473622
   39      C      -3.6792151407    -8.9350760643     2.4300885014
   40      C      -4.1234726199    -7.7106812570     1.9401632519
   41      C      -3.8977256660    -6.4715980649     2.5694469007
   42      C      -4.0019968901   -10.0756535912     1.6532814340
   43      C      -4.7159040295    -9.9353578458     0.4847852891
   44      C      -5.1533133603    -8.6754996057     0.0094711959
   45      C      -4.8529470746    -7.5582999470     0.7466929049
   46      C      -7.4934405136     4.9082005958    -0.9644337511
   47      C      -7.0212203327     3.6733076205    -0.4550268426
   48      C      -7.2820408556     2.5311637476    -1.1659047572
   49      C      -8.0079189544     2.6447715918    -2.3679440202
   50      C      -8.4863839433     3.8393334729    -2.8940772602
   51      C      -8.2030685065     5.0044988677    -2.1403006689
   52      C      -8.1915016140     1.3903389250    -2.9772726930
   53      C      -8.8809435750     1.3178845657    -4.1601183659
   54      C      -9.3801057544     2.5184851097    -4.7187112658
   55      C      -9.1965437179     3.7434379171    -4.1172303661
   56      C      -9.1933752080    -4.9282569045    -3.6813308512
   57      C      -8.6045067698    -4.3592909436    -2.5589154108
   58      C      -7.2661756301    -3.9489519283    -2.5928352073
   59      C      -6.5259562644    -4.1604814268    -3.7627443971
   60      C      -7.1189901187    -4.7542885855    -4.8687106366
   61      C      -8.4611727285    -5.1233915626    -4.8484777325
   62      N      -9.0614198965    -5.6601781329    -6.0006844515
   63      C      -9.4217685103    -4.1589585010    -1.3132480747
   64      C      -5.0812788312    -3.7496770215    -3.8245892591
   65      C      -8.7508581942    -5.1249254448    -7.2654464775
   66      C      -8.6770846218    -3.7468947354    -7.4615296997
   67      C     -11.2022716674    -6.5678391733    -6.6965604038
   68      C     -10.0534981246    -6.6501711127    -5.9087749053
   69      C     -12.1720348329    -7.5553737112    -6.6277580116
   70      C     -12.0255072992    -8.6291119865    -5.7601729923
   71      C     -10.8887180834    -8.7072015507    -4.9664354971
   72      C      -9.9040708548    -7.7344600921    -5.0434013132
   73      C      -8.5250768911    -5.9777939465    -8.3456562454
   74      C      -8.2412034058    -5.4594106546    -9.5991757033
   75      C      -8.1582691330    -4.0866735337    -9.7909776452
   76      C      -8.3729004102    -3.2364042755    -8.7143718929
   77      H      -5.3932865373    -0.2579912614     5.4274297303
   78      H      -1.8216811615     0.3454029722     3.1468076039
   79      H      -6.9331017366    -2.5065511333     3.3356413048
   80      H      -7.5175758796    -0.9590164893     2.7492012546
   81      H      -7.3065285784    -1.2196830396     4.4767263500
   82      H      -2.5775315258    -1.8290997615     0.5521619034
   83      H      -1.6581664784    -0.3726109705     0.9131049034
   84      H      -3.1646594528    -0.2673471679     0.0070113028
   85      H      -0.9919358508     2.2300170186     6.5594470922
   86      H      -4.4502055236     2.6569208597     4.6347279701
   87      H      -5.7910268335     4.2046855006     5.9899080490
   88      H      -5.7487663282     4.0620621077     8.4651466197
   89      H      -4.3501566179     2.3325592751     9.5585674500
   90      H      -3.0362224813     0.7590803789     8.2073808566
   91      H      -1.9547570890    -1.7772523594     5.3758530451
   92      H       0.3012935499    -2.5017412371     6.0025227119
   93      H       1.9254985684    -0.8813889399     6.9427898199
   94      H       1.2502457217     1.4876793169     7.2257619725
   95      H      -4.1869141977    -3.5745949343     2.6768760567
   96      H      -6.2135077710    -5.9217135247    -1.2143867427
   97      H      -7.8429579264    -1.4708406064    -3.0684250473
   98      H      -5.8819979390     0.9149431039     0.8310241756
   99      H      -2.9850363651    -5.5373096981     4.2772357873
  100      H      -2.1703367639    -7.6747192164     5.1979369709
  101      H      -2.5778717534    -9.8095990063     4.0834377304
  102      H      -3.6869550960   -11.0600146664     1.9779133064
  103      H      -4.9531340960   -10.8172253237    -0.0963944916
  104      H      -5.7099332842    -8.6196782744    -0.9182099822
  105      H      -7.2857809925     5.8091132673    -0.4022222041
  106      H      -6.4689252677     3.6540316764     0.4761418017
  107      H      -8.5435239795     5.9719127643    -2.4885679223
  108      H      -9.0494628046     0.3768184355    -4.6699156906
  109      H      -9.9254052054     2.4673378398    -5.6522676912
  110      H      -9.5971558815     4.6361770743    -4.5817425396
  111      H     -10.2407964313    -5.2055983917    -3.6483910671
  112      H      -6.5314594214    -4.9169704419    -5.7648792277
  113      H     -10.4490744904    -4.4968875489    -1.4459264631
  114      H      -9.4569505086    -3.1067250544    -1.0219545412
  115      H      -9.0009870165    -4.7105297105    -0.4695052926
  116      H      -4.9626066422    -2.6827970596    -3.6220706699
  117      H      -4.6490194970    -3.9475696975    -4.8047437344
  118      H      -4.4816670174    -4.2847683136    -3.0849312201
  119      H      -8.8608123844    -3.0740555104    -6.6336563558
  120      H     -11.3371253012    -5.7300065650    -7.3687990708
  121      H     -13.0551612467    -7.4754823296    -7.2489001407
  122      H     -12.7867197064    -9.3960459636    -5.7035947871
  123      H     -10.7561239811    -9.5427368430    -4.2908942322
  124      H      -9.0142556637    -7.8187883010    -4.4324310857
  125      H      -8.5753930398    -7.0501606845    -8.2031887666
  126      H      -8.0703807665    -6.1350435267   -10.4276755433
  127      H      -7.9290432747    -3.6839523857   -10.7687948473
  128      H      -8.3187652697    -2.1640233694    -8.8517862051
 ----------------------------------------------------------------

   13   -2927.9027785831      4.57E-09 Convergence criterion met
 Total energy in the final basis set = -2927.90277858
 Final energy is   -2927.90277858305
 **  OPTIMIZATION CONVERGED  **

                    Orbital Energies (a.u.)
 --------------------------------------------------------------

 Alpha MOs
 -- Occupied --
-14.672 -14.672 -10.494 -10.493 -10.493 -10.493 -10.488 -10.487
-10.468 -10.468 -10.467 -10.466 -10.466 -10.466 -10.466 -10.466
-10.465 -10.465 -10.464 -10.464 -10.463 -10.462 -10.462 -10.462
-10.462 -10.462 -10.459 -10.459 -10.459 -10.459 -10.458 -10.458
-10.457 -10.456 -10.456 -10.456 -10.456 -10.456 -10.450 -10.450
-10.450 -10.449 -10.449 -10.449 -10.449 -10.449 -10.449 -10.449
-10.448 -10.447 -10.447 -10.447 -10.446 -10.446 -10.446 -10.446
-10.445 -10.444 -10.444 -10.443 -10.439 -10.439 -10.438 -10.438
-10.437 -10.437 -10.437 -10.437 -10.428 -10.428 -10.427 -10.427
-10.423 -10.422  -6.954  -6.952  -1.082  -1.082  -1.019  -1.019
 -0.967  -0.963  -0.962  -0.962  -0.962  -0.961  -0.942  -0.941
 -0.934  -0.934  -0.912  -0.903  -0.875  -0.875  -0.866  -0.861
 -0.857  -0.855  -0.852  -0.852  -0.848  -0.847  -0.840  -0.839
 -0.839  -0.839  -0.825  -0.816  -0.814  -0.807  -0.802  -0.801
 -0.770  -0.769  -0.766  -0.765  -0.737  -0.731  -0.728  -0.722
 -0.710  -0.710  -0.705  -0.704  -0.690  -0.684  -0.683  -0.682
 -0.680  -0.677  -0.670  -0.668  -0.651  -0.650  -0.646  -0.646
 -0.641  -0.639  -0.607  -0.607  -0.597  -0.596  -0.591  -0.589
 -0.589  -0.588  -0.584  -0.576  -0.575  -0.563  -0.562  -0.553
 -0.553  -0.546  -0.544  -0.543  -0.542  -0.539  -0.529  -0.525
 -0.523  -0.522  -0.518  -0.512  -0.510  -0.510  -0.504  -0.500
 -0.500  -0.498  -0.497  -0.496  -0.496  -0.491  -0.489  -0.488
 -0.487  -0.485  -0.484  -0.483  -0.482  -0.482  -0.480  -0.478
 -0.473  -0.472  -0.471  -0.467  -0.467  -0.466  -0.463  -0.462
 -0.461  -0.455  -0.447  -0.443  -0.441  -0.441  -0.440  -0.440
 -0.435  -0.430  -0.429  -0.427  -0.426  -0.426  -0.424  -0.422
 -0.420  -0.414  -0.412  -0.412  -0.409  -0.407  -0.402  -0.402
 -0.398  -0.398  -0.397  -0.397  -0.397  -0.395  -0.392  -0.391
 -0.388  -0.387  -0.383  -0.372  -0.362  -0.360  -0.356  -0.355
 -0.347  -0.345  -0.323  -0.317  -0.308  -0.306  -0.302  -0.302
 -0.299  -0.298  -0.297  -0.297  -0.289  -0.286  -0.284  -0.279
 -0.278  -0.265  -0.261  -0.259  -0.224  -0.223

 Beta MOs
 -- Occupied --
-14.672 -14.672 -10.494 -10.493 -10.493 -10.493 -10.488 -10.487
-10.468 -10.468 -10.467 -10.466 -10.466 -10.466 -10.466 -10.466
-10.465 -10.465 -10.464 -10.464 -10.463 -10.462 -10.462 -10.462
-10.462 -10.462 -10.459 -10.459 -10.459 -10.459 -10.458 -10.458
-10.457 -10.456 -10.456 -10.456 -10.456 -10.456 -10.450 -10.450
-10.450 -10.449 -10.449 -10.449 -10.449 -10.449 -10.449 -10.449
-10.448 -10.447 -10.447 -10.447 -10.446 -10.446 -10.446 -10.446
-10.445 -10.444 -10.444 -10.443 -10.439 -10.439 -10.438 -10.438
-10.437 -10.437 -10.437 -10.437 -10.428 -10.428 -10.427 -10.427
-10.423 -10.422  -6.954  -6.952  -1.082  -1.082  -1.019  -1.019
 -0.967  -0.963  -0.962  -0.962  -0.962  -0.961  -0.942  -0.941
 -0.934  -0.934  -0.912  -0.903  -0.875  -0.875  -0.866  -0.861
 -0.857  -0.855  -0.852  -0.852  -0.848  -0.847  -0.840  -0.839
 -0.839  -0.839  -0.825  -0.816  -0.814  -0.807  -0.802  -0.801
 -0.770  -0.769  -0.766  -0.765  -0.737  -0.731  -0.728  -0.722
 -0.710  -0.710  -0.705  -0.704  -0.690  -0.684  -0.683  -0.682
 -0.680  -0.677  -0.670  -0.668  -0.651  -0.650  -0.646  -0.646
 -0.641  -0.639  -0.607  -0.607  -0.597  -0.596  -0.591  -0.589
 -0.589  -0.588  -0.584  -0.576  -0.575  -0.563  -0.562  -0.553
 -0.553  -0.546  -0.544  -0.543  -0.542  -0.539  -0.529  -0.525
 -0.523  -0.522  -0.518  -0.512  -0.510  -0.510  -0.504  -0.500
 -0.500  -0.498  -0.497  -0.496  -0.496  -0.491  -0.489  -0.488
 -0.487  -0.485  -0.484  -0.483  -0.482  -0.482  -0.480  -0.478
 -0.473  -0.472  -0.471  -0.467  -0.467  -0.466  -0.463  -0.462
 -0.461  -0.455  -0.447  -0.443  -0.441  -0.441  -0.440  -0.440
 -0.435  -0.430  -0.429  -0.427  -0.426  -0.426  -0.424  -0.422
 -0.420  -0.414  -0.412  -0.412  -0.409  -0.407  -0.402  -0.402
 -0.398  -0.398  -0.397  -0.397  -0.397  -0.395  -0.392  -0.391
 -0.388  -0.387  -0.383  -0.372  -0.362  -0.360  -0.356  -0.355
 -0.347  -0.345  -0.323  -0.317  -0.308  -0.306  -0.302  -0.302
 -0.299  -0.298  -0.297  -0.297  -0.289  -0.286  -0.284  -0.279
 -0.278  -0.265  -0.261  -0.259  -0.224  -0.223

          Ground-State Mulliken Net Atomic Charges

     Atom                 Charge (a.u.)    Spin (a.u.)
  --------------------------------------------------------
      1 C                    -0.372750      -0.000000
      2 C                     0.048653       0.000000
      3 C                    -0.217455      -0.000000
      4 C                     0.047198      -0.000000
      5 C                    -0.370684       0.000000
      6 C                     0.293729      -0.000000
      7 N                    -0.671240       0.000000
      8 C                    -0.773139      -0.000000
      9 C                    -0.774132      -0.000000
     10 C                     0.302228      -0.000000
     11 C                    -0.299692       0.000000
     12 C                    -0.293931       0.000000
     13 C                     0.291831      -0.000000
     14 C                    -0.240536      -0.000000
     15 C                    -0.266006       0.000000
     16 C                    -0.242083      -0.000000
     17 C                    -0.297323       0.000000
     18 C                    -0.301624       0.000000
     19 C                    -0.240089      -0.000000
     20 C                    -0.268110       0.000000
     21 C                    -0.241210      -0.000000
     22 C                    -0.155356      -0.000000
     23 C                    -0.157545      -0.000000
     24 B                     0.703145       0.000000
     25 C                    -0.155935      -0.000000
     26 C                    -0.157860       0.000000
     27 B                     0.698690      -0.000000
     28 C                    -0.393035       0.000000
     29 C                     0.089380      -0.000000
     30 C                     0.072052       0.000000
     31 C                    -0.390261      -0.000000
     32 C                    -0.386585      -0.000000
     33 C                     0.072304      -0.000000
     34 C                     0.092795       0.000000
     35 C                    -0.398492       0.000000
     36 C                    -0.394183       0.000000
     37 C                    -0.232501      -0.000000
     38 C                    -0.348567       0.000000
     39 C                     0.220505       0.000000
     40 C                    -0.066205      -0.000000
     41 C                     0.179507       0.000000
     42 C                    -0.346610      -0.000000
     43 C                    -0.233399      -0.000000
     44 C                    -0.390642      -0.000000
     45 C                     0.180049       0.000000
     46 C                    -0.231951      -0.000000
     47 C                    -0.395330      -0.000000
     48 C                     0.178079      -0.000000
     49 C                    -0.065600       0.000000
     50 C                     0.222179      -0.000000
     51 C                    -0.350364       0.000000
     52 C                     0.177775      -0.000000
     53 C                    -0.387635       0.000000
     54 C                    -0.234370      -0.000000
     55 C                    -0.346420       0.000000
     56 C                    -0.387079       0.000000
     57 C                     0.049990       0.000000
     58 C                    -0.224365      -0.000000
     59 C                     0.051293       0.000000
     60 C                    -0.383666      -0.000000
     61 C                     0.320439      -0.000000
     62 N                    -0.673232      -0.000000
     63 C                    -0.772605       0.000000
     64 C                    -0.771540       0.000000
     65 C                     0.276818       0.000000
     66 C                    -0.286618      -0.000000
     67 C                    -0.298762       0.000000
     68 C                     0.293684      -0.000000
     69 C                    -0.240846       0.000000
     70 C                    -0.266076       0.000000
     71 C                    -0.241750      -0.000000
     72 C                    -0.293055       0.000000
     73 C                    -0.288052      -0.000000
     74 C                    -0.242244       0.000000
     75 C                    -0.262751      -0.000000
     76 C                    -0.242682       0.000000
     77 H                     0.248963       0.000000
     78 H                     0.249068       0.000000
     79 H                     0.248979      -0.000000
     80 H                     0.248733      -0.000000
     81 H                     0.254338       0.000000
     82 H                     0.249064       0.000000
     83 H                     0.254490      -0.000000
     84 H                     0.249001       0.000000
     85 H                     0.261146       0.000000
     86 H                     0.259029       0.000000
     87 H                     0.248406      -0.000000
     88 H                     0.245906       0.000000
     89 H                     0.249026       0.000000
     90 H                     0.260773      -0.000000
     91 H                     0.259238       0.000000
     92 H                     0.247731      -0.000000
     93 H                     0.245054      -0.000000
     94 H                     0.248434       0.000000
     95 H                     0.247317       0.000000
     96 H                     0.246998       0.000000
     97 H                     0.248299      -0.000000
     98 H                     0.245568      -0.000000
     99 H                     0.251132      -0.000000
    100 H                     0.257653       0.000000
    101 H                     0.255211       0.000000
    102 H                     0.255072      -0.000000
    103 H                     0.258067      -0.000000
    104 H                     0.252010       0.000000
    105 H                     0.257659       0.000000
    106 H                     0.251946      -0.000000
    107 H                     0.255129      -0.000000
    108 H                     0.251472      -0.000000
    109 H                     0.257908      -0.000000
    110 H                     0.254829       0.000000
    111 H                     0.250440      -0.000000
    112 H                     0.249899       0.000000
    113 H                     0.253727       0.000000
    114 H                     0.248896       0.000000
    115 H                     0.247800       0.000000
    116 H                     0.248392      -0.000000
    117 H                     0.253591      -0.000000
    118 H                     0.247706      -0.000000
    119 H                     0.258065      -0.000000
    120 H                     0.260802      -0.000000
    121 H                     0.248996       0.000000
    122 H                     0.245905      -0.000000
    123 H                     0.248626      -0.000000
    124 H                     0.259398      -0.000000
    125 H                     0.260369      -0.000000
    126 H                     0.249656      -0.000000
    127 H                     0.246948       0.000000
    128 H                     0.248990       0.000000
  --------------------------------------------------------
  Sum of atomic charges =    -0.000000

                    Cartesian Multipole Moments
 -----------------------------------------------------------------
    Charge (ESU x 10^10)
                -0.0000
    Dipole Moment (Debye)
         X      -0.4107      Y      -0.1473      Z      -0.4783
       Tot       0.6474
    Quadrupole Moments (Debye-Ang)
        XX    -414.2984     XY     -15.1037     YY    -361.8890
        XZ      25.0043     YZ     -10.5382     ZZ    -394.4416

 Total job time:  32967.32s(wall), 149497.16s(cpu)
        *  Thank you very much for using Q-Chem.  Have a nice day.  *
