 Q-Chem 5.1, Q-Chem, Inc., Pleasanton, CA (2018)
 Q-Chem 5.1.1 for Intel X86 EM64T Linux

User input:
--------------------------------------------------------------
$rem
threads 8
jobtype	sp
method PBEh-3c
basis def2-mSVP
mem_static	1024
mem_total	8000
sym_ignore	true
unrestricted true
scf_convergence	9
solvent_method	pcm
$end

$molecule
read moms1opt_eth.mol
$end

$solvent
dielectric	8.93
$end

$pcm
theory iefpcm
$end
--------------------------------------------------------------

   16   -2927.8950545506      5.23e-10  Convergence criterion met
 Total energy in the final basis set =    -2927.8950545506
 Total job time:  3841.35s(wall), 27965.73s(cpu)
        *  Thank you very much for using Q-Chem.  Have a nice day.  *
 Q-Chem 5.1, Q-Chem, Inc., Pleasanton, CA (2018)
 Q-Chem 5.1.1 for Intel X86 EM64T Linux

User input:
--------------------------------------------------------------

$rem
threads 8
jobtype opt
method PBEh-3c
basis def2-mSVP
scf_guess	read
mem_static      1024
mem_total       8000
sym_ignore      true
unrestricted true
mom_start       1
scf_algorithm	diis
scf_max_cycles	250
solvent_method	pcm
geom_opt_tol_energy 25
geom_opt_tol_gradient 75
$end

$solvent
dielectric      8.93
$end
$pcm
theory iefpcm
$end

$occupied
1 2 3 4 5 6 7 8 9 10 11 12 13 14 15 16 17 18 19 20 21 22 23 24 25 26 27 28 29 30 31 32 33 34 35 36 37 38 39 40 41 42 43 44 45 46 47 48 49 50 51 52 53 54 55 56 57 58 59 60 61 62 63 64 65 66 67 68 69 70 71 72 73 74 75 76 77 78 79 80 81 82 83 84 85 86 87 88 89 90 91 92 93 94 95 96 97 98 99 100 101 102 103 104 105 106 107 108 109 110 111 112 113 114 115 116 117 118 119 120 121 122 123 124 125 126 127 128 129 130 131 132 133 134 135 136 137 138 139 140 141 142 143 144 145 146 147 148 149 150 151 152 153 154 155 156 157 158 159 160 161 162 163 164 165 166 167 168 169 170 171 172 173 174 175 176 177 178 179 180 181 182 183 184 185 186 187 188 189 190 191 192 193 194 195 196 197 198 199 200 201 202 203 204 205 206 207 208 209 210 211 212 213 214 215 216 217 218 219 220 221 222 223 224 225 226 227 228 229 230 231 232 233 234 235 236 237 238 239 240 241 242 243 244 245 246 247 248 249 250 251 252 253  255
1 2 3 4 5 6 7 8 9 10 11 12 13 14 15 16 17 18 19 20 21 22 23 24 25 26 27 28 29 30 31 32 33 34 35 36 37 38 39 40 41 42 43 44 45 46 47 48 49 50 51 52 53 54 55 56 57 58 59 60 61 62 63 64 65 66 67 68 69 70 71 72 73 74 75 76 77 78 79 80 81 82 83 84 85 86 87 88 89 90 91 92 93 94 95 96 97 98 99 100 101 102 103 104 105 106 107 108 109 110 111 112 113 114 115 116 117 118 119 120 121 122 123 124 125 126 127 128 129 130 131 132 133 134 135 136 137 138 139 140 141 142 143 144 145 146 147 148 149 150 151 152 153 154 155 156 157 158 159 160 161 162 163 164 165 166 167 168 169 170 171 172 173 174 175 176 177 178 179 180 181 182 183 184 185 186 187 188 189 190 191 192 193 194 195 196 197 198 199 200 201 202 203 204 205 206 207 208 209 210 211 212 213 214 215 216 217 218 219 220 221 222 223 224 225 226 227 228 229 230 231 232 233 234 235 236 237 238 239 240 241 242 243 244 245 246 247 248 249 250 251 252 253 254
$end

$molecule
read moms1opt_eth.mol
$end

--------------------------------------------------------------

   28   -2927.8951945979      9.88E-09 Convergence criterion met
 Total energy in the final basis set = -2927.89519460
   13   -2927.9016526161      5.67E-09 Convergence criterion met
 Total energy in the final basis set = -2927.90165262
   12   -2927.9021164612      9.31E-09 Convergence criterion met
 Total energy in the final basis set = -2927.90211646
   12   -2927.9019658401      9.46E-09 Convergence criterion met
 Total energy in the final basis set = -2927.90196584
   12   -2927.9018783441      9.93E-09 Convergence criterion met
 Total energy in the final basis set = -2927.90187834
   13   -2927.9018785046      4.87E-09 Convergence criterion met
 Total energy in the final basis set = -2927.90187850
   13   -2927.9018463739      4.84E-09 Convergence criterion met
 Total energy in the final basis set = -2927.90184637
   13   -2927.9018444087      4.82E-09 Convergence criterion met
 Total energy in the final basis set = -2927.90184441
   13   -2927.9018219458      4.78E-09 Convergence criterion met
 Total energy in the final basis set = -2927.90182195
   13   -2927.9019165875      4.79E-09 Convergence criterion met
 Total energy in the final basis set = -2927.90191659
   13   -2927.9018742396      4.78E-09 Convergence criterion met
 Total energy in the final basis set = -2927.90187424
   13   -2927.9018854942      4.81E-09 Convergence criterion met
 Total energy in the final basis set = -2927.90188549
   13   -2927.9018902111      4.80E-09 Convergence criterion met
 Total energy in the final basis set = -2927.90189021

                    Orbital Energies (a.u.)
 --------------------------------------------------------------

 Alpha MOs
 -- Occupied --
-14.673 -14.672 -10.493 -10.493 -10.493 -10.493 -10.489 -10.487
-10.468 -10.467 -10.466 -10.466 -10.466 -10.466 -10.466 -10.465
-10.465 -10.465 -10.464 -10.464 -10.463 -10.462 -10.462 -10.462
-10.462 -10.462 -10.459 -10.459 -10.459 -10.459 -10.458 -10.458
-10.457 -10.456 -10.456 -10.456 -10.456 -10.456 -10.450 -10.450
-10.449 -10.449 -10.449 -10.449 -10.449 -10.449 -10.449 -10.449
-10.448 -10.448 -10.447 -10.447 -10.446 -10.446 -10.446 -10.446
-10.446 -10.444 -10.444 -10.443 -10.439 -10.439 -10.438 -10.438
-10.437 -10.437 -10.437 -10.436 -10.428 -10.428 -10.427 -10.427
-10.422 -10.421  -6.952  -6.951  -1.082  -1.082  -1.019  -1.019
 -0.967  -0.963  -0.963  -0.962  -0.962  -0.961  -0.942  -0.941
 -0.934  -0.934  -0.912  -0.903  -0.875  -0.875  -0.866  -0.861
 -0.857  -0.855  -0.852  -0.852  -0.848  -0.847  -0.840  -0.839
 -0.839  -0.839  -0.825  -0.816  -0.814  -0.807  -0.802  -0.801
 -0.770  -0.769  -0.766  -0.765  -0.737  -0.731  -0.727  -0.722
 -0.710  -0.710  -0.705  -0.704  -0.690  -0.684  -0.683  -0.682
 -0.681  -0.677  -0.670  -0.668  -0.651  -0.650  -0.646  -0.646
 -0.641  -0.639  -0.607  -0.607  -0.597  -0.596  -0.591  -0.589
 -0.589  -0.588  -0.584  -0.576  -0.575  -0.564  -0.562  -0.553
 -0.553  -0.546  -0.544  -0.543  -0.542  -0.539  -0.529  -0.525
 -0.524  -0.522  -0.518  -0.512  -0.510  -0.510  -0.504  -0.500
 -0.500  -0.498  -0.497  -0.496  -0.495  -0.491  -0.489  -0.488
 -0.487  -0.485  -0.484  -0.483  -0.482  -0.482  -0.479  -0.478
 -0.473  -0.472  -0.471  -0.467  -0.467  -0.466  -0.463  -0.462
 -0.462  -0.454  -0.447  -0.443  -0.441  -0.441  -0.440  -0.439
 -0.435  -0.430  -0.429  -0.427  -0.426  -0.426  -0.424  -0.422
 -0.420  -0.414  -0.412  -0.412  -0.409  -0.407  -0.402  -0.402
 -0.398  -0.398  -0.397  -0.397  -0.397  -0.394  -0.393  -0.391
 -0.388  -0.387  -0.383  -0.372  -0.361  -0.360  -0.356  -0.355
 -0.347  -0.344  -0.323  -0.317  -0.308  -0.306  -0.303  -0.302
 -0.299  -0.298  -0.297  -0.297  -0.289  -0.287  -0.284  -0.279
 -0.279  -0.265  -0.261  -0.259  -0.224  -0.223

 Beta MOs
 -- Occupied --
-14.673 -14.672 -10.493 -10.493 -10.493 -10.493 -10.489 -10.487
-10.468 -10.467 -10.466 -10.466 -10.466 -10.466 -10.466 -10.465
-10.465 -10.465 -10.464 -10.464 -10.463 -10.462 -10.462 -10.462
-10.462 -10.462 -10.459 -10.459 -10.459 -10.459 -10.458 -10.458
-10.457 -10.456 -10.456 -10.456 -10.456 -10.456 -10.450 -10.450
-10.449 -10.449 -10.449 -10.449 -10.449 -10.449 -10.449 -10.449
-10.448 -10.448 -10.447 -10.447 -10.446 -10.446 -10.446 -10.446
-10.446 -10.444 -10.444 -10.443 -10.439 -10.439 -10.438 -10.438
-10.437 -10.437 -10.437 -10.436 -10.428 -10.428 -10.427 -10.427
-10.422 -10.421  -6.952  -6.951  -1.082  -1.082  -1.019  -1.019
 -0.967  -0.963  -0.963  -0.962  -0.962  -0.961  -0.942  -0.941
 -0.934  -0.934  -0.912  -0.903  -0.875  -0.875  -0.866  -0.861
 -0.857  -0.855  -0.852  -0.852  -0.848  -0.847  -0.840  -0.839
 -0.839  -0.839  -0.825  -0.816  -0.814  -0.807  -0.802  -0.801
 -0.770  -0.769  -0.766  -0.765  -0.737  -0.731  -0.727  -0.722
 -0.710  -0.710  -0.705  -0.704  -0.690  -0.684  -0.683  -0.682
 -0.681  -0.677  -0.670  -0.668  -0.651  -0.650  -0.646  -0.646
 -0.641  -0.639  -0.607  -0.607  -0.597  -0.596  -0.591  -0.589
 -0.589  -0.588  -0.584  -0.576  -0.575  -0.564  -0.562  -0.553
 -0.553  -0.546  -0.544  -0.543  -0.542  -0.539  -0.529  -0.525
 -0.524  -0.522  -0.518  -0.512  -0.510  -0.510  -0.504  -0.500
 -0.500  -0.498  -0.497  -0.496  -0.495  -0.491  -0.489  -0.488
 -0.487  -0.485  -0.484  -0.483  -0.482  -0.482  -0.479  -0.478
 -0.473  -0.472  -0.471  -0.467  -0.467  -0.466  -0.463  -0.462
 -0.462  -0.454  -0.447  -0.443  -0.441  -0.441  -0.440  -0.439
 -0.435  -0.430  -0.429  -0.427  -0.426  -0.426  -0.424  -0.422
 -0.420  -0.414  -0.412  -0.412  -0.409  -0.407  -0.402  -0.402
 -0.398  -0.398  -0.397  -0.397  -0.397  -0.394  -0.393  -0.391
 -0.388  -0.387  -0.383  -0.372  -0.361  -0.360  -0.356  -0.355
 -0.347  -0.344  -0.323  -0.317  -0.308  -0.306  -0.303  -0.302
 -0.299  -0.298  -0.297  -0.297  -0.289  -0.287  -0.284  -0.279
 -0.279  -0.265  -0.261  -0.259  -0.224  -0.223

          Ground-State Mulliken Net Atomic Charges

     Atom                 Charge (a.u.)    Spin (a.u.)
  --------------------------------------------------------
      1 N                    -0.674080       0.000000
      2 C                     0.325954       0.000000
      3 C                    -0.385953      -0.000000
      4 H                     0.251208      -0.000000
      5 C                     0.048900      -0.000000
      6 C                    -0.391019       0.000000
      7 H                     0.251477       0.000000
      8 C                     0.052438      -0.000000
      9 C                     0.269358      -0.000000
     10 C                    -0.282194      -0.000000
     11 H                     0.258455      -0.000000
     12 C                    -0.242780       0.000000
     13 H                     0.249613       0.000000
     14 C                    -0.261931      -0.000000
     15 H                     0.247416      -0.000000
     16 C                    -0.242716       0.000000
     17 H                     0.249934      -0.000000
     18 C                    -0.285585       0.000000
     19 H                     0.260393       0.000000
     20 C                     0.296512      -0.000000
     21 C                    -0.295522      -0.000000
     22 H                     0.260425      -0.000000
     23 C                    -0.242018       0.000000
     24 H                     0.248873       0.000000
     25 C                    -0.266326      -0.000000
     26 H                     0.245865      -0.000000
     27 C                    -0.240397      -0.000000
     28 H                     0.248960      -0.000000
     29 C                    -0.299383       0.000000
     30 H                     0.260752       0.000000
     31 C                    -0.221165       0.000000
     32 C                    -0.771445      -0.000000
     33 H                     0.253853      -0.000000
     34 H                     0.249026       0.000000
     35 H                     0.248745       0.000000
     36 C                    -0.770438      -0.000000
     37 H                     0.253225      -0.000000
     38 H                     0.249431       0.000000
     39 H                     0.247469       0.000000
     40 B                     0.690135       0.000000
     41 C                    -0.153162      -0.000000
     42 C                    -0.386351      -0.000000
     43 H                     0.249873       0.000000
     44 C                     0.073056       0.000000
     45 C                     0.087838       0.000000
     46 C                    -0.398390      -0.000000
     47 H                     0.245874      -0.000000
     48 C                    -0.157206      -0.000000
     49 C                     0.179379      -0.000000
     50 C                    -0.389851       0.000000
     51 H                     0.251111      -0.000000
     52 C                    -0.065923       0.000000
     53 C                     0.219545      -0.000000
     54 C                     0.180336      -0.000000
     55 C                    -0.396407       0.000000
     56 H                     0.251575      -0.000000
     57 C                    -0.233737      -0.000000
     58 H                     0.257811       0.000000
     59 C                    -0.345782       0.000000
     60 H                     0.255052      -0.000000
     61 C                    -0.231814      -0.000000
     62 H                     0.257600       0.000000
     63 C                    -0.348451       0.000000
     64 H                     0.255250      -0.000000
     65 C                    -0.157189      -0.000000
     66 C                    -0.393757      -0.000000
     67 H                     0.247563       0.000000
     68 C                     0.073624       0.000000
     69 C                     0.091116       0.000000
     70 C                    -0.393621       0.000000
     71 H                     0.247191       0.000000
     72 C                    -0.152864      -0.000000
     73 C                     0.175926      -0.000000
     74 C                    -0.389197       0.000000
     75 H                     0.252245      -0.000000
     76 C                    -0.065382       0.000000
     77 C                     0.223737      -0.000000
     78 C                     0.177581      -0.000000
     79 C                    -0.393655       0.000000
     80 H                     0.251159      -0.000000
     81 C                    -0.233993      -0.000000
     82 H                     0.258024       0.000000
     83 C                    -0.347580       0.000000
     84 H                     0.254780      -0.000000
     85 C                    -0.232578      -0.000000
     86 H                     0.257378       0.000000
     87 C                    -0.350098       0.000000
     88 H                     0.255000      -0.000000
     89 B                     0.699395      -0.000000
     90 C                    -0.216296       0.000000
     91 C                     0.048912      -0.000000
     92 C                    -0.373176      -0.000000
     93 H                     0.249374      -0.000000
     94 C                     0.294810       0.000000
     95 C                    -0.373437      -0.000000
     96 H                     0.248739      -0.000000
     97 C                     0.048175      -0.000000
     98 N                    -0.671601       0.000000
     99 C                     0.297736      -0.000000
    100 C                    -0.298889      -0.000000
    101 H                     0.260543      -0.000000
    102 C                    -0.241755      -0.000000
    103 H                     0.248886      -0.000000
    104 C                    -0.266354       0.000000
    105 H                     0.245693       0.000000
    106 C                    -0.240892       0.000000
    107 H                     0.248397       0.000000
    108 C                    -0.296983       0.000000
    109 H                     0.259109      -0.000000
    110 C                     0.296665      -0.000000
    111 C                    -0.297697       0.000000
    112 H                     0.260676       0.000000
    113 C                    -0.241827      -0.000000
    114 H                     0.248628      -0.000000
    115 C                    -0.267285       0.000000
    116 H                     0.245354      -0.000000
    117 C                    -0.240080      -0.000000
    118 H                     0.247482      -0.000000
    119 C                    -0.297547       0.000000
    120 H                     0.259512       0.000000
    121 C                    -0.774180       0.000000
    122 H                     0.254361      -0.000000
    123 H                     0.250026       0.000000
    124 H                     0.248261       0.000000
    125 C                    -0.773222       0.000000
    126 H                     0.254229      -0.000000
    127 H                     0.249390       0.000000
    128 H                     0.248765       0.000000
  --------------------------------------------------------
  Sum of atomic charges =    -0.000000

                    Cartesian Multipole Moments
 -----------------------------------------------------------------
    Charge (ESU x 10^10)
                -0.0000
    Dipole Moment (Debye)
         X      -0.4896      Y      -0.1937      Z      -0.7147
       Tot       0.8877
    Quadrupole Moments (Debye-Ang)
        XX    -430.8572     XY      -0.5559     YY    -352.9795
        XZ      -1.3030     YZ      -0.5392     ZZ    -401.8020

             Standard Nuclear Orientation (Angstroms)
    I     Atom           X                Y                Z
 ----------------------------------------------------------------
    1      N       0.0830914280    -0.1437113704    -0.0067613844
    2      C       0.1166589946     0.0521613006     1.3839986804
    3      C       1.3029837946    -0.0669373483     2.1035424818
    4      H       2.2286584274    -0.2938823216     1.5877605315
    5      C       1.3105264785     0.0793466429     3.4852340155
    6      C      -1.0589507331     0.3450689965     2.0695381362
    7      H      -1.9855753064     0.4625074004     1.5203588510
    8      C      -1.0695882619     0.4664036267     3.4515365452
    9      C      -1.0336649231    -0.7692923226    -0.5957211633
   10      C      -1.5622649598    -1.9403841060    -0.0545971116
   11      H      -1.1096697557    -2.3812871064     0.8247241237
   12      C      -2.6675153260    -2.5417388689    -0.6364123252
   13      H      -3.0678014215    -3.4494832884    -0.2030172349
   14      C      -3.2487329940    -1.9991504720    -1.7746943133
   15      H      -4.1073017992    -2.4751054860    -2.2299726475
   16      C      -2.7161193941    -0.8399087477    -2.3220530011
   17      H      -3.1622356927    -0.4022954039    -3.2060670941
   18      C      -1.6234343835    -0.2218725228    -1.7341583017
   19      H      -1.2256842037     0.6900700831    -2.1616284914
   20      C       1.1474424032     0.2527053184    -0.8325527833
   21      C       1.7884285446     1.4765797580    -0.6413784079
   22      H       1.4678746783     2.1351998137     0.1559245070
   23      C       2.8292832157     1.8561166974    -1.4747690293
   24      H       3.3157270211     2.8096492648    -1.3133908693
   25      C       3.2337197323     1.0375094732    -2.5210419173
   26      H       4.0400488223     1.3427247527    -3.1747607779
   27      C       2.5888916034    -0.1758622465    -2.7193262718
   28      H       2.8945581937    -0.8284190336    -3.5273073100
   29      C       1.5615253026    -0.5727944509    -1.8786439758
   30      H       1.0751326302    -1.5269527408    -2.0376316346
   31      C       0.1193521799     0.3277820489     4.1777282499
   32      C      -2.3663737141     0.7455410192     4.1609468777
   33      H      -3.2129694522     0.7163447044     3.4756750290
   34      H      -2.3591844159     1.7287359329     4.6358259205
   35      H      -2.5591330710     0.0136149485     4.9491018598
   36      C       2.6009924419    -0.0719343028     4.2417327629
   37      H       3.4507745928    -0.1906869281     3.5702714649
   38      H       2.5783412094    -0.9443802007     4.8986213461
   39      H       2.7984735304     0.7972636085     4.8727589376
   40      B       0.0832255087     0.3558564462     5.7439424551
   41      C       0.0142341985    -0.9941553995     6.5135358296
   42      C      -0.0460077009    -2.1927877325     5.8021260951
   43      H      -0.0580396345    -2.1841124926     4.7179094643
   44      C      -0.0914302489    -3.3940054172     6.4819833843
   45      C      -0.0723540488    -3.4264355165     7.8948104107
   46      C      -0.0220923269    -2.2407904133     8.6085355468
   47      H      -0.0137331244    -2.2568120585     9.6930836527
   48      C       0.0148098120    -1.0180514495     7.9283531446
   49      C      -0.1540904741    -4.7677788856     5.9869952794
   50      C      -0.1965615561    -5.3547158857     4.7475509834
   51      H      -0.1871461937    -4.7697965077     3.8358928909
   52      C      -0.1678263086    -5.5908860707     7.1264755989
   53      C      -0.2213211490    -6.9816394511     7.0790160988
   54      C      -0.1194974401    -4.8331045324     8.3125609346
   55      C      -0.1239686670    -5.5047446653     9.5085050417
   56      H      -0.0876418950    -4.9843696160    10.4573931922
   57      C      -0.2531269371    -6.7671862171     4.6689848681
   58      H      -0.2868387132    -7.2298301561     3.6910409763
   59      C      -0.2653372577    -7.5666826844     5.7892220058
   60      H      -0.3082970802    -8.6441190516     5.6844190102
   61      C      -0.1771235766    -6.9207147317     9.4937166447
   62      H      -0.1801749983    -7.4451122034    10.4403787644
   63      C      -0.2246323914    -7.6492776757     8.3272123429
   64      H      -0.2640882339    -8.7312906612     8.3641174162
   65      C       0.0811067026     1.6917471172     6.5318025558
   66      C       0.0900791950     2.9071623922     5.8447885554
   67      H       0.1313075099     2.9157955493     4.7606598106
   68      C       0.0292454530     4.0965344325     6.5475503809
   69      C      -0.0279049145     4.0903939664     7.9586586420
   70      C      -0.0157432405     2.8886161879     8.6482859180
   71      H      -0.0547399579     2.8832662651     9.7319447623
   72      C       0.0342297578     1.6792543573     7.9468478276
   73      C      -0.0175695307     5.4816894694     6.0889219405
   74      C      -0.0126895086     6.0954202321     4.8634926804
   75      H       0.0491203125     5.5318194378     3.9403987568
   76      C      -0.1049519113     6.2735445830     7.2477253673
   77      C      -0.1922257249     7.6600054241     7.2367475664
   78      C      -0.1125802512     5.4794437559     8.4110607281
   79      C      -0.2075538491     6.1039967244     9.6262768469
   80      H      -0.2209014795     5.5484408575    10.5559713649
   81      C      -0.0959747773     7.5073169038     4.8208254657
   82      H      -0.0933828952     7.9958331933     3.8550629035
   83      C      -0.1833686777     8.2757514299     5.9599398663
   84      H      -0.2486733352     9.3536974638     5.8780333471
   85      C      -0.2939414507     7.5173749905     9.6500500249
   86      H      -0.3698431208     8.0118334692    10.6095335080
   87      C      -0.2882285069     8.2821625580     8.5050904214
   88      H      -0.3599994531     9.3604412788     8.5759997904
   89      B       0.0265351002     0.3209582666     8.7137607964
   90      C       0.0014064996     0.3366189077    10.2796416667
   91      C      -1.2213947327     0.3409052936    10.9604353387
   92      C      -1.2418212430     0.4631790504    12.3427163528
   93      H      -2.1911113920     0.4703748656    12.8660244527
   94      C      -0.0601017157     0.6069477105    13.0621627642
   95      C       1.1565473092     0.5656965942    12.3888069703
   96      H       2.0834052820     0.6690398143    12.9409637248
   97      C       1.1927847738     0.4191459921    11.0074875827
   98      N      -0.1094756485     0.8208676493    14.4533515039
   99      C       0.7764853082     0.1344270938    15.2969484571
  100      C       1.4144343741     0.7882872790    16.3510492189
  101      H       1.2269291789     1.8398895789    16.5278478917
  102      C       2.2937396456     0.0964658863    17.1695999999
  103      H       2.7824042982     0.6184465801    17.9824546743
  104      C       2.5663226817    -1.2457829191    16.9417167896
  105      H       3.2609475005    -1.7787685554    17.5773732202
  106      C       1.9373542968    -1.8954976061    15.8876386820
  107      H       2.1338169464    -2.9435551130    15.7005353137
  108      C       1.0418730708    -1.2176890147    15.0765630903
  109      H       0.5469275953    -1.7372595826    14.2655372579
  110      C      -1.0152039641     1.7623955267    14.9663027853
  111      C      -1.7060030670     1.5144553439    16.1525526541
  112      H      -1.5423215757     0.5886330228    16.6897067281
  113      C      -2.6121302633     2.4430984550    16.6408384297
  114      H      -3.1413336895     2.2321610746    17.5614205518
  115      C      -2.8610890959     3.6212640456    15.9495823275
  116      H      -3.5782650470     4.3376778714    16.3278086823
  117      C      -2.1793865566     3.8665550921    14.7650870063
  118      H      -2.3571355100     4.7824196399    14.2157560297
  119      C      -1.2570904233     2.9538879204    14.2800685588
  120      H      -0.7280037640     3.1627873996    13.3588341746
  121      C       2.5091874618     0.3821372930    10.2822320747
  122      H       3.3530627069     0.4703614064    10.9655050493
  123      H       2.5880653385     1.1940390407     9.5551854236
  124      H       2.6283735466    -0.5522881527     9.7289468498
  125      C      -2.5086041031     0.2132777390    10.1927303933
  126      H      -3.3773741055     0.2659652030    10.8480653860
  127      H      -2.6113803615     1.0068664857     9.4484262758
  128      H      -2.5579559444    -0.7350999026     9.6531606259
 ----------------------------------------------------------------
