 Q-Chem 5.0, Q-Chem, Inc., Pleasanton, CA (2017)
 Q-Chem 5.0.1 for Intel X86 EM64T Linux

User input:
--------------------------------------------------------------
$rem
threads 8
jobtype	sp
method PBEh-3c
basis def2-mSVP
mem_static	1024
mem_total	8000
sym_ignore	true
unrestricted true
scf_convergence	9
solvent_method	pcm
$end

$molecule
read moms1opt_tol.mol
$end

$solvent
dielectric	4.33
$end

$pcm
theory iefpcm
$end
--------------------------------------------------------------

   17   -2927.8874150373      3.88E-10 Convergence criterion met
 Total energy in the final basis set = -2927.88741504

                    Orbital Energies (a.u.)
 --------------------------------------------------------------

 Alpha MOs
 -- Occupied --
-14.670 -14.670 -10.492 -10.491 -10.491 -10.491 -10.486 -10.484
-10.466 -10.466 -10.465 -10.465 -10.465 -10.465 -10.465 -10.465
-10.465 -10.464 -10.463 -10.463 -10.462 -10.462 -10.462 -10.461
-10.461 -10.461 -10.458 -10.458 -10.458 -10.458 -10.456 -10.456
-10.455 -10.454 -10.454 -10.454 -10.450 -10.450 -10.449 -10.449
-10.449 -10.449 -10.449 -10.449 -10.448 -10.447 -10.447 -10.447
-10.447 -10.447 -10.447 -10.447 -10.445 -10.445 -10.444 -10.444
-10.444 -10.443 -10.442 -10.441 -10.437 -10.437 -10.437 -10.437
-10.435 -10.435 -10.430 -10.430 -10.426 -10.426 -10.423 -10.423
-10.423 -10.416  -6.949  -6.942  -1.086  -1.081  -1.016  -1.016
 -0.964  -0.963  -0.960  -0.960  -0.959  -0.958  -0.939  -0.938
 -0.933  -0.933  -0.909  -0.900  -0.873  -0.873  -0.863  -0.858
 -0.856  -0.854  -0.851  -0.851  -0.847  -0.846  -0.841  -0.840
 -0.838  -0.836  -0.824  -0.814  -0.812  -0.804  -0.800  -0.799
 -0.768  -0.764  -0.762  -0.762  -0.736  -0.730  -0.727  -0.721
 -0.710  -0.708  -0.704  -0.703  -0.689  -0.685  -0.683  -0.680
 -0.679  -0.677  -0.669  -0.667  -0.648  -0.646  -0.644  -0.639
 -0.639  -0.638  -0.606  -0.604  -0.596  -0.594  -0.591  -0.588
 -0.587  -0.586  -0.583  -0.576  -0.575  -0.562  -0.561  -0.551
 -0.551  -0.544  -0.543  -0.541  -0.539  -0.536  -0.527  -0.524
 -0.523  -0.520  -0.517  -0.513  -0.509  -0.508  -0.504  -0.500
 -0.498  -0.496  -0.495  -0.494  -0.493  -0.490  -0.488  -0.486
 -0.486  -0.485  -0.484  -0.482  -0.481  -0.481  -0.479  -0.476
 -0.471  -0.470  -0.467  -0.465  -0.465  -0.464  -0.461  -0.461
 -0.460  -0.454  -0.444  -0.442  -0.440  -0.439  -0.439  -0.437
 -0.433  -0.429  -0.428  -0.426  -0.424  -0.424  -0.422  -0.421
 -0.419  -0.415  -0.411  -0.410  -0.407  -0.404  -0.401  -0.400
 -0.400  -0.397  -0.396  -0.396  -0.395  -0.393  -0.391  -0.391
 -0.386  -0.380  -0.379  -0.369  -0.360  -0.360  -0.354  -0.352
 -0.346  -0.338  -0.322  -0.316  -0.309  -0.303  -0.301  -0.300
 -0.298  -0.296  -0.296  -0.295  -0.286  -0.283  -0.282  -0.276
 -0.276  -0.263  -0.257  -0.256  -0.222  -0.214

 Beta MOs
 -- Occupied --
-14.670 -14.670 -10.492 -10.491 -10.491 -10.491 -10.486 -10.484
-10.466 -10.466 -10.465 -10.465 -10.465 -10.465 -10.465 -10.465
-10.465 -10.464 -10.463 -10.463 -10.462 -10.462 -10.462 -10.461
-10.461 -10.461 -10.458 -10.458 -10.458 -10.458 -10.456 -10.456
-10.455 -10.454 -10.454 -10.454 -10.450 -10.450 -10.449 -10.449
-10.449 -10.449 -10.449 -10.449 -10.448 -10.447 -10.447 -10.447
-10.447 -10.447 -10.447 -10.447 -10.445 -10.445 -10.444 -10.444
-10.444 -10.443 -10.442 -10.441 -10.437 -10.437 -10.437 -10.437
-10.435 -10.435 -10.430 -10.430 -10.426 -10.426 -10.423 -10.423
-10.423 -10.416  -6.949  -6.942  -1.086  -1.081  -1.016  -1.016
 -0.964  -0.963  -0.960  -0.960  -0.959  -0.958  -0.939  -0.938
 -0.933  -0.933  -0.909  -0.900  -0.873  -0.873  -0.863  -0.858
 -0.856  -0.854  -0.851  -0.851  -0.847  -0.846  -0.841  -0.840
 -0.838  -0.836  -0.824  -0.814  -0.812  -0.804  -0.800  -0.799
 -0.768  -0.764  -0.762  -0.762  -0.736  -0.730  -0.727  -0.721
 -0.710  -0.708  -0.704  -0.703  -0.689  -0.685  -0.683  -0.680
 -0.679  -0.677  -0.669  -0.667  -0.648  -0.646  -0.644  -0.639
 -0.639  -0.638  -0.606  -0.604  -0.596  -0.594  -0.591  -0.588
 -0.587  -0.586  -0.583  -0.576  -0.575  -0.562  -0.561  -0.551
 -0.551  -0.544  -0.543  -0.541  -0.539  -0.536  -0.527  -0.524
 -0.523  -0.520  -0.517  -0.513  -0.509  -0.508  -0.504  -0.500
 -0.498  -0.496  -0.495  -0.494  -0.493  -0.490  -0.488  -0.486
 -0.486  -0.485  -0.484  -0.482  -0.481  -0.481  -0.479  -0.476
 -0.471  -0.470  -0.467  -0.465  -0.465  -0.464  -0.461  -0.461
 -0.460  -0.454  -0.444  -0.442  -0.440  -0.439  -0.439  -0.437
 -0.433  -0.429  -0.428  -0.426  -0.424  -0.424  -0.422  -0.421
 -0.419  -0.415  -0.411  -0.410  -0.407  -0.404  -0.401  -0.400
 -0.400  -0.397  -0.396  -0.396  -0.395  -0.393  -0.391  -0.391
 -0.386  -0.380  -0.379  -0.369  -0.360  -0.360  -0.354  -0.352
 -0.346  -0.338  -0.322  -0.316  -0.309  -0.303  -0.301  -0.300
 -0.298  -0.296  -0.296  -0.295  -0.286  -0.283  -0.282  -0.276
 -0.276  -0.263  -0.257  -0.256  -0.222  -0.214

          Ground-State Mulliken Net Atomic Charges

     Atom                 Charge (a.u.)    Spin (a.u.)
  --------------------------------------------------------
      1 N                    -0.658420      -0.000000
      2 C                     0.331106      -0.000000
      3 C                    -0.402730       0.000000
      4 H                     0.251387       0.000000
      5 C                     0.066800      -0.000000
      6 C                    -0.403995       0.000000
      7 H                     0.251289       0.000000
      8 C                     0.065051      -0.000000
      9 C                     0.263691      -0.000000
     10 C                    -0.272731      -0.000000
     11 H                     0.260998      -0.000000
     12 C                    -0.239916      -0.000000
     13 H                     0.244488       0.000000
     14 C                    -0.255126       0.000000
     15 H                     0.240677       0.000000
     16 C                    -0.238586      -0.000000
     17 H                     0.244642      -0.000000
     18 C                    -0.280573       0.000000
     19 H                     0.258722       0.000000
     20 C                     0.261293       0.000000
     21 C                    -0.280116      -0.000000
     22 H                     0.259004      -0.000000
     23 C                    -0.238784       0.000000
     24 H                     0.244642       0.000000
     25 C                    -0.255090      -0.000000
     26 H                     0.240658       0.000000
     27 C                    -0.239935       0.000000
     28 H                     0.244330      -0.000000
     29 C                    -0.270553      -0.000000
     30 H                     0.259999      -0.000000
     31 C                    -0.250305      -0.000000
     32 C                    -0.769323      -0.000000
     33 H                     0.247974       0.000000
     34 H                     0.247969       0.000000
     35 H                     0.246654       0.000000
     36 C                    -0.768018       0.000000
     37 H                     0.247702      -0.000000
     38 H                     0.246829       0.000000
     39 H                     0.246520       0.000000
     40 B                     0.676761       0.000000
     41 C                    -0.149611       0.000000
     42 C                    -0.393507      -0.000000
     43 H                     0.243367      -0.000000
     44 C                     0.083812      -0.000000
     45 C                     0.101540       0.000000
     46 C                    -0.397481      -0.000000
     47 H                     0.242068       0.000000
     48 C                    -0.153379      -0.000000
     49 C                     0.186000       0.000000
     50 C                    -0.388288       0.000000
     51 H                     0.245398       0.000000
     52 C                    -0.067491       0.000000
     53 C                     0.227785      -0.000000
     54 C                     0.183317      -0.000000
     55 C                    -0.390958       0.000000
     56 H                     0.243832      -0.000000
     57 C                    -0.226393      -0.000000
     58 H                     0.251463      -0.000000
     59 C                    -0.343533       0.000000
     60 H                     0.247998       0.000000
     61 C                    -0.225944      -0.000000
     62 H                     0.250849       0.000000
     63 C                    -0.345403      -0.000000
     64 H                     0.248338      -0.000000
     65 C                    -0.149190       0.000000
     66 C                    -0.390586      -0.000000
     67 H                     0.244481      -0.000000
     68 C                     0.084765       0.000000
     69 C                     0.103448       0.000000
     70 C                    -0.402381       0.000000
     71 H                     0.240536      -0.000000
     72 C                    -0.153736       0.000000
     73 C                     0.183721       0.000000
     74 C                    -0.385757      -0.000000
     75 H                     0.245061      -0.000000
     76 C                    -0.067115      -0.000000
     77 C                     0.229391      -0.000000
     78 C                     0.182606      -0.000000
     79 C                    -0.392205      -0.000000
     80 H                     0.244855       0.000000
     81 C                    -0.227447       0.000000
     82 H                     0.251312       0.000000
     83 C                    -0.343843       0.000000
     84 H                     0.247945       0.000000
     85 C                    -0.225325      -0.000000
     86 H                     0.250997      -0.000000
     87 C                    -0.346571       0.000000
     88 H                     0.248252       0.000000
     89 B                     0.695760      -0.000000
     90 C                    -0.216354       0.000000
     91 C                     0.044860      -0.000000
     92 C                    -0.360775       0.000000
     93 H                     0.245754       0.000000
     94 C                     0.281091      -0.000000
     95 C                    -0.359824       0.000000
     96 H                     0.245556      -0.000000
     97 C                     0.044335       0.000000
     98 N                    -0.671682       0.000000
     99 C                     0.308521       0.000000
    100 C                    -0.297758      -0.000000
    101 H                     0.259030      -0.000000
    102 C                    -0.235411       0.000000
    103 H                     0.241994      -0.000000
    104 C                    -0.263662       0.000000
    105 H                     0.238554       0.000000
    106 C                    -0.233760      -0.000000
    107 H                     0.240499       0.000000
    108 C                    -0.301486       0.000000
    109 H                     0.255395       0.000000
    110 C                     0.299218      -0.000000
    111 C                    -0.298101       0.000000
    112 H                     0.258833      -0.000000
    113 C                    -0.236029      -0.000000
    114 H                     0.242405       0.000000
    115 C                    -0.262106       0.000000
    116 H                     0.239205       0.000000
    117 C                    -0.234014      -0.000000
    118 H                     0.241349      -0.000000
    119 C                    -0.293817       0.000000
    120 H                     0.255555       0.000000
    121 C                    -0.770195      -0.000000
    122 H                     0.250520      -0.000000
    123 H                     0.248411      -0.000000
    124 H                     0.248535      -0.000000
    125 C                    -0.769719       0.000000
    126 H                     0.250548      -0.000000
    127 H                     0.248356      -0.000000
    128 H                     0.248433       0.000000
  --------------------------------------------------------
  Sum of atomic charges =    -0.000000

                    Cartesian Multipole Moments
 -----------------------------------------------------------------
    Charge (ESU x 10^10)
                -0.0000
    Dipole Moment (Debye)
         X      -0.1897      Y      -0.0209      Z      -1.8375
       Tot       1.8473
    Quadrupole Moments (Debye-Ang)
        XX    -433.3545     XY       1.8470     YY    -354.4829
        XZ      -3.2669     YZ      -4.6561     ZZ    -415.1148

 Total job time:  3469.85s(wall), 11125.40s(cpu)
        *  Thank you very much for using Q-Chem.  Have a nice day.  *
 Q-Chem 5.0, Q-Chem, Inc., Pleasanton, CA (2017)
 Q-Chem 5.0.1 for Intel X86 EM64T Linux

User input:
--------------------------------------------------------------

$rem
threads 8
jobtype opt
method PBEh-3c
basis def2-mSVP
scf_guess	read
mem_static      1024
mem_total       8000
sym_ignore      true
unrestricted true
mom_start       1
scf_algorithm	diis
scf_max_cycles	250
solvent_method	pcm
geom_opt_tol_energy 25
geom_opt_tol_gradient 75
$end

$solvent
dielectric      4.33
$end

$pcm
theory iefpcm
$end

$occupied
1 2 3 4 5 6 7 8 9 10 11 12 13 14 15 16 17 18 19 20 21 22 23 24 25 26 27 28 29 30 31 32 33 34 35 36 37 38 39 40 41 42 43 44 45 46 47 48 49 50 51 52 53 54 55 56 57 58 59 60 61 62 63 64 65 66 67 68 69 70 71 72 73 74 75 76 77 78 79 80 81 82 83 84 85 86 87 88 89 90 91 92 93 94 95 96 97 98 99 100 101 102 103 104 105 106 107 108 109 110 111 112 113 114 115 116 117 118 119 120 121 122 123 124 125 126 127 128 129 130 131 132 133 134 135 136 137 138 139 140 141 142 143 144 145 146 147 148 149 150 151 152 153 154 155 156 157 158 159 160 161 162 163 164 165 166 167 168 169 170 171 172 173 174 175 176 177 178 179 180 181 182 183 184 185 186 187 188 189 190 191 192 193 194 195 196 197 198 199 200 201 202 203 204 205 206 207 208 209 210 211 212 213 214 215 216 217 218 219 220 221 222 223 224 225 226 227 228 229 230 231 232 233 234 235 236 237 238 239 240 241 242 243 244 245 246 247 248 249 250 251 252 253  255
1 2 3 4 5 6 7 8 9 10 11 12 13 14 15 16 17 18 19 20 21 22 23 24 25 26 27 28 29 30 31 32 33 34 35 36 37 38 39 40 41 42 43 44 45 46 47 48 49 50 51 52 53 54 55 56 57 58 59 60 61 62 63 64 65 66 67 68 69 70 71 72 73 74 75 76 77 78 79 80 81 82 83 84 85 86 87 88 89 90 91 92 93 94 95 96 97 98 99 100 101 102 103 104 105 106 107 108 109 110 111 112 113 114 115 116 117 118 119 120 121 122 123 124 125 126 127 128 129 130 131 132 133 134 135 136 137 138 139 140 141 142 143 144 145 146 147 148 149 150 151 152 153 154 155 156 157 158 159 160 161 162 163 164 165 166 167 168 169 170 171 172 173 174 175 176 177 178 179 180 181 182 183 184 185 186 187 188 189 190 191 192 193 194 195 196 197 198 199 200 201 202 203 204 205 206 207 208 209 210 211 212 213 214 215 216 217 218 219 220 221 222 223 224 225 226 227 228 229 230 231 232 233 234 235 236 237 238 239 240 241 242 243 244 245 246 247 248 249 250 251 252 253 254
$end

$molecule
read incoords.mol
$end

--------------------------------------------------------------

             Standard Nuclear Orientation (Angstroms)
    I     Atom           X                Y                Z
 ----------------------------------------------------------------
    1      C      -4.8334350000    -0.3850560000     4.4882810000
    2      C      -5.4224650000    -0.9579350000     3.3716420000
    3      C      -4.7082080000    -1.0710600000     2.1683440000
    4      C      -3.4034140000    -0.5729260000     2.1168040000
    5      C      -2.8336510000     0.0266340000     3.2367520000
    6      C      -3.5366140000     0.1126220000     4.4272230000
    7      N      -2.9406000000     0.6892230000     5.5720580000
    8      C      -6.8271190000    -1.4881940000     3.4581710000
    9      C      -2.5883150000    -0.6551080000     0.8539380000
   10      C      -1.6817730000     0.2419880000     5.9900400000
   11      C      -0.7702950000     1.1186340000     6.5807160000
   12      C      -4.4768130000     2.5560330000     5.6827980000
   13      C      -3.6800780000     1.6090000000     6.3275850000
   14      C      -5.2500080000     3.4374150000     6.4177590000
   15      C      -5.2318400000     3.4077300000     7.8048440000
   16      C      -4.4336870000     2.4737840000     8.4484710000
   17      C      -3.6709020000     1.5743730000     7.7219720000
   18      C      -1.3089700000    -1.0902280000     5.8032960000
   19      C      -0.0548140000    -1.5271550000     6.1924740000
   20      C       0.8446160000    -0.6573720000     6.7914060000
   21      C       0.4736400000     0.6652630000     6.9853810000
   22      C      -6.7217540000    -1.6689280000    -1.2616040000
   23      C      -6.1422530000    -0.9936720000    -0.1418250000
   24      B      -5.3685620000    -1.7891990000     0.9237230000
   25      C      -5.2431460000    -3.3170720000     0.7783890000
   26      C      -5.8248650000    -3.9903740000    -0.3402190000
   27      B      -6.5742830000    -3.1815690000    -1.3900160000
   28      C      -4.5621480000    -4.0724590000     1.7497150000
   29      C      -4.4539240000    -5.4392980000     1.6350430000
   30      C      -5.0346720000    -6.1060040000     0.5171430000
   31      C      -5.7008830000    -5.3906290000    -0.4442510000
   32      C      -7.4297640000    -0.9218170000    -2.2227580000
   33      C      -7.5689390000     0.4356940000    -2.0918250000
   34      C      -6.9916950000     1.1156750000    -0.9807540000
   35      C      -6.2946350000     0.4007400000    -0.0317030000
   36      C      -3.1185230000    -6.4441440000     3.6563900000
   37      C      -2.6508450000    -7.6732350000     4.1748210000
   38      C      -2.8716460000    -8.8772860000     3.5473160000
   39      C      -3.5940770000    -8.9166720000     2.3309810000
   40      C      -4.0423140000    -7.6914570000     1.8440650000
   41      C      -3.8224790000    -6.4509890000     2.4779420000
   42      C      -3.9114520000   -10.0553970000     1.5513600000
   43      C      -4.6243020000    -9.9139140000     0.3832930000
   44      C      -5.0657980000    -8.6573730000    -0.0880040000
   45      C      -4.7728930000    -7.5366610000     0.6494110000
   46      C      -7.5417900000     4.9073270000    -0.8758700000
   47      C      -7.0439760000     3.6731190000    -0.3987680000
   48      C      -7.3068690000     2.5353420000    -1.1195570000
   49      C      -8.0643620000     2.6625890000    -2.3032830000
   50      C      -8.5699430000     3.8613250000    -2.7961600000
   51      C      -8.2811500000     5.0168770000    -2.0311990000
   52      C      -8.2511720000     1.4138950000    -2.9281400000
   53      C      -8.9754700000     1.3606870000    -4.0928400000
   54      C      -9.5005980000     2.5628280000    -4.6151740000
   55      C      -9.3121270000     3.7791940000    -3.9997160000
   56      C      -9.1838500000    -4.9380970000    -3.6426250000
   57      C      -8.5786250000    -4.3655550000    -2.5542530000
   58      C      -7.2297660000    -3.9130430000    -2.6303480000
   59      C      -6.5139680000    -4.1032650000    -3.8401980000
   60      C      -7.1323660000    -4.6690950000    -4.9293410000
   61      C      -8.4770550000    -5.0839110000    -4.8559310000
   62      N      -9.0953110000    -5.6133940000    -5.9564670000
   63      C      -9.3441270000    -4.1724610000    -1.2838240000
   64      C      -5.0738230000    -3.6998770000    -3.9559100000
   65      C      -8.6898810000    -5.2586560000    -7.2604600000
   66      C      -8.4814960000    -3.9198960000    -7.5864440000
   67      C     -11.3017260000    -6.3549880000    -6.6293330000
   68      C     -10.1702430000    -6.5173730000    -5.8321090000
   69      C     -12.3442260000    -7.2570630000    -6.5258600000
   70      C     -12.2652780000    -8.3203730000    -5.6362970000
   71      C     -11.1348270000    -8.4813760000    -4.8477760000
   72      C     -10.0830990000    -7.5876210000    -4.9438570000
   73      C      -8.5370990000    -6.2509340000    -8.2266060000
   74      C      -8.1603740000    -5.9007240000    -9.5098100000
   75      C      -7.9398410000    -4.5691300000    -9.8366800000
   76      C      -8.1025580000    -3.5829860000    -8.8739290000
   77      H      -5.3879430000    -0.3224970000     5.4175780000
   78      H      -1.8237180000     0.4180340000     3.1835910000
   79      H      -6.8588500000    -2.5644030000     3.2753410000
   80      H      -7.4717770000    -1.0240180000     2.7092210000
   81      H      -7.2671010000    -1.3027760000     4.4378830000
   82      H      -3.1004950000    -1.2097090000     0.0687510000
   83      H      -1.6314720000    -1.1488950000     1.0322140000
   84      H      -2.3705280000     0.3387710000     0.4579900000
   85      H      -1.0385900000     2.1580380000     6.7179730000
   86      H      -4.4973100000     2.5873870000     4.6011120000
   87      H      -5.8668920000     4.1597180000     5.8986060000
   88      H      -5.8351970000     4.1005440000     8.3759070000
   89      H      -4.4167610000     2.4283220000     9.5298390000
   90      H      -3.0716890000     0.8343910000     8.2363220000
   91      H      -2.0042260000    -1.7822050000     5.3465030000
   92      H       0.2153730000    -2.5636000000     6.0350240000
   93      H       1.8215790000    -1.0048000000     7.0994610000
   94      H       1.1662850000     1.3607270000     7.4417260000
   95      H      -4.1218610000    -3.5616410000     2.5988820000
   96      H      -6.1376940000    -5.9149500000    -1.2894730000
   97      H      -7.8753650000    -1.4219440000    -3.0776660000
   98      H      -5.8547460000     0.9087560000     0.8200660000
   99      H      -2.9161910000    -5.5259850000     4.1929460000
  100      H      -2.0964150000    -7.6629360000     5.1044810000
  101      H      -2.4928150000    -9.7939190000     3.9827850000
  102      H      -3.5929900000   -11.0395090000     1.8734350000
  103      H      -4.8561880000   -10.7966930000    -0.1996440000
  104      H      -5.6212940000    -8.6020440000    -1.0164400000
  105      H      -7.3307180000     5.8018890000    -0.3040740000
  106      H      -6.4695960000     3.6448420000     0.5184460000
  107      H      -8.6410890000     5.9859570000    -2.3540450000
  108      H      -9.1525000000     0.4267690000    -4.6128220000
  109      H     -10.0734210000     2.5238110000    -5.5333530000
  110      H      -9.7348060000     4.6753310000    -4.4373380000
  111      H     -10.2263790000    -5.2252760000    -3.5935700000
  112      H      -6.5726670000    -4.8342330000    -5.8416020000
  113      H     -10.3568230000    -4.5670560000    -1.3577160000
  114      H      -9.4030310000    -3.1147250000    -1.0258060000
  115      H      -8.8394810000    -4.6676290000    -0.4536120000
  116      H      -4.9428980000    -2.9508120000    -4.7379610000
  117      H      -4.4508370000    -4.5571560000    -4.2147430000
  118      H      -4.6933120000    -3.2814850000    -3.0289060000
  119      H      -8.6349570000    -3.1502070000    -6.8415100000
  120      H     -11.3685070000    -5.5201860000    -7.3145320000
  121      H     -13.2265290000    -7.1245940000    -7.1367940000
  122      H     -13.0827800000    -9.0240890000    -5.5602200000
  123      H     -11.0640500000    -9.3156650000    -4.1637250000
  124      H      -9.1907660000    -7.7272960000    -4.3479210000
  125      H      -8.7006570000    -7.2889950000    -7.9687860000
  126      H      -8.0303680000    -6.6717980000   -10.2567520000
  127      H      -7.6460460000    -4.3007220000   -10.8421060000
  128      H      -7.9467520000    -2.5438490000    -9.1282950000
 ----------------------------------------------------------------
