 Q-Chem 5.0, Q-Chem, Inc., Pleasanton, CA (2017)
 Q-Chem 5.0.1 for Intel X86 EM64T Linux

User input:
--------------------------------------------------------------
$rem
threads 8
jobtype	sp
method PBEh-3c
basis def2-mSVP
mem_static	1024
mem_total	8000
sym_ignore	true
unrestricted true
scf_convergence	9
solvent_method	pcm
$end

$molecule
read moms1opt_tol.mol
$end

$solvent
dielectric	8.93
$end

$pcm
theory iefpcm
$end
--------------------------------------------------------------

   17   -2927.8945432092      3.61E-10 Convergence criterion met
 Total energy in the final basis set = -2927.89454321

                    Orbital Energies (a.u.)
 --------------------------------------------------------------

 Alpha MOs
 -- Occupied --
-14.672 -14.672 -10.493 -10.493 -10.493 -10.493 -10.488 -10.486
-10.468 -10.468 -10.467 -10.467 -10.466 -10.466 -10.466 -10.466
-10.465 -10.465 -10.465 -10.464 -10.463 -10.463 -10.462 -10.462
-10.462 -10.462 -10.459 -10.459 -10.458 -10.458 -10.458 -10.457
-10.457 -10.456 -10.456 -10.456 -10.452 -10.452 -10.450 -10.450
-10.450 -10.450 -10.450 -10.450 -10.449 -10.448 -10.448 -10.448
-10.448 -10.448 -10.448 -10.448 -10.446 -10.445 -10.445 -10.445
-10.445 -10.445 -10.443 -10.442 -10.439 -10.439 -10.439 -10.438
-10.437 -10.437 -10.432 -10.432 -10.427 -10.427 -10.425 -10.425
-10.425 -10.418  -6.951  -6.944  -1.088  -1.082  -1.018  -1.018
 -0.965  -0.964  -0.962  -0.962  -0.961  -0.959  -0.941  -0.940
 -0.934  -0.934  -0.910  -0.901  -0.875  -0.875  -0.865  -0.860
 -0.858  -0.855  -0.852  -0.852  -0.848  -0.847  -0.842  -0.841
 -0.839  -0.838  -0.825  -0.815  -0.813  -0.806  -0.801  -0.800
 -0.769  -0.766  -0.764  -0.763  -0.737  -0.731  -0.728  -0.722
 -0.711  -0.710  -0.705  -0.704  -0.690  -0.686  -0.685  -0.681
 -0.680  -0.678  -0.671  -0.668  -0.650  -0.647  -0.646  -0.640
 -0.640  -0.639  -0.607  -0.605  -0.597  -0.596  -0.591  -0.589
 -0.588  -0.588  -0.583  -0.576  -0.576  -0.563  -0.562  -0.553
 -0.552  -0.545  -0.544  -0.543  -0.540  -0.537  -0.528  -0.524
 -0.523  -0.521  -0.518  -0.514  -0.510  -0.509  -0.505  -0.501
 -0.499  -0.497  -0.496  -0.495  -0.493  -0.491  -0.488  -0.488
 -0.488  -0.486  -0.485  -0.484  -0.482  -0.482  -0.479  -0.477
 -0.472  -0.472  -0.469  -0.466  -0.466  -0.465  -0.463  -0.462
 -0.461  -0.455  -0.446  -0.444  -0.441  -0.441  -0.440  -0.439
 -0.435  -0.430  -0.429  -0.427  -0.426  -0.425  -0.423  -0.422
 -0.420  -0.416  -0.412  -0.411  -0.408  -0.406  -0.402  -0.401
 -0.401  -0.398  -0.397  -0.397  -0.396  -0.394  -0.392  -0.392
 -0.388  -0.382  -0.381  -0.371  -0.362  -0.361  -0.356  -0.354
 -0.348  -0.340  -0.324  -0.318  -0.310  -0.305  -0.303  -0.302
 -0.299  -0.298  -0.297  -0.297  -0.287  -0.285  -0.284  -0.279
 -0.278  -0.265  -0.260  -0.258  -0.224  -0.216

 Beta MOs
 -- Occupied --
-14.672 -14.672 -10.493 -10.493 -10.493 -10.493 -10.488 -10.486
-10.468 -10.468 -10.467 -10.467 -10.466 -10.466 -10.466 -10.466
-10.465 -10.465 -10.465 -10.464 -10.463 -10.463 -10.462 -10.462
-10.462 -10.462 -10.459 -10.459 -10.458 -10.458 -10.458 -10.457
-10.457 -10.456 -10.456 -10.456 -10.452 -10.452 -10.450 -10.450
-10.450 -10.450 -10.450 -10.450 -10.449 -10.448 -10.448 -10.448
-10.448 -10.448 -10.448 -10.448 -10.446 -10.445 -10.445 -10.445
-10.445 -10.445 -10.443 -10.442 -10.439 -10.439 -10.439 -10.438
-10.437 -10.437 -10.432 -10.432 -10.427 -10.427 -10.425 -10.425
-10.425 -10.418  -6.951  -6.944  -1.088  -1.082  -1.018  -1.018
 -0.965  -0.964  -0.962  -0.962  -0.961  -0.959  -0.941  -0.940
 -0.934  -0.934  -0.910  -0.901  -0.875  -0.875  -0.865  -0.860
 -0.858  -0.855  -0.852  -0.852  -0.848  -0.847  -0.842  -0.841
 -0.839  -0.838  -0.825  -0.815  -0.813  -0.806  -0.801  -0.800
 -0.769  -0.766  -0.764  -0.763  -0.737  -0.731  -0.728  -0.722
 -0.711  -0.710  -0.705  -0.704  -0.690  -0.686  -0.685  -0.681
 -0.680  -0.678  -0.671  -0.668  -0.650  -0.647  -0.646  -0.640
 -0.640  -0.639  -0.607  -0.605  -0.597  -0.596  -0.591  -0.589
 -0.588  -0.588  -0.583  -0.576  -0.576  -0.563  -0.562  -0.553
 -0.552  -0.545  -0.544  -0.543  -0.540  -0.537  -0.528  -0.524
 -0.523  -0.521  -0.518  -0.514  -0.510  -0.509  -0.505  -0.501
 -0.499  -0.497  -0.496  -0.495  -0.493  -0.491  -0.488  -0.488
 -0.488  -0.486  -0.485  -0.484  -0.482  -0.482  -0.479  -0.477
 -0.472  -0.472  -0.469  -0.466  -0.466  -0.465  -0.463  -0.462
 -0.461  -0.455  -0.446  -0.444  -0.441  -0.441  -0.440  -0.439
 -0.435  -0.430  -0.429  -0.427  -0.426  -0.425  -0.423  -0.422
 -0.420  -0.416  -0.412  -0.411  -0.408  -0.406  -0.402  -0.401
 -0.401  -0.398  -0.397  -0.397  -0.396  -0.394  -0.392  -0.392
 -0.388  -0.382  -0.381  -0.371  -0.362  -0.361  -0.356  -0.354
 -0.348  -0.340  -0.324  -0.318  -0.310  -0.305  -0.303  -0.302
 -0.299  -0.298  -0.297  -0.297  -0.287  -0.285  -0.284  -0.279
 -0.278  -0.265  -0.260  -0.258  -0.224  -0.216

          Ground-State Mulliken Net Atomic Charges

     Atom                 Charge (a.u.)    Spin (a.u.)
  --------------------------------------------------------
      1 N                    -0.657802      -0.000000
      2 C                     0.330946      -0.000000
      3 C                    -0.405520       0.000000
      4 H                     0.254020       0.000000
      5 C                     0.064364      -0.000000
      6 C                    -0.406773      -0.000000
      7 H                     0.253892       0.000000
      8 C                     0.062466       0.000000
      9 C                     0.263589      -0.000000
     10 C                    -0.276077       0.000000
     11 H                     0.264380       0.000000
     12 C                    -0.245157      -0.000000
     13 H                     0.250506      -0.000000
     14 C                    -0.260488       0.000000
     15 H                     0.246528       0.000000
     16 C                    -0.243913      -0.000000
     17 H                     0.250549      -0.000000
     18 C                    -0.284889       0.000000
     19 H                     0.262101       0.000000
     20 C                     0.261209       0.000000
     21 C                    -0.284430       0.000000
     22 H                     0.262290      -0.000000
     23 C                    -0.244116      -0.000000
     24 H                     0.250518      -0.000000
     25 C                    -0.260446       0.000000
     26 H                     0.246492       0.000000
     27 C                    -0.245204      -0.000000
     28 H                     0.250380      -0.000000
     29 C                    -0.274112       0.000000
     30 H                     0.263819       0.000000
     31 C                    -0.250156       0.000000
     32 C                    -0.771510      -0.000000
     33 H                     0.251369      -0.000000
     34 H                     0.248145      -0.000000
     35 H                     0.247046      -0.000000
     36 C                    -0.770292       0.000000
     37 H                     0.251045       0.000000
     38 H                     0.247155       0.000000
     39 H                     0.246972      -0.000000
     40 B                     0.674471      -0.000000
     41 C                    -0.150051      -0.000000
     42 C                    -0.394163      -0.000000
     43 H                     0.246414       0.000000
     44 C                     0.079894       0.000000
     45 C                     0.097577      -0.000000
     46 C                    -0.398444       0.000000
     47 H                     0.246008       0.000000
     48 C                    -0.153951       0.000000
     49 C                     0.181652       0.000000
     50 C                    -0.390532      -0.000000
     51 H                     0.252238      -0.000000
     52 C                    -0.068964      -0.000000
     53 C                     0.221102      -0.000000
     54 C                     0.178920       0.000000
     55 C                    -0.393295       0.000000
     56 H                     0.251214      -0.000000
     57 C                    -0.232075       0.000000
     58 H                     0.258147       0.000000
     59 C                    -0.345999      -0.000000
     60 H                     0.255501      -0.000000
     61 C                    -0.231679      -0.000000
     62 H                     0.257518       0.000000
     63 C                    -0.347808       0.000000
     64 H                     0.255821       0.000000
     65 C                    -0.149497      -0.000000
     66 C                    -0.391605      -0.000000
     67 H                     0.247616       0.000000
     68 C                     0.080900      -0.000000
     69 C                     0.099445       0.000000
     70 C                    -0.403114       0.000000
     71 H                     0.244312       0.000000
     72 C                    -0.154335       0.000000
     73 C                     0.179359       0.000000
     74 C                    -0.388092      -0.000000
     75 H                     0.252125      -0.000000
     76 C                    -0.068571      -0.000000
     77 C                     0.222729      -0.000000
     78 C                     0.178236      -0.000000
     79 C                    -0.394402       0.000000
     80 H                     0.251972      -0.000000
     81 C                    -0.233113      -0.000000
     82 H                     0.258026       0.000000
     83 C                    -0.346318      -0.000000
     84 H                     0.255439      -0.000000
     85 C                    -0.231074       0.000000
     86 H                     0.257655       0.000000
     87 C                    -0.348964       0.000000
     88 H                     0.255731       0.000000
     89 B                     0.694134       0.000000
     90 C                    -0.216099       0.000000
     91 C                     0.042908       0.000000
     92 C                    -0.364059      -0.000000
     93 H                     0.248804      -0.000000
     94 C                     0.282291       0.000000
     95 C                    -0.363270      -0.000000
     96 H                     0.248806      -0.000000
     97 C                     0.042352      -0.000000
     98 N                    -0.671228       0.000000
     99 C                     0.307973      -0.000000
    100 C                    -0.301262       0.000000
    101 H                     0.261872      -0.000000
    102 C                    -0.240867      -0.000000
    103 H                     0.247989      -0.000000
    104 C                    -0.269302       0.000000
    105 H                     0.244570       0.000000
    106 C                    -0.239550      -0.000000
    107 H                     0.247053       0.000000
    108 C                    -0.306092       0.000000
    109 H                     0.259399       0.000000
    110 C                     0.298868       0.000000
    111 C                    -0.301291      -0.000000
    112 H                     0.261572       0.000000
    113 C                    -0.241462      -0.000000
    114 H                     0.248413      -0.000000
    115 C                    -0.267658      -0.000000
    116 H                     0.245230       0.000000
    117 C                    -0.239668       0.000000
    118 H                     0.247728       0.000000
    119 C                    -0.298478      -0.000000
    120 H                     0.259214       0.000000
    121 C                    -0.772561       0.000000
    122 H                     0.253900      -0.000000
    123 H                     0.248778       0.000000
    124 H                     0.248835       0.000000
    125 C                    -0.772053      -0.000000
    126 H                     0.253857       0.000000
    127 H                     0.248740       0.000000
    128 H                     0.248746       0.000000
  --------------------------------------------------------
  Sum of atomic charges =    -0.000000

                    Cartesian Multipole Moments
 -----------------------------------------------------------------
    Charge (ESU x 10^10)
                -0.0000
    Dipole Moment (Debye)
         X      -0.1996      Y      -0.0236      Z      -1.8488
       Tot       1.8597
    Quadrupole Moments (Debye-Ang)
        XX    -432.4479     XY       1.9068     YY    -349.1142
        XZ      -3.4512     YZ      -5.0567     ZZ    -411.4472

 Total job time:  2984.31s(wall), 9710.64s(cpu)
        *  Thank you very much for using Q-Chem.  Have a nice day.  *
 Q-Chem 5.0, Q-Chem, Inc., Pleasanton, CA (2017)
 Q-Chem 5.0.1 for Intel X86 EM64T Linux

User input:
--------------------------------------------------------------

$rem
threads 8
jobtype opt
method PBEh-3c
basis def2-mSVP
scf_guess	read
mem_static      1024
mem_total       8000
sym_ignore      true
unrestricted true
mom_start       1
scf_algorithm	diis
scf_max_cycles	250
solvent_method	pcm
geom_opt_tol_energy 25
geom_opt_tol_gradient 75
$end

$solvent
dielectric      8.93
$end
$pcm
theory iefpcm
$end

$occupied
1 2 3 4 5 6 7 8 9 10 11 12 13 14 15 16 17 18 19 20 21 22 23 24 25 26 27 28 29 30 31 32 33 34 35 36 37 38 39 40 41 42 43 44 45 46 47 48 49 50 51 52 53 54 55 56 57 58 59 60 61 62 63 64 65 66 67 68 69 70 71 72 73 74 75 76 77 78 79 80 81 82 83 84 85 86 87 88 89 90 91 92 93 94 95 96 97 98 99 100 101 102 103 104 105 106 107 108 109 110 111 112 113 114 115 116 117 118 119 120 121 122 123 124 125 126 127 128 129 130 131 132 133 134 135 136 137 138 139 140 141 142 143 144 145 146 147 148 149 150 151 152 153 154 155 156 157 158 159 160 161 162 163 164 165 166 167 168 169 170 171 172 173 174 175 176 177 178 179 180 181 182 183 184 185 186 187 188 189 190 191 192 193 194 195 196 197 198 199 200 201 202 203 204 205 206 207 208 209 210 211 212 213 214 215 216 217 218 219 220 221 222 223 224 225 226 227 228 229 230 231 232 233 234 235 236 237 238 239 240 241 242 243 244 245 246 247 248 249 250 251 252 253  255
1 2 3 4 5 6 7 8 9 10 11 12 13 14 15 16 17 18 19 20 21 22 23 24 25 26 27 28 29 30 31 32 33 34 35 36 37 38 39 40 41 42 43 44 45 46 47 48 49 50 51 52 53 54 55 56 57 58 59 60 61 62 63 64 65 66 67 68 69 70 71 72 73 74 75 76 77 78 79 80 81 82 83 84 85 86 87 88 89 90 91 92 93 94 95 96 97 98 99 100 101 102 103 104 105 106 107 108 109 110 111 112 113 114 115 116 117 118 119 120 121 122 123 124 125 126 127 128 129 130 131 132 133 134 135 136 137 138 139 140 141 142 143 144 145 146 147 148 149 150 151 152 153 154 155 156 157 158 159 160 161 162 163 164 165 166 167 168 169 170 171 172 173 174 175 176 177 178 179 180 181 182 183 184 185 186 187 188 189 190 191 192 193 194 195 196 197 198 199 200 201 202 203 204 205 206 207 208 209 210 211 212 213 214 215 216 217 218 219 220 221 222 223 224 225 226 227 228 229 230 231 232 233 234 235 236 237 238 239 240 241 242 243 244 245 246 247 248 249 250 251 252 253 254
$end

$molecule
read moms1opt_eth.mol
$end

--------------------------------------------------------------

             Standard Nuclear Orientation (Angstroms)
    I     Atom           X                Y                Z
 ----------------------------------------------------------------
    1      C      -4.8406080000    -0.3694680000     4.5082290000
    2      C      -5.4463820000    -0.9408930000     3.3951310000
    3      C      -4.7441570000    -1.0639720000     2.1894590000
    4      C      -3.4306670000    -0.5793690000     2.1263040000
    5      C      -2.8445870000     0.0146690000     3.2379410000
    6      C      -3.5404850000     0.1127300000     4.4364580000
    7      N      -2.9288980000     0.6903860000     5.5722450000
    8      C      -6.8561770000    -1.4553170000     3.4971830000
    9      C      -2.6534410000    -0.6995990000     0.8447580000
   10      C      -1.6725490000     0.2293730000     5.9857520000
   11      C      -0.7458620000     1.1015100000     6.5604110000
   12      C      -4.4360250000     2.5816780000     5.7012490000
   13      C      -3.6563850000     1.6137810000     6.3370050000
   14      C      -5.1956870000     3.4688570000     6.4451960000
   15      C      -5.1795640000     3.4230650000     7.8330220000
   16      C      -4.3970070000     2.4684680000     8.4676880000
   17      C      -3.6481620000     1.5638550000     7.7312670000
   18      C      -1.3190020000    -1.1103170000     5.8120360000
   19      C      -0.0666490000    -1.5596930000     6.1970510000
   20      C       0.8490790000    -0.6935670000     6.7785330000
   21      C       0.4963030000     0.6369600000     6.9609140000
   22      C      -6.7429160000    -1.6583100000    -1.2501770000
   23      C      -6.1686750000    -0.9822240000    -0.1280850000
   24      B      -5.4024460000    -1.7795250000     0.9415050000
   25      C      -5.2719120000    -3.3064370000     0.7932070000
   26      C      -5.8502920000    -3.9772480000    -0.3289250000
   27      B      -6.6037070000    -3.1748610000    -1.3854450000
   28      C      -4.5844510000    -4.0647230000     1.7631050000
   29      C      -4.4681530000    -5.4292440000     1.6400000000
   30      C      -5.0478310000    -6.0937300000     0.5176680000
   31      C      -5.7197590000    -5.3779390000    -0.4394800000
   32      C      -7.4411690000    -0.9104450000    -2.2202550000
   33      C      -7.5736720000     0.4482870000    -2.0945020000
   34      C      -7.0032740000     1.1302160000    -0.9787630000
   35      C      -6.3176060000     0.4165700000    -0.0219110000
   36      C      -3.1208320000    -6.4388160000     3.6540580000
   37      C      -2.6448790000    -7.6697770000     4.1646250000
   38      C      -2.8609160000    -8.8720890000     3.5299870000
   39      C      -3.5865600000    -8.9077430000     2.3141930000
   40      C      -4.0428340000    -7.6814980000     1.8351530000
   41      C      -3.8280780000    -6.4434120000     2.4767670000
   42      C      -3.8991460000   -10.0450770000     1.5286510000
   43      C      -4.6160560000    -9.9004990000     0.3621990000
   44      C      -5.0660910000    -8.6426590000    -0.1020540000
   45      C      -4.7771180000    -7.5244910000     0.6422280000
   46      C      -7.5377590000     4.9280240000    -0.8917810000
   47      C      -7.0502390000     3.6917990000    -0.4046700000
   48      C      -7.3110720000     2.5528490000    -1.1254070000
   49      C      -8.0557560000     2.6787300000    -2.3179980000
   50      C      -8.5499510000     3.8789210000    -2.8209470000
   51      C      -8.2643830000     5.0368580000    -2.0563550000
   52      C      -8.2418220000     1.4286420000    -2.9417400000
   53      C      -8.9516950000     1.3740330000    -4.1160440000
   54      C      -9.4647010000     2.5788480000    -4.6486290000
   55      C      -9.2785250000     3.7971660000    -4.0340910000
   56      C      -9.1962310000    -4.9524700000    -3.6478310000
   57      C      -8.6026140000    -4.3696990000    -2.5540370000
   58      C      -7.2632110000    -3.9079900000    -2.6240190000
   59      C      -6.5382300000    -4.0884370000    -3.8294200000
   60      C      -7.1396470000    -4.6614240000    -4.9239480000
   61      C      -8.4814010000    -5.0914930000    -4.8560680000
   62      N      -9.0869220000    -5.6266070000    -5.9580580000
   63      C      -9.3827890000    -4.1888740000    -1.2884260000
   64      C      -5.1067090000    -3.6543340000    -3.9050090000
   65      C      -8.6728050000    -5.2744060000    -7.2620470000
   66      C      -8.4751260000    -3.9346360000    -7.5907200000
   67      C     -11.2882350000    -6.3724190000    -6.6405410000
   68      C     -10.1593490000    -6.5379730000    -5.8400310000
   69      C     -12.3274520000    -7.2797650000    -6.5428630000
   70      C     -12.2424840000    -8.3500890000    -5.6606690000
   71      C     -11.1115910000    -8.5133070000    -4.8717780000
   72      C     -10.0641890000    -7.6123090000    -4.9578340000
   73      C      -8.5052740000    -6.2739460000    -8.2186660000
   74      C      -8.1190730000    -5.9272730000    -9.5005400000
   75      C      -7.9098380000    -4.5942170000    -9.8331620000
   76      C      -8.0909270000    -3.6021990000    -8.8784700000
   77      H      -5.3895900000    -0.2993770000     5.4406130000
   78      H      -1.8312610000     0.3950470000     3.1746680000
   79      H      -6.9012450000    -2.5313630000     3.3159850000
   80      H      -7.5042050000    -0.9861640000     2.7541800000
   81      H      -7.2844950000    -1.2646730000     4.4810900000
   82      H      -2.5386930000    -1.7452700000     0.5503460000
   83      H      -1.6567200000    -0.2675400000     0.9334570000
   84      H      -3.1651540000    -0.1979630000     0.0210650000
   85      H      -0.9981700000     2.1462800000     6.6893610000
   86      H      -4.4544850000     2.6293660000     4.6197480000
   87      H      -5.7988790000     4.2077650000     5.9330770000
   88      H      -5.7716630000     4.1197940000     8.4114370000
   89      H      -4.3815110000     2.4110460000     9.5486590000
   90      H      -3.0625880000     0.8091830000     8.2404820000
   91      H      -2.0256430000    -1.8016050000     5.3711650000
   92      H       0.1884900000    -2.6016570000     6.0503620000
   93      H       1.8242030000    -1.0498660000     7.0830540000
   94      H       1.2011870000     1.3287150000     7.4043120000
   95      H      -4.1445610000    -3.5583450000     2.6156850000
   96      H      -6.1562200000    -5.8959980000    -1.2893440000
   97      H      -7.8805370000    -1.4159600000    -3.0757340000
   98      H      -5.8828950000     0.9286870000     0.8305750000
   99      H      -2.9211860000    -5.5229010000     4.1959810000
  100      H      -2.0880310000    -7.6615890000     5.0929980000
  101      H      -2.4763190000    -9.7896920000     3.9587480000
  102      H      -3.5744270000   -11.0291820000     1.8448960000
  103      H      -4.8451190000   -10.7807540000    -0.2257070000
  104      H      -5.6245360000    -8.5855390000    -1.0288030000
  105      H      -7.3286320000     5.8234310000    -0.3204030000
  106      H      -6.4856590000     3.6648500000     0.5189520000
  107      H      -8.6163490000     6.0064130000    -2.3870940000
  108      H      -9.1254260000     0.4398220000    -4.6369190000
  109      H     -10.0251700000     2.5387940000    -5.5743790000
  110      H      -9.6911090000     4.6943250000    -4.4795340000
  111      H     -10.2363610000    -5.2498210000    -3.6027240000
  112      H      -6.5713040000    -4.8217160000    -5.8313380000
  113      H     -10.3982590000    -4.5716110000    -1.3828450000
  114      H      -9.4381260000    -3.1353740000    -1.0107560000
  115      H      -8.8984290000    -4.7069590000    -0.4592340000
  116      H      -5.0178790000    -2.5832920000    -3.7165370000
  117      H      -4.6743530000    -3.8655630000    -4.8820590000
  118      H      -4.5047330000    -4.1576530000    -3.1473390000
  119      H      -8.6458860000    -3.1608210000    -6.8535960000
  120      H     -11.3590630000    -5.5329970000    -7.3200360000
  121      H     -13.2100080000    -7.1474840000    -7.1538650000
  122      H     -13.0565790000    -9.0591200000    -5.5915090000
  123      H     -11.0369250000    -9.3541090000    -4.1956630000
  124      H      -9.1702890000    -7.7550240000    -4.3645690000
  125      H      -8.6600510000    -7.3125080000    -7.9567770000
  126      H      -7.9751590000    -6.7015900000   -10.2418940000
  127      H      -7.6109760000    -4.3290840000   -10.8384100000
  128      H      -7.9451700000    -2.5628370000    -9.1391180000
 ----------------------------------------------------------------
