 Q-Chem 5.0, Q-Chem, Inc., Pleasanton, CA (2017)
 Q-Chem 5.0.1 for Intel X86 EM64T Linux

User input:
--------------------------------------------------------------
$rem
threads 8
jobtype	sp
method PBEh-3c
basis def2-mSVP
mem_static	1024
mem_total	8000
sym_ignore	true
unrestricted true
scf_convergence	9
solvent_method	pcm
$end

$molecule
read moms1opt_tol.mol
$end

$solvent
dielectric	4.33
$end

$pcm
theory iefpcm
$end
--------------------------------------------------------------

   17   -2927.8874150373      3.88E-10 Convergence criterion met
 Total energy in the final basis set = -2927.88741504
 Total job time:  3469.85s(wall), 11125.40s(cpu)
        *  Thank you very much for using Q-Chem.  Have a nice day.  *
 Q-Chem 5.0, Q-Chem, Inc., Pleasanton, CA (2017)
 Q-Chem 5.0.1 for Intel X86 EM64T Linux

User input:
--------------------------------------------------------------

$rem
threads 8
jobtype opt
method PBEh-3c
basis def2-mSVP
scf_guess	read
mem_static      1024
mem_total       8000
sym_ignore      true
unrestricted true
mom_start       1
scf_algorithm	diis
scf_max_cycles	250
solvent_method	pcm
geom_opt_tol_energy 25
geom_opt_tol_gradient 75
$end

$solvent
dielectric      4.33
$end

$pcm
theory iefpcm
$end

$occupied
1 2 3 4 5 6 7 8 9 10 11 12 13 14 15 16 17 18 19 20 21 22 23 24 25 26 27 28 29 30 31 32 33 34 35 36 37 38 39 40 41 42 43 44 45 46 47 48 49 50 51 52 53 54 55 56 57 58 59 60 61 62 63 64 65 66 67 68 69 70 71 72 73 74 75 76 77 78 79 80 81 82 83 84 85 86 87 88 89 90 91 92 93 94 95 96 97 98 99 100 101 102 103 104 105 106 107 108 109 110 111 112 113 114 115 116 117 118 119 120 121 122 123 124 125 126 127 128 129 130 131 132 133 134 135 136 137 138 139 140 141 142 143 144 145 146 147 148 149 150 151 152 153 154 155 156 157 158 159 160 161 162 163 164 165 166 167 168 169 170 171 172 173 174 175 176 177 178 179 180 181 182 183 184 185 186 187 188 189 190 191 192 193 194 195 196 197 198 199 200 201 202 203 204 205 206 207 208 209 210 211 212 213 214 215 216 217 218 219 220 221 222 223 224 225 226 227 228 229 230 231 232 233 234 235 236 237 238 239 240 241 242 243 244 245 246 247 248 249 250 251 252 253  255
1 2 3 4 5 6 7 8 9 10 11 12 13 14 15 16 17 18 19 20 21 22 23 24 25 26 27 28 29 30 31 32 33 34 35 36 37 38 39 40 41 42 43 44 45 46 47 48 49 50 51 52 53 54 55 56 57 58 59 60 61 62 63 64 65 66 67 68 69 70 71 72 73 74 75 76 77 78 79 80 81 82 83 84 85 86 87 88 89 90 91 92 93 94 95 96 97 98 99 100 101 102 103 104 105 106 107 108 109 110 111 112 113 114 115 116 117 118 119 120 121 122 123 124 125 126 127 128 129 130 131 132 133 134 135 136 137 138 139 140 141 142 143 144 145 146 147 148 149 150 151 152 153 154 155 156 157 158 159 160 161 162 163 164 165 166 167 168 169 170 171 172 173 174 175 176 177 178 179 180 181 182 183 184 185 186 187 188 189 190 191 192 193 194 195 196 197 198 199 200 201 202 203 204 205 206 207 208 209 210 211 212 213 214 215 216 217 218 219 220 221 222 223 224 225 226 227 228 229 230 231 232 233 234 235 236 237 238 239 240 241 242 243 244 245 246 247 248 249 250 251 252 253 254
$end

$molecule
read incoords.mol
$end

--------------------------------------------------------------

   19   -2927.8267214462      6.86E-09 Convergence criterion met
 Total energy in the final basis set = -2927.82672145
   18   -2927.8267208287      8.76E-09 Convergence criterion met
 Total energy in the final basis set = -2927.82672083

             Standard Nuclear Orientation (Angstroms)
    I     Atom           X                Y                Z
 ----------------------------------------------------------------
    1      C      -4.8406078285    -0.3694678390     4.5082286845
    2      C      -5.4463820950    -0.9408932247     3.3951306848
    3      C      -4.7441572701    -1.0639722826     2.1894586733
    4      C      -3.4306670604    -0.5793686855     2.1263043675
    5      C      -2.8445865931     0.0146685940     3.2379407179
    6      C      -3.5404852113     0.1127304398     4.4364584803
    7      N      -2.9288981930     0.6903858289     5.5722451490
    8      C      -6.8561765104    -1.4553166860     3.4971830297
    9      C      -2.6534409140    -0.6995994595     0.8447582691
   10      C      -1.6725490000     0.2293734143     5.9857524940
   11      C      -0.7458618065     1.1015098658     6.5604113172
   12      C      -4.4360248045     2.5816780996     5.7012485467
   13      C      -3.6563845036     1.6137808428     6.3370051749
   14      C      -5.1956868000     3.4688567770     6.4451955831
   15      C      -5.1795642610     3.4230645508     7.8330220418
   16      C      -4.3970068158     2.4684683297     8.4676877886
   17      C      -3.6481620719     1.5638545563     7.7312673495
   18      C      -1.3190024671    -1.1103174360     5.8120356645
   19      C      -0.0666493682    -1.5596929107     6.1970510869
   20      C       0.8490788506    -0.6935667706     6.7785325687
   21      C       0.4963032423     0.6369599500     6.9609141965
   22      C      -6.7429158937    -1.6583100918    -1.2501774615
   23      C      -6.1686749192    -0.9822239065    -0.1280846340
   24      B      -5.4024462314    -1.7795251954     0.9415050743
   25      C      -5.2719118433    -3.3064371125     0.7932070595
   26      C      -5.8502923222    -3.9772484760    -0.3289250110
   27      B      -6.6037072518    -3.1748607700    -1.3854448628
   28      C      -4.5844505509    -4.0647231343     1.7631049874
   29      C      -4.4681531903    -5.4292444238     1.6400004028
   30      C      -5.0478310851    -6.0937295134     0.5176684874
   31      C      -5.7197588391    -5.3779394150    -0.4394798883
   32      C      -7.4411685783    -0.9104452057    -2.2202548583
   33      C      -7.5736715066     0.4482872272    -2.0945023491
   34      C      -7.0032742614     1.1302164157    -0.9787631284
   35      C      -6.3176062078     0.4165696399    -0.0219105800
   36      C      -3.1208323481    -6.4388161725     3.6540577022
   37      C      -2.6448785274    -7.6697770097     4.1646253003
   38      C      -2.8609159489    -8.8720887127     3.5299871398
   39      C      -3.5865601715    -8.9077425827     2.3141927663
   40      C      -4.0428339398    -7.6814975780     1.8351532961
   41      C      -3.8280775128    -6.4434122853     2.4767672805
   42      C      -3.8991464534   -10.0450773035     1.5286510431
   43      C      -4.6160556067    -9.9004990755     0.3621990427
   44      C      -5.0660906351    -8.6426589906    -0.1020543192
   45      C      -4.7771178992    -7.5244909061     0.6422284488
   46      C      -7.5377591051     4.9280236499    -0.8917805867
   47      C      -7.0502394688     3.6917994702    -0.4046702268
   48      C      -7.3110720610     2.5528494638    -1.1254073648
   49      C      -8.0557558268     2.6787300536    -2.3179981044
   50      C      -8.5499506744     3.8789205573    -2.8209470266
   51      C      -8.2643826993     5.0368583748    -2.0563549699
   52      C      -8.2418220991     1.4286416185    -2.9417404625
   53      C      -8.9516950098     1.3740328743    -4.1160436809
   54      C      -9.4647009060     2.5788483062    -4.6486287110
   55      C      -9.2785253187     3.7971659923    -4.0340908038
   56      C      -9.1962311827    -4.9524702136    -3.6478305643
   57      C      -8.6026137341    -4.3696992850    -2.5540374931
   58      C      -7.2632113982    -3.9079903762    -2.6240190479
   59      C      -6.5382295146    -4.0884371708    -3.8294200622
   60      C      -7.1396474265    -4.6614236459    -4.9239476048
   61      C      -8.4814009126    -5.0914926509    -4.8560679817
   62      N      -9.0869218843    -5.6266069968    -5.9580578668
   63      C      -9.3827894292    -4.1888743746    -1.2884264169
   64      C      -5.1067091999    -3.6543342686    -3.9050085198
   65      C      -8.6728045702    -5.2744060260    -7.2620472034
   66      C      -8.4751255128    -3.9346361448    -7.5907196759
   67      C     -11.2882350911    -6.3724186159    -6.6405414553
   68      C     -10.1593485773    -6.5379728961    -5.8400312457
   69      C     -12.3274520890    -7.2797649823    -6.5428631046
   70      C     -12.2424842105    -8.3500893028    -5.6606692096
   71      C     -11.1115908564    -8.5133070883    -4.8717777861
   72      C     -10.0641886860    -7.6123088285    -4.9578335424
   73      C      -8.5052738212    -6.2739456090    -8.2186663260
   74      C      -8.1190733131    -5.9272729206    -9.5005398098
   75      C      -7.9098380076    -4.5942169300    -9.8331620725
   76      C      -8.0909270059    -3.6021993318    -8.8784700893
   77      H      -5.3895897391    -0.2993769206     5.4406130360
   78      H      -1.8312607938     0.3950473165     3.1746682410
   79      H      -6.9012449604    -2.5313628504     3.3159852035
   80      H      -7.5042051530    -0.9861642758     2.7541796741
   81      H      -7.2844949436    -1.2646727744     4.4810895281
   82      H      -2.5386931638    -1.7452701868     0.5503460703
   83      H      -1.6567200733    -0.2675403559     0.9334567779
   84      H      -3.1651540499    -0.1979628456     0.0210645024
   85      H      -0.9981704741     2.1462797674     6.6893613060
   86      H      -4.4544849504     2.6293659857     4.6197483221
   87      H      -5.7988793734     4.2077650284     5.9330772481
   88      H      -5.7716626176     4.1197942234     8.4114366845
   89      H      -4.3815114938     2.4110457039     9.5486586201
   90      H      -3.0625884987     0.8091828201     8.2404816419
   91      H      -2.0256434530    -1.8016046328     5.3711653106
   92      H       0.1884895504    -2.6016565138     6.0503617388
   93      H       1.8242027013    -1.0498656194     7.0830544779
   94      H       1.2011873056     1.3287148211     7.4043119761
   95      H      -4.1445609686    -3.5583448409     2.6156852858
   96      H      -6.1562196347    -5.8959981257    -1.2893441980
   97      H      -7.8805372975    -1.4159600333    -3.0757340162
   98      H      -5.8828952503     0.9286871252     0.8305751952
   99      H      -2.9211859099    -5.5229008587     4.1959810755
  100      H      -2.0880308404    -7.6615892180     5.0929982251
  101      H      -2.4763188529    -9.7896918389     3.9587484751
  102      H      -3.5744270348   -11.0291823389     1.8448959428
  103      H      -4.8451189824   -10.7807543012    -0.2257069345
  104      H      -5.6245361382    -8.5855394459    -1.0288026384
  105      H      -7.3286318243     5.8234313338    -0.3204030145
  106      H      -6.4856591178     3.6648498639     0.5189518829
  107      H      -8.6163488487     6.0064130471    -2.3870938074
  108      H      -9.1254256175     0.4398221970    -4.6369186231
  109      H     -10.0251700128     2.5387939925    -5.5743789817
  110      H      -9.6911094123     4.6943247667    -4.4795342559
  111      H     -10.2363613900    -5.2498206698    -3.6027242901
  112      H      -6.5713040301    -4.8217163825    -5.8313378132
  113      H     -10.3982585128    -4.5716109661    -1.3828445141
  114      H      -9.4381260160    -3.1353737120    -1.0107564222
  115      H      -8.8984293334    -4.7069594882    -0.4592340166
  116      H      -5.0178786783    -2.5832922080    -3.7165372953
  117      H      -4.6743526080    -3.8655629616    -4.8820585145
  118      H      -4.5047329135    -4.1576529997    -3.1473393871
  119      H      -8.6458861359    -3.1608206006    -6.8535961797
  120      H     -11.3590632273    -5.5329969098    -7.3200362557
  121      H     -13.2100080972    -7.1474844093    -7.1538654082
  122      H     -13.0565793127    -9.0591203112    -5.5915086894
  123      H     -11.0369251930    -9.3541086761    -4.1956633783
  124      H      -9.1702893557    -7.7550237200    -4.3645685478
  125      H      -8.6600509465    -7.3125082057    -7.9567773298
  126      H      -7.9751591290    -6.7015899915   -10.2418937273
  127      H      -7.6109759149    -4.3290844010   -10.8384098660
  128      H      -7.9451704840    -2.5628374811    -9.1391181286
 ----------------------------------------------------------------

   18   -2927.8267212542      8.90E-09 Convergence criterion met
 Total energy in the final basis set = -2927.82672125
 Final energy is   -2927.82672125424
 **  OPTIMIZATION CONVERGED  **

                    Orbital Energies (a.u.)
 --------------------------------------------------------------

 Alpha MOs
 -- Occupied --
-14.759 -14.663 -10.541 -10.531 -10.531 -10.486 -10.486 -10.484
-10.484 -10.483 -10.483 -10.482 -10.482 -10.477 -10.477 -10.476
-10.476 -10.476 -10.476 -10.476 -10.476 -10.472 -10.459 -10.454
-10.453 -10.451 -10.450 -10.449 -10.449 -10.449 -10.449 -10.449
-10.449 -10.448 -10.448 -10.448 -10.448 -10.447 -10.447 -10.447
-10.446 -10.443 -10.443 -10.443 -10.442 -10.440 -10.440 -10.440
-10.439 -10.439 -10.439 -10.439 -10.439 -10.439 -10.438 -10.437
-10.436 -10.436 -10.436 -10.436 -10.435 -10.434 -10.433 -10.433
-10.432 -10.425 -10.425 -10.413 -10.413 -10.410 -10.410 -10.407
-10.407 -10.405  -6.903  -6.899  -1.142  -1.073  -1.001  -1.000
 -0.996  -0.995  -0.972  -0.955  -0.950  -0.943  -0.941  -0.931
 -0.920  -0.920  -0.902  -0.896  -0.887  -0.885  -0.881  -0.871
 -0.870  -0.859  -0.850  -0.845  -0.838  -0.837  -0.834  -0.834
 -0.832  -0.831  -0.829  -0.804  -0.799  -0.796  -0.791  -0.789
 -0.785  -0.781  -0.754  -0.752  -0.746  -0.739  -0.718  -0.716
 -0.716  -0.713  -0.709  -0.704  -0.699  -0.698  -0.675  -0.674
 -0.673  -0.670  -0.668  -0.664  -0.657  -0.648  -0.638  -0.633
 -0.632  -0.628  -0.628  -0.624  -0.600  -0.596  -0.584  -0.583
 -0.580  -0.579  -0.578  -0.574  -0.571  -0.568  -0.560  -0.559
 -0.554  -0.554  -0.551  -0.544  -0.542  -0.534  -0.528  -0.527
 -0.526  -0.524  -0.517  -0.514  -0.513  -0.512  -0.512  -0.506
 -0.502  -0.496  -0.493  -0.491  -0.490  -0.490  -0.488  -0.486
 -0.479  -0.477  -0.476  -0.475  -0.475  -0.473  -0.472  -0.472
 -0.471  -0.468  -0.466  -0.465  -0.460  -0.459  -0.458  -0.453
 -0.451  -0.450  -0.449  -0.448  -0.446  -0.444  -0.442  -0.439
 -0.434  -0.433  -0.429  -0.428  -0.427  -0.427  -0.424  -0.421
 -0.419  -0.415  -0.412  -0.411  -0.409  -0.407  -0.406  -0.399
 -0.396  -0.391  -0.389  -0.385  -0.385  -0.385  -0.381  -0.377
 -0.376  -0.373  -0.370  -0.357  -0.357  -0.350  -0.349  -0.335
 -0.335  -0.328  -0.327  -0.322  -0.320  -0.309  -0.306  -0.302
 -0.298  -0.297  -0.295  -0.289  -0.288  -0.286  -0.273  -0.271
 -0.264  -0.254  -0.243  -0.240  -0.214  -0.150

 Beta MOs
 -- Occupied --
-14.768 -14.663 -10.541 -10.530 -10.530 -10.486 -10.486 -10.485
-10.485 -10.484 -10.484 -10.481 -10.481 -10.479 -10.479 -10.478
-10.478 -10.476 -10.476 -10.475 -10.475 -10.472 -10.465 -10.454
-10.454 -10.450 -10.450 -10.450 -10.450 -10.449 -10.449 -10.449
-10.449 -10.448 -10.448 -10.447 -10.447 -10.447 -10.446 -10.446
-10.446 -10.443 -10.443 -10.443 -10.442 -10.440 -10.439 -10.439
-10.439 -10.439 -10.439 -10.439 -10.438 -10.438 -10.438 -10.437
-10.436 -10.436 -10.436 -10.436 -10.435 -10.434 -10.434 -10.433
-10.433 -10.425 -10.425 -10.413 -10.413 -10.410 -10.410 -10.406
-10.406 -10.405  -6.900  -6.897  -1.157  -1.073  -1.000  -1.000
 -0.999  -0.998  -0.976  -0.955  -0.950  -0.942  -0.940  -0.931
 -0.920  -0.919  -0.903  -0.899  -0.887  -0.886  -0.880  -0.873
 -0.872  -0.859  -0.850  -0.845  -0.839  -0.836  -0.835  -0.833
 -0.833  -0.832  -0.831  -0.801  -0.798  -0.795  -0.793  -0.791
 -0.786  -0.783  -0.753  -0.751  -0.750  -0.742  -0.719  -0.717
 -0.714  -0.712  -0.710  -0.704  -0.699  -0.698  -0.675  -0.674
 -0.673  -0.671  -0.668  -0.663  -0.655  -0.646  -0.639  -0.633
 -0.631  -0.628  -0.628  -0.626  -0.600  -0.597  -0.586  -0.584
 -0.582  -0.579  -0.578  -0.578  -0.572  -0.568  -0.560  -0.559
 -0.556  -0.554  -0.552  -0.545  -0.542  -0.533  -0.529  -0.527
 -0.526  -0.525  -0.518  -0.514  -0.513  -0.512  -0.512  -0.505
 -0.501  -0.501  -0.495  -0.491  -0.490  -0.490  -0.488  -0.485
 -0.482  -0.479  -0.477  -0.476  -0.475  -0.474  -0.472  -0.472
 -0.470  -0.470  -0.467  -0.465  -0.464  -0.459  -0.458  -0.453
 -0.451  -0.451  -0.450  -0.450  -0.448  -0.445  -0.443  -0.438
 -0.435  -0.433  -0.431  -0.430  -0.427  -0.427  -0.424  -0.421
 -0.416  -0.415  -0.410  -0.410  -0.408  -0.406  -0.405  -0.398
 -0.397  -0.396  -0.391  -0.389  -0.384  -0.383  -0.382  -0.381
 -0.377  -0.374  -0.372  -0.356  -0.351  -0.350  -0.348  -0.340
 -0.334  -0.334  -0.333  -0.324  -0.320  -0.313  -0.312  -0.302
 -0.298  -0.298  -0.295  -0.289  -0.284  -0.283  -0.274  -0.270
 -0.264  -0.260  -0.246  -0.241  -0.233  -0.214

          Ground-State Mulliken Net Atomic Charges

     Atom                 Charge (a.u.)    Spin (a.u.)
  --------------------------------------------------------
      1 C                    -0.363832      -0.000717
      2 C                     0.035774       0.002974
      3 C                    -0.186814      -0.023422
      4 C                     0.035253       0.002903
      5 C                    -0.362502      -0.000746
      6 C                     0.277052       0.000526
      7 N                    -0.670741      -0.000018
      8 C                    -0.760187       0.000592
      9 C                    -0.760827       0.000677
     10 C                     0.307587      -0.000004
     11 C                    -0.298638       0.000017
     12 C                    -0.293192       0.000015
     13 C                     0.298208      -0.000007
     14 C                    -0.234509      -0.000015
     15 C                    -0.263388       0.000019
     16 C                    -0.236617      -0.000016
     17 C                    -0.298384       0.000019
     18 C                    -0.301380       0.000016
     19 C                    -0.234397      -0.000014
     20 C                    -0.265008       0.000018
     21 C                    -0.236002      -0.000014
     22 C                    -0.133836      -0.001531
     23 C                    -0.145977       0.064826
     24 B                     0.572274       0.272647
     25 C                    -0.145630       0.066556
     26 C                    -0.134811      -0.005003
     27 B                     0.551334       0.359995
     28 C                    -0.407454      -0.060696
     29 C                     0.078832       0.094850
     30 C                     0.062647       0.037076
     31 C                    -0.408203      -0.014025
     32 C                    -0.403731      -0.016783
     33 C                     0.061800       0.039857
     34 C                     0.082333       0.093474
     35 C                    -0.413108      -0.059419
     36 C                    -0.406538       0.086301
     37 C                    -0.224545      -0.053573
     38 C                    -0.360516       0.078555
     39 C                     0.227051      -0.038146
     40 C                    -0.078504       0.023632
     41 C                     0.181144      -0.057879
     42 C                    -0.357803       0.064402
     43 C                    -0.226191      -0.045722
     44 C                    -0.404570       0.069054
     45 C                     0.182398      -0.044181
     46 C                    -0.224041      -0.053897
     47 C                    -0.407649       0.086546
     48 C                     0.179966      -0.057815
     49 C                    -0.078222       0.023851
     50 C                     0.228766      -0.038599
     51 C                    -0.362261       0.078940
     52 C                     0.180466      -0.045231
     53 C                    -0.402095       0.070726
     54 C                    -0.226923      -0.046707
     55 C                    -0.357885       0.066249
     56 C                    -0.359431      -0.163697
     57 C                     0.049952       0.126392
     58 C                    -0.145673      -0.395716
     59 C                     0.051357       0.127173
     60 C                    -0.358709      -0.164205
     61 C                     0.342818      -0.012931
     62 N                    -0.578190      -0.363464
     63 C                    -0.756703      -0.007320
     64 C                    -0.755297      -0.007598
     65 C                     0.246858       0.069986
     66 C                    -0.252977      -0.095897
     67 C                    -0.257669      -0.090845
     68 C                     0.249990       0.070357
     69 C                    -0.234357       0.061269
     70 C                    -0.227743      -0.105688
     71 C                    -0.235625       0.065872
     72 C                    -0.255542      -0.095484
     73 C                    -0.257115      -0.090514
     74 C                    -0.234355       0.061104
     75 C                    -0.227582      -0.105858
     76 C                    -0.235677       0.066056
     77 H                     0.237214       0.000336
     78 H                     0.236749       0.000331
     79 H                     0.245508      -0.000683
     80 H                     0.245178      -0.000761
     81 H                     0.237760       0.001444
     82 H                     0.245582      -0.000747
     83 H                     0.237690       0.001433
     84 H                     0.245377      -0.000736
     85 H                     0.257047      -0.000001
     86 H                     0.257584      -0.000001
     87 H                     0.240486       0.000001
     88 H                     0.236860      -0.000001
     89 H                     0.240167       0.000001
     90 H                     0.256994      -0.000001
     91 H                     0.258668      -0.000001
     92 H                     0.240053       0.000001
     93 H                     0.236148      -0.000001
     94 H                     0.239570       0.000001
     95 H                     0.226508       0.002358
     96 H                     0.205469       0.000630
     97 H                     0.204281       0.001071
     98 H                     0.224861       0.002302
     99 H                     0.235168      -0.005055
    100 H                     0.241331       0.002585
    101 H                     0.236463      -0.004629
    102 H                     0.236707      -0.003751
    103 H                     0.238522       0.002250
    104 H                     0.225547      -0.004074
    105 H                     0.241454       0.002601
    106 H                     0.236219      -0.005065
    107 H                     0.236440      -0.004651
    108 H                     0.223809      -0.004178
    109 H                     0.237984       0.002298
    110 H                     0.236433      -0.003866
    111 H                     0.287390       0.009119
    112 H                     0.287718       0.009094
    113 H                     0.247150       0.002558
    114 H                     0.268507       0.002326
    115 H                     0.266094       0.001540
    116 H                     0.267324       0.001412
    117 H                     0.246941       0.002516
    118 H                     0.266092       0.002586
    119 H                     0.287149       0.004945
    120 H                     0.282966       0.004730
    121 H                     0.267421      -0.003175
    122 H                     0.266703       0.005790
    123 H                     0.268767      -0.003620
    124 H                     0.287707       0.004904
    125 H                     0.282799       0.004715
    126 H                     0.267274      -0.003156
    127 H                     0.266814       0.005798
    128 H                     0.269051      -0.003646
  --------------------------------------------------------
  Sum of atomic charges =    -0.000000

                    Cartesian Multipole Moments
 -----------------------------------------------------------------
    Charge (ESU x 10^10)
                -0.0000
    Dipole Moment (Debye)
         X     -12.2525      Y     -12.4104      Z     -22.5519
       Tot      28.5084
    Quadrupole Moments (Debye-Ang)
        XX    -242.4983     XY     149.2002     YY    -323.3165
        XZ     205.4948     YZ     126.8365     ZZ    -279.3962

 Total job time:  145023.30s(wall), 555825.25s(cpu)
        *  Thank you very much for using Q-Chem.  Have a nice day.  *
