 Q-Chem 5.1, Q-Chem, Inc., Pleasanton, CA (2018)
 Q-Chem 5.1.1 for Intel X86 EM64T Linux

User input:
--------------------------------------------------------------
$rem
threads 8
jobtype	sp
method PBEh-3c
basis def2-mSVP
mem_static	1024
mem_total	8000
sym_ignore	true
unrestricted true
scf_convergence	9
solvent_method	pcm
$end

$molecule
read moms1opt_eth.mol
$end

$solvent
dielectric	8.93
$end

$pcm
theory iefpcm
$end
--------------------------------------------------------------

   16   -2927.8958428830      5.21e-10  Convergence criterion met
 Total energy in the final basis set =    -2927.8958428830
 Total job time:  3845.56s(wall), 28050.70s(cpu)
        *  Thank you very much for using Q-Chem.  Have a nice day.  *
 Q-Chem 5.1, Q-Chem, Inc., Pleasanton, CA (2018)
 Q-Chem 5.1.1 for Intel X86 EM64T Linux

User input:
--------------------------------------------------------------

$rem
threads 8
jobtype opt
method PBEh-3c
basis def2-mSVP
scf_guess	read
mem_static      1024
mem_total       8000
sym_ignore      true
unrestricted true
mom_start       1
scf_algorithm	diis
scf_max_cycles	250
solvent_method	pcm
geom_opt_tol_energy 25
geom_opt_tol_gradient 75
$end

$solvent
dielectric      8.93
$end
$pcm
theory iefpcm
$end

$occupied
1 2 3 4 5 6 7 8 9 10 11 12 13 14 15 16 17 18 19 20 21 22 23 24 25 26 27 28 29 30 31 32 33 34 35 36 37 38 39 40 41 42 43 44 45 46 47 48 49 50 51 52 53 54 55 56 57 58 59 60 61 62 63 64 65 66 67 68 69 70 71 72 73 74 75 76 77 78 79 80 81 82 83 84 85 86 87 88 89 90 91 92 93 94 95 96 97 98 99 100 101 102 103 104 105 106 107 108 109 110 111 112 113 114 115 116 117 118 119 120 121 122 123 124 125 126 127 128 129 130 131 132 133 134 135 136 137 138 139 140 141 142 143 144 145 146 147 148 149 150 151 152 153 154 155 156 157 158 159 160 161 162 163 164 165 166 167 168 169 170 171 172 173 174 175 176 177 178 179 180 181 182 183 184 185 186 187 188 189 190 191 192 193 194 195 196 197 198 199 200 201 202 203 204 205 206 207 208 209 210 211 212 213 214 215 216 217 218 219 220 221 222 223 224 225 226 227 228 229 230 231 232 233 234 235 236 237 238 239 240 241 242 243 244 245 246 247 248 249 250 251 252 253  255
1 2 3 4 5 6 7 8 9 10 11 12 13 14 15 16 17 18 19 20 21 22 23 24 25 26 27 28 29 30 31 32 33 34 35 36 37 38 39 40 41 42 43 44 45 46 47 48 49 50 51 52 53 54 55 56 57 58 59 60 61 62 63 64 65 66 67 68 69 70 71 72 73 74 75 76 77 78 79 80 81 82 83 84 85 86 87 88 89 90 91 92 93 94 95 96 97 98 99 100 101 102 103 104 105 106 107 108 109 110 111 112 113 114 115 116 117 118 119 120 121 122 123 124 125 126 127 128 129 130 131 132 133 134 135 136 137 138 139 140 141 142 143 144 145 146 147 148 149 150 151 152 153 154 155 156 157 158 159 160 161 162 163 164 165 166 167 168 169 170 171 172 173 174 175 176 177 178 179 180 181 182 183 184 185 186 187 188 189 190 191 192 193 194 195 196 197 198 199 200 201 202 203 204 205 206 207 208 209 210 211 212 213 214 215 216 217 218 219 220 221 222 223 224 225 226 227 228 229 230 231 232 233 234 235 236 237 238 239 240 241 242 243 244 245 246 247 248 249 250 251 252 253 254
$end

$molecule
read moms1opt_eth.mol
$end

--------------------------------------------------------------

   27   -2927.8959837148      9.59E-09 Convergence criterion met
 Total energy in the final basis set = -2927.89598371
   13   -2927.9018728601      5.45E-09 Convergence criterion met
 Total energy in the final basis set = -2927.90187286
   13   -2927.9024281202      4.72E-09 Convergence criterion met
 Total energy in the final basis set = -2927.90242812
   13   -2927.9025804281      4.67E-09 Convergence criterion met
 Total energy in the final basis set = -2927.90258043
   13   -2927.9026759101      4.65E-09 Convergence criterion met
 Total energy in the final basis set = -2927.90267591
   13   -2927.9027698370      4.59E-09 Convergence criterion met
 Total energy in the final basis set = -2927.90276984
   13   -2927.9027567737      4.53E-09 Convergence criterion met
 Total energy in the final basis set = -2927.90275677
   13   -2927.9027567089      4.53E-09 Convergence criterion met
 Total energy in the final basis set = -2927.90275671
   13   -2927.9027631261      4.53E-09 Convergence criterion met
 Total energy in the final basis set = -2927.90276313
   13   -2927.9027661213      4.57E-09 Convergence criterion met
 Total energy in the final basis set = -2927.90276612
   13   -2927.9027694496      4.57E-09 Convergence criterion met
 Total energy in the final basis set = -2927.90276945
   13   -2927.9027724630      4.58E-09 Convergence criterion met
 Total energy in the final basis set = -2927.90277246
   13   -2927.9027754631      4.56E-09 Convergence criterion met
 Total energy in the final basis set = -2927.90277546

                    Orbital Energies (a.u.)
 --------------------------------------------------------------

 Alpha MOs
 -- Occupied --
-14.672 -14.672 -10.494 -10.493 -10.493 -10.493 -10.488 -10.487
-10.468 -10.468 -10.467 -10.466 -10.466 -10.466 -10.466 -10.466
-10.465 -10.465 -10.464 -10.464 -10.463 -10.462 -10.462 -10.462
-10.462 -10.462 -10.459 -10.459 -10.459 -10.459 -10.458 -10.458
-10.457 -10.456 -10.456 -10.456 -10.456 -10.456 -10.450 -10.450
-10.450 -10.449 -10.449 -10.449 -10.449 -10.449 -10.449 -10.449
-10.448 -10.447 -10.447 -10.447 -10.446 -10.446 -10.446 -10.446
-10.445 -10.444 -10.444 -10.443 -10.439 -10.439 -10.438 -10.438
-10.437 -10.437 -10.437 -10.437 -10.428 -10.428 -10.427 -10.427
-10.423 -10.422  -6.954  -6.952  -1.082  -1.082  -1.019  -1.019
 -0.967  -0.963  -0.962  -0.962  -0.962  -0.961  -0.942  -0.941
 -0.934  -0.934  -0.912  -0.903  -0.875  -0.875  -0.866  -0.861
 -0.857  -0.855  -0.852  -0.852  -0.848  -0.847  -0.840  -0.839
 -0.839  -0.839  -0.825  -0.816  -0.814  -0.807  -0.802  -0.801
 -0.770  -0.769  -0.766  -0.765  -0.737  -0.731  -0.728  -0.722
 -0.710  -0.710  -0.705  -0.704  -0.690  -0.684  -0.683  -0.682
 -0.680  -0.677  -0.670  -0.668  -0.651  -0.650  -0.646  -0.646
 -0.641  -0.639  -0.607  -0.607  -0.597  -0.596  -0.591  -0.589
 -0.589  -0.588  -0.584  -0.576  -0.575  -0.563  -0.562  -0.553
 -0.553  -0.546  -0.544  -0.543  -0.542  -0.539  -0.529  -0.525
 -0.523  -0.522  -0.518  -0.512  -0.510  -0.510  -0.504  -0.500
 -0.500  -0.498  -0.497  -0.496  -0.496  -0.491  -0.489  -0.488
 -0.487  -0.485  -0.484  -0.483  -0.482  -0.482  -0.480  -0.478
 -0.473  -0.472  -0.471  -0.467  -0.467  -0.466  -0.463  -0.462
 -0.461  -0.455  -0.447  -0.443  -0.441  -0.441  -0.440  -0.440
 -0.435  -0.430  -0.429  -0.427  -0.426  -0.426  -0.424  -0.422
 -0.420  -0.414  -0.412  -0.412  -0.409  -0.407  -0.402  -0.402
 -0.398  -0.398  -0.397  -0.397  -0.397  -0.395  -0.392  -0.391
 -0.388  -0.387  -0.383  -0.372  -0.362  -0.360  -0.356  -0.355
 -0.347  -0.345  -0.323  -0.317  -0.308  -0.306  -0.302  -0.302
 -0.299  -0.298  -0.297  -0.297  -0.289  -0.286  -0.284  -0.279
 -0.278  -0.265  -0.261  -0.259  -0.224  -0.223

 Beta MOs
 -- Occupied --
-14.672 -14.672 -10.494 -10.493 -10.493 -10.493 -10.488 -10.487
-10.468 -10.468 -10.467 -10.466 -10.466 -10.466 -10.466 -10.466
-10.465 -10.465 -10.464 -10.464 -10.463 -10.462 -10.462 -10.462
-10.462 -10.462 -10.459 -10.459 -10.459 -10.459 -10.458 -10.458
-10.457 -10.456 -10.456 -10.456 -10.456 -10.456 -10.450 -10.450
-10.450 -10.449 -10.449 -10.449 -10.449 -10.449 -10.449 -10.449
-10.448 -10.447 -10.447 -10.447 -10.446 -10.446 -10.446 -10.446
-10.445 -10.444 -10.444 -10.443 -10.439 -10.439 -10.438 -10.438
-10.437 -10.437 -10.437 -10.437 -10.428 -10.428 -10.427 -10.427
-10.423 -10.422  -6.954  -6.952  -1.082  -1.082  -1.019  -1.019
 -0.967  -0.963  -0.962  -0.962  -0.962  -0.961  -0.942  -0.941
 -0.934  -0.934  -0.912  -0.903  -0.875  -0.875  -0.866  -0.861
 -0.857  -0.855  -0.852  -0.852  -0.848  -0.847  -0.840  -0.839
 -0.839  -0.839  -0.825  -0.816  -0.814  -0.807  -0.802  -0.801
 -0.770  -0.769  -0.766  -0.765  -0.737  -0.731  -0.728  -0.722
 -0.710  -0.710  -0.705  -0.704  -0.690  -0.684  -0.683  -0.682
 -0.680  -0.677  -0.670  -0.668  -0.651  -0.650  -0.646  -0.646
 -0.641  -0.639  -0.607  -0.607  -0.597  -0.596  -0.591  -0.589
 -0.589  -0.588  -0.584  -0.576  -0.575  -0.563  -0.562  -0.553
 -0.553  -0.546  -0.544  -0.543  -0.542  -0.539  -0.529  -0.525
 -0.523  -0.522  -0.518  -0.512  -0.510  -0.510  -0.504  -0.500
 -0.500  -0.498  -0.497  -0.496  -0.496  -0.491  -0.489  -0.488
 -0.487  -0.485  -0.484  -0.483  -0.482  -0.482  -0.480  -0.478
 -0.473  -0.472  -0.471  -0.467  -0.467  -0.466  -0.463  -0.462
 -0.461  -0.455  -0.447  -0.443  -0.441  -0.441  -0.440  -0.440
 -0.435  -0.430  -0.429  -0.427  -0.426  -0.426  -0.424  -0.422
 -0.420  -0.414  -0.412  -0.412  -0.409  -0.407  -0.402  -0.402
 -0.398  -0.398  -0.397  -0.397  -0.397  -0.395  -0.392  -0.391
 -0.388  -0.387  -0.383  -0.372  -0.362  -0.360  -0.356  -0.355
 -0.347  -0.345  -0.323  -0.317  -0.308  -0.306  -0.302  -0.302
 -0.299  -0.298  -0.297  -0.297  -0.289  -0.286  -0.284  -0.279
 -0.278  -0.265  -0.261  -0.259  -0.224  -0.223

          Ground-State Mulliken Net Atomic Charges

     Atom                 Charge (a.u.)    Spin (a.u.)
  --------------------------------------------------------
      1 C                    -0.372764       0.000000
      2 C                     0.048655      -0.000000
      3 C                    -0.217468       0.000000
      4 C                     0.047194       0.000000
      5 C                    -0.370643       0.000000
      6 C                     0.293725      -0.000000
      7 N                    -0.671236      -0.000000
      8 C                    -0.773152       0.000000
      9 C                    -0.774122       0.000000
     10 C                     0.302393       0.000000
     11 C                    -0.299789      -0.000000
     12 C                    -0.293837       0.000000
     13 C                     0.291645      -0.000000
     14 C                    -0.240555      -0.000000
     15 C                    -0.265955       0.000000
     16 C                    -0.242106      -0.000000
     17 C                    -0.297216       0.000000
     18 C                    -0.301729      -0.000000
     19 C                    -0.240074       0.000000
     20 C                    -0.268158      -0.000000
     21 C                    -0.241186       0.000000
     22 C                    -0.155384      -0.000000
     23 C                    -0.157588      -0.000000
     24 B                     0.703167      -0.000000
     25 C                    -0.155918      -0.000000
     26 C                    -0.157850      -0.000000
     27 B                     0.698734      -0.000000
     28 C                    -0.393032      -0.000000
     29 C                     0.089375       0.000000
     30 C                     0.072082       0.000000
     31 C                    -0.390285      -0.000000
     32 C                    -0.386544      -0.000000
     33 C                     0.072281       0.000000
     34 C                     0.092830       0.000000
     35 C                    -0.398504       0.000000
     36 C                    -0.394174       0.000000
     37 C                    -0.232505      -0.000000
     38 C                    -0.348567       0.000000
     39 C                     0.220506      -0.000000
     40 C                    -0.066193       0.000000
     41 C                     0.179487      -0.000000
     42 C                    -0.346610       0.000000
     43 C                    -0.233401      -0.000000
     44 C                    -0.390624       0.000000
     45 C                     0.180044      -0.000000
     46 C                    -0.231953      -0.000000
     47 C                    -0.395324       0.000000
     48 C                     0.178060      -0.000000
     49 C                    -0.065595       0.000000
     50 C                     0.222178      -0.000000
     51 C                    -0.350369       0.000000
     52 C                     0.177763      -0.000000
     53 C                    -0.387625       0.000000
     54 C                    -0.234374      -0.000000
     55 C                    -0.346422       0.000000
     56 C                    -0.387121       0.000000
     57 C                     0.049981      -0.000000
     58 C                    -0.224432      -0.000000
     59 C                     0.051382       0.000000
     60 C                    -0.383658       0.000000
     61 C                     0.320406      -0.000000
     62 N                    -0.673196      -0.000000
     63 C                    -0.772606       0.000000
     64 C                    -0.771585       0.000000
     65 C                     0.276599       0.000000
     66 C                    -0.286540      -0.000000
     67 C                    -0.298923       0.000000
     68 C                     0.293850       0.000000
     69 C                    -0.240825      -0.000000
     70 C                    -0.266123      -0.000000
     71 C                    -0.241735       0.000000
     72 C                    -0.293090      -0.000000
     73 C                    -0.287907       0.000000
     74 C                    -0.242270      -0.000000
     75 C                    -0.262697       0.000000
     76 C                    -0.242696       0.000000
     77 H                     0.248954      -0.000000
     78 H                     0.249073       0.000000
     79 H                     0.248976       0.000000
     80 H                     0.248741       0.000000
     81 H                     0.254341       0.000000
     82 H                     0.249052      -0.000000
     83 H                     0.254487      -0.000000
     84 H                     0.249008       0.000000
     85 H                     0.261144       0.000000
     86 H                     0.259022       0.000000
     87 H                     0.248419      -0.000000
     88 H                     0.245922       0.000000
     89 H                     0.249040      -0.000000
     90 H                     0.260775       0.000000
     91 H                     0.259242      -0.000000
     92 H                     0.247720       0.000000
     93 H                     0.245040      -0.000000
     94 H                     0.248421      -0.000000
     95 H                     0.247315       0.000000
     96 H                     0.247005      -0.000000
     97 H                     0.248300      -0.000000
     98 H                     0.245574       0.000000
     99 H                     0.251134      -0.000000
    100 H                     0.257654       0.000000
    101 H                     0.255211      -0.000000
    102 H                     0.255072      -0.000000
    103 H                     0.258069       0.000000
    104 H                     0.252016      -0.000000
    105 H                     0.257657       0.000000
    106 H                     0.251947      -0.000000
    107 H                     0.255127      -0.000000
    108 H                     0.251463      -0.000000
    109 H                     0.257903       0.000000
    110 H                     0.254826      -0.000000
    111 H                     0.250452       0.000000
    112 H                     0.249899       0.000000
    113 H                     0.253725      -0.000000
    114 H                     0.248888      -0.000000
    115 H                     0.247807       0.000000
    116 H                     0.248361       0.000000
    117 H                     0.253613      -0.000000
    118 H                     0.247720       0.000000
    119 H                     0.258051      -0.000000
    120 H                     0.260801      -0.000000
    121 H                     0.248986      -0.000000
    122 H                     0.245889       0.000000
    123 H                     0.248616      -0.000000
    124 H                     0.259427      -0.000000
    125 H                     0.260372      -0.000000
    126 H                     0.249672       0.000000
    127 H                     0.246966      -0.000000
    128 H                     0.248999       0.000000
  --------------------------------------------------------
  Sum of atomic charges =    -0.000000

                    Cartesian Multipole Moments
 -----------------------------------------------------------------
    Charge (ESU x 10^10)
                -0.0000
    Dipole Moment (Debye)
         X      -0.4106      Y      -0.1424      Z      -0.4806
       Tot       0.6479
    Quadrupole Moments (Debye-Ang)
        XX    -414.3613     XY     -15.1447     YY    -361.9343
        XZ      24.9949     YZ     -10.5640     ZZ    -394.3703

             Standard Nuclear Orientation (Angstroms)
    I     Atom           X                Y                Z
 ----------------------------------------------------------------
    1      C      -4.8441325239    -0.3501730413     4.4974653424
    2      C      -5.4588454897    -0.9317463272     3.3958008473
    3      C      -4.7532183031    -1.0809957374     2.1968743333
    4      C      -3.4333058995    -0.6211784063     2.1186669559
    5      C      -2.8397474564    -0.0190155463     3.2203862484
    6      C      -3.5350175110     0.1106722412     4.4183102766
    7      N      -2.9169087980     0.6977763275     5.5401409889
    8      C      -6.8748626421    -1.4287582558     3.4978590697
    9      C      -2.6656621903    -0.7773342217     0.8352934971
   10      C      -1.6340487519     0.2793733557     5.9235049575
   11      C      -0.7164498499     1.1901641559     6.4489097064
   12      C      -4.4292137212     2.5839067585     5.7136249169
   13      C      -3.6475535793     1.6039097601     6.3264151002
   14      C      -5.1864180045     3.4549036891     6.4797810008
   15      C      -5.1623652125     3.3788242830     7.8663634309
   16      C      -4.3755505903     2.4122797287     8.4779496930
   17      C      -3.6299137393     1.5237373259     7.7184228978
   18      C      -1.2524588707    -1.0550252436     5.7740510234
   19      C       0.0228436626    -1.4620369539     6.1308001739
   20      C       0.9317621289    -0.5567967633     6.6619515636
   21      C       0.5496169969     0.7684824266     6.8229864083
   22      C      -6.7401000364    -1.6734748810    -1.2313077647
   23      C      -6.1791768095    -0.9942200810    -0.1217676661
   24      B      -5.4170257175    -1.8011966235     0.9695634120
   25      C      -5.3008847003    -3.3504389238     0.8470151479
   26      C      -5.8758567264    -4.0209822903    -0.2598062423
   27      B      -6.6221490655    -3.2198976922    -1.3588295708
   28      C      -4.6281788585    -4.0850194016     1.8289085599
   29      C      -4.5276669063    -5.4611507585     1.7167740687
   30      C      -5.1055357764    -6.1250831795     0.6110271314
   31      C      -5.7714381978    -5.4091900521    -0.3662010050
   32      C      -7.4150775672    -0.9531231311    -2.2170930039
   33      C      -7.5392437489     0.4187351715    -2.1049155895
   34      C      -6.9853982950     1.1036785357    -1.0008122014
   35      C      -6.3099957096     0.3951941815    -0.0192686902
   36      C      -3.1910496404    -6.4575406401     3.7450510144
   37      C      -2.7249785235    -7.6878694699     4.2698481639
   38      C      -2.9523657072    -8.8933435292     3.6455657088
   39      C      -3.6773380285    -8.9355603877     2.4300342205
   40      C      -4.1217591798    -7.7112241533     1.9400997781
   41      C      -3.8961505928    -6.4721057236     2.5693638771
   42      C      -4.0000377185   -10.0761894993     1.6532697318
   43      C      -4.7140313241    -9.9360030516     0.4848140796
   44      C      -5.1516172207    -8.6762077771     0.0094950646
   45      C      -4.8513288228    -7.5589607968     0.7466723472
   46      C      -7.4920865486     4.9073677625    -0.9655405352
   47      C      -7.0200773374     3.6725098025    -0.4558473078
   48      C      -7.2811606463     2.5302459957    -1.1664299986
   49      C      -8.0070875707     2.6437005291    -2.3684583690
   50      C      -8.4853175605     3.8382314207    -2.8948867104
   51      C      -8.2017395978     5.0035223410    -2.1414029493
   52      C      -8.1908734674     1.3891673436    -2.9775183599
   53      C      -8.8802865813     1.3165548329    -4.1603670676
   54      C      -9.3792322437     2.5171160693    -4.7192388970
   55      C      -9.1954703129     3.7421725626    -4.1180313400
   56      C      -9.1934501412    -4.9287280908    -3.6806590417
   57      C      -8.6041105243    -4.3601250187    -2.5582936885
   58      C      -7.2657786939    -3.9498661809    -2.5925687301
   59      C      -6.5260088417    -4.1610656946    -3.7628377416
   60      C      -7.1194805809    -4.7545785432    -4.8687108491
   61      C      -8.4616874790    -5.1236343066    -4.8481117206
   62      N      -9.0622544218    -5.6599666582    -6.0003614287
   63      C      -9.4209033677    -4.1599581137    -1.3122986830
   64      C      -5.0814739740    -3.7498722660    -3.8252763055
   65      C      -8.7520219566    -5.1239492673    -7.2649283921
   66      C      -8.6786760193    -3.7458104885    -7.4603441691
   67      C     -11.2035805543    -6.5660629762    -6.6968341090
   68      C     -10.0550775090    -6.6492038712    -5.9087671746
   69      C     -12.1740141840    -7.5529884487    -6.6283682857
   70      C     -12.0284230710    -8.6269180867    -5.7608954968
   71      C     -10.8918317632    -8.7058636627    -4.9669263369
   72      C      -9.9065492846    -7.7337673091    -5.0435312244
   73      C      -8.5261631871    -5.9762756811    -8.3455264667
   74      C      -8.2425570154    -5.4572450675    -9.5988434649
   75      C      -8.1599948925    -4.0843944407    -9.7899830976
   76      C      -8.3747443871    -3.2346587877    -8.7129764476
   77      H      -5.3935668470    -0.2585482347     5.4272452231
   78      H      -1.8216468675     0.3456685209     3.1473343632
   79      H      -6.9323058017    -2.5076842790     3.3353528568
   80      H      -7.5170504752    -0.9604054196     2.7485140407
   81      H      -7.3063898145    -1.2207324536     4.4761323316
   82      H      -2.5757766923    -1.8293876034     0.5531178513
   83      H      -1.6575653980    -0.3720646260     0.9136253180
   84      H      -3.1639286718    -0.2683188281     0.0071406736
   85      H      -0.9935850627     2.2306647403     6.5611126928
   86      H      -4.4499000752     2.6570814937     4.6334105445
   87      H      -5.7916479895     4.2052908215     5.9872339179
   88      H      -5.7512707701     4.0632213124     8.4625117255
   89      H      -4.3535613183     2.3339354364     9.5574135527
   90      H      -3.0387184601     0.7600276077     8.2075785954
   91      H      -1.9544751915    -1.7767461204     5.3763178599
   92      H       0.3013876122    -2.5005947870     6.0041489070
   93      H       1.9245741311    -0.8798911463     6.9456376548
   94      H       1.2483716506     1.4889170230     7.2286030589
   95      H      -4.1857235828    -3.5751378406     2.6767653515
   96      H      -6.2122619671    -5.9225945768    -1.2143174771
   97      H      -7.8426763548    -1.4720310801    -3.0681613391
   98      H      -5.8811715360     0.9142184095     0.8307136194
   99      H      -2.9835337812    -5.5376714395     4.2771110448
  100      H      -2.1685228201    -7.6749724801     5.1978090983
  101      H      -2.5758234584    -9.8099063789     4.0833672004
  102      H      -3.6848714334   -11.0605116039     1.9778993711
  103      H      -4.9511925775   -10.8179158399    -0.0963254876
  104      H      -5.7082993642    -8.6204734102    -0.9181533067
  105      H      -7.2842260704     5.8083832849    -0.4035670638
  106      H      -6.4677204127     3.6533620258     0.4752863407
  107      H      -8.5419998875     5.9709264318    -2.4898874606
  108      H      -9.0489215632     0.3754046258    -4.6699705672
  109      H      -9.9245105154     2.4658635523    -5.6528024362
  110      H      -9.5959115721     4.6348704923    -4.5827704775
  111      H     -10.2408963154    -5.2059316790    -3.6473908832
  112      H      -6.5322694470    -4.9170631721    -5.7651245101
  113      H     -10.4483948674    -4.4973985026    -1.4447736468
  114      H      -9.4555446242    -3.1078191997    -1.0205781327
  115      H      -9.0000673823    -4.7120223515    -0.4689082937
  116      H      -4.9634201208    -2.6822961563    -3.6260611658
  117      H      -4.6486717507    -3.9506172689    -4.8046098630
  118      H      -4.4819424786    -4.2823310244    -3.0836669742
  119      H      -8.8624688613    -3.0734502318    -6.6320960471
  120      H     -11.3377814831    -5.7280889930    -7.3690241026
  121      H     -13.0569237960    -7.4724177567    -7.2497324983
  122      H     -12.7901449938    -9.3933651970    -5.7045917849
  123      H     -10.7599168903    -9.5415961774    -4.2914951080
  124      H      -9.0168990679    -7.8188131181    -4.4324223149
  125      H      -8.5762096929    -7.0487169015    -8.2035063338
  126      H      -8.0716414833    -6.1324322658   -10.4276847787
  127      H      -7.9309818708    -3.6811505390   -10.7676361771
  128      H      -8.3208860021    -2.1622051956    -8.8499275783
 ----------------------------------------------------------------
