 Q-Chem 5.0, Q-Chem, Inc., Pleasanton, CA (2017)
 Q-Chem 5.0.1 for Intel X86 EM64T Linux

User input:
--------------------------------------------------------------
$rem
threads 8
jobtype	sp
method PBEh-3c
basis def2-mSVP
mem_static	1024
mem_total	8000
sym_ignore	true
unrestricted true
scf_convergence	9
solvent_method	pcm
$end

$molecule
read incoords.mol
$end

$solvent
dielectric	2.03
$end

$pcm
theory iefpcm
$end
--------------------------------------------------------------

   17   -2927.8743327922      5.01E-10 Convergence criterion met
 Total energy in the final basis set = -2927.87433279
 Total job time:  4185.98s(wall), 20221.29s(cpu)
        *  Thank you very much for using Q-Chem.  Have a nice day.  *
 Q-Chem 5.0, Q-Chem, Inc., Pleasanton, CA (2017)
 Q-Chem 5.0.1 for Intel X86 EM64T Linux

User input:
--------------------------------------------------------------

$rem
threads 8
jobtype opt
method PBEh-3c
basis def2-mSVP
scf_guess	read
mem_static      1024
mem_total       8000
sym_ignore      true
unrestricted true
mom_start       1
scf_algorithm	diis
scf_max_cycles	250
solvent_method	pcm
geom_opt_tol_energy 25
geom_opt_tol_gradient 75
$end

$solvent
dielectric      2.03
$end
$pcm
theory iefpcm
$end

$occupied
1 2 3 4 5 6 7 8 9 10 11 12 13 14 15 16 17 18 19 20 21 22 23 24 25 26 27 28 29 30 31 32 33 34 35 36 37 38 39 40 41 42 43 44 45 46 47 48 49 50 51 52 53 54 55 56 57 58 59 60 61 62 63 64 65 66 67 68 69 70 71 72 73 74 75 76 77 78 79 80 81 82 83 84 85 86 87 88 89 90 91 92 93 94 95 96 97 98 99 100 101 102 103 104 105 106 107 108 109 110 111 112 113 114 115 116 117 118 119 120 121 122 123 124 125 126 127 128 129 130 131 132 133 134 135 136 137 138 139 140 141 142 143 144 145 146 147 148 149 150 151 152 153 154 155 156 157 158 159 160 161 162 163 164 165 166 167 168 169 170 171 172 173 174 175 176 177 178 179 180 181 182 183 184 185 186 187 188 189 190 191 192 193 194 195 196 197 198 199 200 201 202 203 204 205 206 207 208 209 210 211 212 213 214 215 216 217 218 219 220 221 222 223 224 225 226 227 228 229 230 231 232 233 234 235 236 237 238 239 240 241 242 243 244 245 246 247 248 249 250 251 252 253  255
1 2 3 4 5 6 7 8 9 10 11 12 13 14 15 16 17 18 19 20 21 22 23 24 25 26 27 28 29 30 31 32 33 34 35 36 37 38 39 40 41 42 43 44 45 46 47 48 49 50 51 52 53 54 55 56 57 58 59 60 61 62 63 64 65 66 67 68 69 70 71 72 73 74 75 76 77 78 79 80 81 82 83 84 85 86 87 88 89 90 91 92 93 94 95 96 97 98 99 100 101 102 103 104 105 106 107 108 109 110 111 112 113 114 115 116 117 118 119 120 121 122 123 124 125 126 127 128 129 130 131 132 133 134 135 136 137 138 139 140 141 142 143 144 145 146 147 148 149 150 151 152 153 154 155 156 157 158 159 160 161 162 163 164 165 166 167 168 169 170 171 172 173 174 175 176 177 178 179 180 181 182 183 184 185 186 187 188 189 190 191 192 193 194 195 196 197 198 199 200 201 202 203 204 205 206 207 208 209 210 211 212 213 214 215 216 217 218 219 220 221 222 223 224 225 226 227 228 229 230 231 232 233 234 235 236 237 238 239 240 241 242 243 244 245 246 247 248 249 250 251 252 253 254
$end

$molecule
read incoords.mol
$end

--------------------------------------------------------------

   21   -2927.8044957334      7.14E-09 Convergence criterion met
 Total energy in the final basis set = -2927.80449573
   17   -2927.8046254989      6.97E-09 Convergence criterion met
 Total energy in the final basis set = -2927.80462550
   16   -2927.8045912990      9.96E-09 Convergence criterion met
 Total energy in the final basis set = -2927.80459130
   16   -2927.8046217159      9.55E-09 Convergence criterion met
 Total energy in the final basis set = -2927.80462172
   16   -2927.8046545983      9.01E-09 Convergence criterion met
 Total energy in the final basis set = -2927.80465460
   16   -2927.8047794894      8.71E-09 Convergence criterion met
 Total energy in the final basis set = -2927.80477949
   16   -2927.8049297427      8.65E-09 Convergence criterion met
   16   -2927.8082761253      9.34E-09 Convergence criterion met
 Total energy in the final basis set = -2927.80827613
   16   -2927.8082926581      9.58E-09 Convergence criterion met
 Total energy in the final basis set = -2927.80829266
   16   -2927.8083070714      9.56E-09 Convergence criterion met
 Total energy in the final basis set = -2927.80830707
   16   -2927.8083177640      9.62E-09 Convergence criterion met
 Total energy in the final basis set = -2927.80831776
   16   -2927.8083228268      9.77E-09 Convergence criterion met
 Total energy in the final basis set = -2927.80832283
   16   -2927.8083247077      9.51E-09 Convergence criterion met
 Total energy in the final basis set = -2927.80832471

             Standard Nuclear Orientation (Angstroms)
    I     Atom           X                Y                Z
 ----------------------------------------------------------------
    1      C      -4.8430441796    -0.3756461599     4.5055966742
    2      C      -5.4465737589    -0.9467269593     3.3916564407
    3      C      -4.7424061881    -1.0671019524     2.1873239365
    4      C      -3.4298495731    -0.5809548184     2.1254721318
    5      C      -2.8463590858     0.0132028214     3.2378798660
    6      C      -3.5440587831     0.1090288858     4.4352204625
    7      N      -2.9353210228     0.6875851870     5.5724289211
    8      C      -6.8555919946    -1.4637201898     3.4893436190
    9      C      -2.6527487801    -0.7008792884     0.8440372422
   10      C      -1.6785796294     0.2297675567     5.9866545818
   11      C      -0.7551771604     1.1025936553     6.5650383254
   12      C      -4.4507732456     2.5720234575     5.6934208982
   13      C      -3.6636968415     1.6128444311     6.3329018738
   14      C      -5.2113925523     3.4606245623     6.4336986570
   15      C      -5.1896140750     3.4257387272     7.8213051241
   16      C      -4.4002169706     2.4799282736     8.4595811608
   17      C      -3.6501346719     1.5736356032     7.7273681315
   18      C      -1.3207055432    -1.1081275941     5.8095431838
   19      C      -0.0682407623    -1.5547205307     6.1954634419
   20      C       0.8437681908    -0.6882298212     6.7812198051
   21      C       0.4870619081     0.6403279267     6.9664038811
   22      C      -6.7398400932    -1.6568524248    -1.2516298979
   23      C      -6.1649400186    -0.9823891001    -0.1300587354
   24      B      -5.3983184029    -1.7812698405     0.9383792545
   25      C      -5.2663596128    -3.3081924877     0.7887364907
   26      C      -5.8432394690    -3.9777826537    -0.3336933646
   27      B      -6.5964213768    -3.1712558390    -1.3848909344
   28      C      -4.5796815228    -4.0664266208     1.7579268364
   29      C      -4.4625306803    -5.4307522688     1.6338209344
   30      C      -5.0399434799    -6.0940968747     0.5106597623
   31      C      -5.7111437586    -5.3782927966    -0.4459170454
   32      C      -7.4408130794    -0.9081400091    -2.2192489059
   33      C      -7.5733299213     0.4496536019    -2.0916937260
   34      C      -7.0003552734     1.1301896658    -0.9773174620
   35      C      -6.3134637308     0.4153813326    -0.0222479498
   36      C      -3.1186752174    -6.4418548572     3.6482679304
   37      C      -2.6429223511    -7.6725858809     4.1584854736
   38      C      -2.8568141946    -8.8739726532     3.5226945468
   39      C      -3.5801215694    -8.9090328238     2.3059023953
   40      C      -4.0361024826    -7.6829471554     1.8274718222
   41      C      -3.8234437959    -6.4453086147     2.4701482833
   42      C      -3.8908897226   -10.0451764206     1.5188215281
   43      C      -4.6056762023    -9.9000982328     0.3517710468
   44      C      -5.0553228520    -8.6422301771    -0.1113356063
   45      C      -4.7684419893    -7.5249287892     0.6339816862
   46      C      -7.5321590045     4.9272927977    -0.8871147591
   47      C      -7.0442852976     3.6907353759    -0.4024199978
   48      C      -7.3077342254     2.5525746631    -1.1224605654
   49      C      -8.0555791922     2.6801891108    -2.3126356300
   50      C      -8.5506064507     3.8805455411    -2.8131487530
   51      C      -8.2619662343     5.0374885423    -2.0488653663
   52      C      -8.2439065476     1.4307996984    -2.9362217921
   53      C      -8.9578138971     1.3776663514    -4.1074941631
   54      C      -9.4721520679     2.5823050036    -4.6378470187
   55      C      -9.2829940239     3.7996315472    -4.0234534714
   56      C      -9.1905143377    -4.9543409456    -3.6387664292
   57      C      -8.5964012420    -4.3728283400    -2.5470819374
   58      C      -7.2566605448    -3.9035594880    -2.6213647875
   59      C      -6.5349036532    -4.0791114112    -3.8329935110
   60      C      -7.1390747351    -4.6493238710    -4.9249764195
   61      C      -8.4803751792    -5.0865233240    -4.8528704410
   62      N      -9.0871744613    -5.6216589636    -5.9507993842
   63      C      -9.3676267245    -4.1951093518    -1.2770013231
   64      C      -5.1061376849    -3.6399425502    -3.9076665743
   65      C      -8.6663403402    -5.2862422738    -7.2592287439
   66      C      -8.4700126509    -3.9517094511    -7.6061407267
   67      C     -11.3025421784    -6.3420829055    -6.6218667885
   68      C     -10.1708222184    -6.5228714010    -5.8306718328
   69      C     -12.3500500032    -7.2402107495    -6.5236059692
   70      C     -12.2708032863    -8.3159872073    -5.6485009910
   71      C     -11.1368486027    -8.4946096042    -4.8684710894
   72      C     -10.0808578393    -7.6036522662    -4.9572998127
   73      C      -8.4935674914    -6.2969766077    -8.2015796098
   74      C      -8.1032748588    -5.9674042657    -9.4869329448
   75      C      -7.8936328237    -4.6395219734    -9.8369286816
   76      C      -8.0796211296    -3.6357699114    -8.8964248970
   77      H      -5.3924537789    -0.3060159111     5.4376421036
   78      H      -1.8335932872     0.3951813371     3.1773896676
   79      H      -6.8979651770    -2.5397033242     3.3071642492
   80      H      -7.5018061147    -0.9947763039     2.7446860247
   81      H      -7.2871779706    -1.2743706099     4.4720914984
   82      H      -2.5368092271    -1.7467907417     0.5510592936
   83      H      -1.6565895595    -0.2673568731     0.9320935481
   84      H      -3.1657278103    -0.2007455568     0.0202422673
   85      H      -1.0115134954     2.1460392060     6.6957739785
   86      H      -4.4741635508     2.6094851095     4.6117822029
   87      H      -5.8206877503     4.1922748662     5.9184944375
   88      H      -5.7828840853     4.1238293524     8.3967338317
   89      H      -4.3803364424     2.4305468548     9.5408371298
   90      H      -3.0586724449     0.8253074339     8.2389132052
   91      H      -2.0250629490    -1.7985016771     5.3639596230
   92      H       0.1904365874    -2.5953083596     6.0456230112
   93      H       1.8192568142    -1.0427071844     7.0864242777
   94      H       1.1893132264     1.3327654047     7.4127972196
   95      H      -4.1415147882    -3.5589575306     2.6106190788
   96      H      -6.1459943071    -5.8966910913    -1.2967780687
   97      H      -7.8824714410    -1.4125362827    -3.0745986552
   98      H      -5.8769643330     0.9247595923     0.8308392466
   99      H      -2.9211673956    -5.5262617461     4.1912778541
  100      H      -2.0879348842    -7.6649518047     5.0879428598
  101      H      -2.4722969919    -9.7915351221     3.9515085030
  102      H      -3.5662135374   -11.0294922417     1.8343917860
  103      H      -4.8329528062   -10.7800972412    -0.2372645228
  104      H      -5.6120333674    -8.5841146724    -1.0390758403
  105      H      -7.3206112881     5.8221896651    -0.3158737134
  106      H      -6.4769835502     3.6624643189     0.5193579484
  107      H      -8.6141644071     6.0075712656    -2.3776515682
  108      H      -9.1342280046     0.4435121648    -4.6276038565
  109      H     -10.0362784691     2.5434224306    -5.5614658944
  110      H      -9.6967768197     4.6971064522    -4.4670929332
  111      H     -10.2285927757    -5.2579670345    -3.5904352497
  112      H      -6.5751958355    -4.8039058391    -5.8360151779
  113      H     -10.3806469280    -4.5868356313    -1.3610328716
  114      H      -9.4270797333    -3.1408901850    -1.0029934433
  115      H      -8.8691787910    -4.7038751425    -0.4504782344
  116      H      -5.0234938853    -2.5688462418    -3.7167501576
  117      H      -4.6708695734    -3.8493452671    -4.8839032367
  118      H      -4.5048089309    -4.1393206712    -3.1470089225
  119      H      -8.6412175157    -3.1685565757    -6.8789937207
  120      H     -11.3671410388    -5.4995276247    -7.2981296897
  121      H     -13.2345853168    -7.0961662833    -7.1290386661
  122      H     -13.0915976882    -9.0169738551    -5.5778508405
  123      H     -11.0665671800    -9.3390284824    -4.1964404521
  124      H      -9.1855560055    -7.7562332854    -4.3685156425
  125      H      -8.6515771954    -7.3317164982    -7.9267984870
  126      H      -7.9566855132    -6.7515163589   -10.2173616715
  127      H      -7.5905352139    -4.3876099311   -10.8442156172
  128      H      -7.9321970302    -2.5998698942    -9.1695420229
 ----------------------------------------------------------------

   16   -2927.8083247288      9.54E-09 Convergence criterion met
 Total energy in the final basis set = -2927.80832473
 Final energy is   -2927.80832472885
 **  OPTIMIZATION CONVERGED  **

                    Orbital Energies (a.u.)
 --------------------------------------------------------------

 Alpha MOs
 -- Occupied --
-14.763 -14.656 -10.550 -10.539 -10.539 -10.492 -10.492 -10.491
-10.491 -10.488 -10.488 -10.486 -10.486 -10.486 -10.485 -10.485
-10.485 -10.483 -10.483 -10.480 -10.479 -10.466 -10.464 -10.448
-10.448 -10.446 -10.446 -10.445 -10.445 -10.444 -10.444 -10.444
-10.443 -10.443 -10.442 -10.442 -10.442 -10.442 -10.442 -10.441
-10.441 -10.438 -10.437 -10.437 -10.437 -10.437 -10.436 -10.434
-10.433 -10.433 -10.433 -10.432 -10.432 -10.432 -10.432 -10.432
-10.431 -10.431 -10.431 -10.430 -10.430 -10.430 -10.429 -10.426
-10.425 -10.417 -10.417 -10.406 -10.406 -10.405 -10.405 -10.400
-10.400 -10.397  -6.899  -6.893  -1.149  -1.066  -1.005  -1.002
 -0.995  -0.994  -0.979  -0.949  -0.943  -0.937  -0.935  -0.924
 -0.915  -0.915  -0.908  -0.901  -0.893  -0.883  -0.880  -0.879
 -0.875  -0.852  -0.843  -0.839  -0.838  -0.831  -0.831  -0.829
 -0.829  -0.826  -0.825  -0.798  -0.795  -0.794  -0.790  -0.785
 -0.784  -0.779  -0.753  -0.747  -0.746  -0.744  -0.726  -0.719
 -0.712  -0.710  -0.708  -0.699  -0.693  -0.692  -0.679  -0.676
 -0.669  -0.669  -0.664  -0.659  -0.653  -0.645  -0.642  -0.631
 -0.627  -0.625  -0.623  -0.623  -0.603  -0.594  -0.592  -0.585
 -0.579  -0.576  -0.575  -0.572  -0.569  -0.563  -0.562  -0.557
 -0.555  -0.554  -0.548  -0.548  -0.537  -0.536  -0.533  -0.527
 -0.526  -0.523  -0.522  -0.520  -0.508  -0.508  -0.507  -0.502
 -0.502  -0.498  -0.495  -0.492  -0.486  -0.484  -0.484  -0.481
 -0.477  -0.475  -0.474  -0.471  -0.471  -0.470  -0.469  -0.468
 -0.468  -0.465  -0.465  -0.462  -0.461  -0.458  -0.455  -0.453
 -0.452  -0.451  -0.451  -0.445  -0.444  -0.444  -0.441  -0.439
 -0.438  -0.435  -0.435  -0.427  -0.423  -0.421  -0.419  -0.414
 -0.414  -0.411  -0.410  -0.407  -0.405  -0.402  -0.400  -0.394
 -0.390  -0.384  -0.384  -0.381  -0.380  -0.379  -0.378  -0.377
 -0.373  -0.368  -0.366  -0.351  -0.350  -0.347  -0.344  -0.342
 -0.337  -0.332  -0.328  -0.321  -0.315  -0.312  -0.303  -0.302
 -0.296  -0.292  -0.288  -0.283  -0.282  -0.280  -0.265  -0.265
 -0.256  -0.248  -0.237  -0.233  -0.206  -0.145

 Beta MOs
 -- Occupied --
-14.772 -14.656 -10.550 -10.537 -10.537 -10.493 -10.493 -10.493
-10.492 -10.487 -10.487 -10.486 -10.486 -10.485 -10.485 -10.485
-10.485 -10.485 -10.484 -10.480 -10.479 -10.471 -10.464 -10.449
-10.448 -10.446 -10.445 -10.445 -10.445 -10.444 -10.444 -10.443
-10.443 -10.443 -10.443 -10.443 -10.442 -10.441 -10.441 -10.441
-10.440 -10.438 -10.437 -10.437 -10.437 -10.437 -10.436 -10.433
-10.433 -10.433 -10.433 -10.432 -10.432 -10.432 -10.431 -10.431
-10.431 -10.431 -10.430 -10.430 -10.430 -10.429 -10.429 -10.427
-10.426 -10.417 -10.417 -10.406 -10.406 -10.405 -10.405 -10.399
-10.399 -10.397  -6.895  -6.891  -1.163  -1.066  -1.006  -1.006
 -0.994  -0.994  -0.984  -0.949  -0.943  -0.936  -0.934  -0.924
 -0.915  -0.914  -0.909  -0.906  -0.894  -0.883  -0.881  -0.880
 -0.875  -0.852  -0.845  -0.843  -0.839  -0.831  -0.830  -0.828
 -0.828  -0.826  -0.825  -0.798  -0.796  -0.793  -0.790  -0.788
 -0.785  -0.777  -0.757  -0.749  -0.746  -0.744  -0.728  -0.720
 -0.711  -0.708  -0.707  -0.698  -0.693  -0.692  -0.681  -0.677
 -0.669  -0.669  -0.663  -0.658  -0.650  -0.647  -0.641  -0.633
 -0.627  -0.624  -0.623  -0.622  -0.605  -0.594  -0.594  -0.591
 -0.585  -0.575  -0.574  -0.572  -0.567  -0.564  -0.563  -0.558
 -0.554  -0.554  -0.549  -0.548  -0.538  -0.536  -0.534  -0.527
 -0.527  -0.523  -0.522  -0.520  -0.508  -0.508  -0.507  -0.505
 -0.501  -0.500  -0.498  -0.492  -0.487  -0.485  -0.484  -0.483
 -0.480  -0.476  -0.474  -0.472  -0.471  -0.470  -0.470  -0.469
 -0.468  -0.464  -0.463  -0.462  -0.460  -0.459  -0.458  -0.455
 -0.453  -0.452  -0.450  -0.445  -0.444  -0.444  -0.441  -0.440
 -0.439  -0.439  -0.434  -0.427  -0.424  -0.421  -0.419  -0.414
 -0.414  -0.410  -0.409  -0.406  -0.403  -0.401  -0.400  -0.399
 -0.393  -0.390  -0.384  -0.384  -0.380  -0.377  -0.377  -0.377
 -0.372  -0.369  -0.365  -0.352  -0.349  -0.347  -0.344  -0.342
 -0.341  -0.338  -0.330  -0.327  -0.318  -0.314  -0.313  -0.296
 -0.292  -0.292  -0.288  -0.283  -0.278  -0.277  -0.277  -0.265
 -0.256  -0.254  -0.240  -0.235  -0.226  -0.206

          Ground-State Mulliken Net Atomic Charges

     Atom                 Charge (a.u.)    Spin (a.u.)
  --------------------------------------------------------
      1 C                    -0.357274      -0.000650
      2 C                     0.042040       0.002853
      3 C                    -0.190347      -0.022801
      4 C                     0.041783       0.002787
      5 C                    -0.355921      -0.000681
      6 C                     0.274397       0.000407
      7 N                    -0.671355      -0.000068
      8 C                    -0.757465       0.000604
      9 C                    -0.758083       0.000689
     10 C                     0.309219       0.000012
     11 C                    -0.293059      -0.000006
     12 C                    -0.286293      -0.000008
     13 C                     0.299973       0.000009
     14 C                    -0.224648       0.000002
     15 C                    -0.253820      -0.000007
     16 C                    -0.226994      -0.000000
     17 C                    -0.293240      -0.000003
     18 C                    -0.294195      -0.000008
     19 C                    -0.224516       0.000003
     20 C                    -0.255150      -0.000009
     21 C                    -0.226429       0.000001
     22 C                    -0.129194      -0.015269
     23 C                    -0.145957       0.073328
     24 B                     0.591218       0.263270
     25 C                    -0.145676       0.074381
     26 C                    -0.130001      -0.019247
     27 B                     0.551165       0.375821
     28 C                    -0.402507      -0.067139
     29 C                     0.087263       0.103644
     30 C                     0.071345       0.025735
     31 C                    -0.405443      -0.004286
     32 C                    -0.400178      -0.007520
     33 C                     0.070305       0.028825
     34 C                     0.090841       0.102877
     35 C                    -0.408287      -0.066382
     36 C                    -0.400573       0.087736
     37 C                    -0.213525      -0.053978
     38 C                    -0.354908       0.079627
     39 C                     0.239533      -0.037367
     40 C                    -0.076898       0.023212
     41 C                     0.189530      -0.059456
     42 C                    -0.351838       0.060453
     43 C                    -0.215257      -0.043397
     44 C                    -0.398908       0.064355
     45 C                     0.190875      -0.040745
     46 C                    -0.212954      -0.054645
     47 C                    -0.401913       0.088567
     48 C                     0.188330      -0.059708
     49 C                    -0.076790       0.023559
     50 C                     0.241263      -0.038064
     51 C                    -0.356748       0.080578
     52 C                     0.188981      -0.041989
     53 C                    -0.396238       0.066432
     54 C                    -0.215948      -0.044645
     55 C                    -0.351945       0.062708
     56 C                    -0.361375      -0.147364
     57 C                     0.056247       0.112406
     58 C                    -0.139237      -0.418708
     59 C                     0.057494       0.112921
     60 C                    -0.360218      -0.147745
     61 C                     0.346246      -0.046603
     62 N                    -0.587302      -0.333622
     63 C                    -0.753259      -0.005827
     64 C                    -0.751615      -0.006124
     65 C                     0.246402       0.065926
     66 C                    -0.251964      -0.085200
     67 C                    -0.254281      -0.080087
     68 C                     0.248552       0.065902
     69 C                    -0.226989       0.053409
     70 C                    -0.222499      -0.091166
     71 C                    -0.228353       0.057999
     72 C                    -0.254062      -0.084407
     73 C                    -0.254158      -0.080302
     74 C                    -0.226882       0.053620
     75 C                    -0.222490      -0.091870
     76 C                    -0.228364       0.058469
     77 H                     0.231446       0.000325
     78 H                     0.230547       0.000322
     79 H                     0.245652      -0.000666
     80 H                     0.245194      -0.000747
     81 H                     0.231876       0.001416
     82 H                     0.245687      -0.000728
     83 H                     0.231670       0.001407
     84 H                     0.245592      -0.000721
     85 H                     0.251502       0.000000
     86 H                     0.252883       0.000000
     87 H                     0.229142       0.000000
     88 H                     0.225385       0.000000
     89 H                     0.228653      -0.000000
     90 H                     0.251783       0.000000
     91 H                     0.253994       0.000000
     92 H                     0.228785       0.000000
     93 H                     0.224773       0.000000
     94 H                     0.228060      -0.000000
     95 H                     0.223551       0.002726
     96 H                     0.190129       0.000153
     97 H                     0.188284       0.000633
     98 H                     0.221900       0.002703
     99 H                     0.224391      -0.005174
    100 H                     0.229792       0.002621
    101 H                     0.223466      -0.004744
    102 H                     0.223717      -0.003545
    103 H                     0.224635       0.002169
    104 H                     0.208636      -0.003842
    105 H                     0.229878       0.002654
    106 H                     0.225599      -0.005217
    107 H                     0.223437      -0.004801
    108 H                     0.205915      -0.003977
    109 H                     0.223776       0.002230
    110 H                     0.223432      -0.003684
    111 H                     0.279547       0.008558
    112 H                     0.279443       0.008534
    113 H                     0.238504       0.002746
    114 H                     0.274876       0.001580
    115 H                     0.272141       0.000680
    116 H                     0.273262       0.000561
    117 H                     0.238299       0.002703
    118 H                     0.272130       0.001824
    119 H                     0.279069       0.004453
    120 H                     0.273054       0.004225
    121 H                     0.258445      -0.002783
    122 H                     0.258030       0.005031
    123 H                     0.260747      -0.003264
    124 H                     0.279251       0.004389
    125 H                     0.272838       0.004237
    126 H                     0.258214      -0.002784
    127 H                     0.258164       0.005068
    128 H                     0.261341      -0.003296
  --------------------------------------------------------
  Sum of atomic charges =    -0.000000

                    Cartesian Multipole Moments
 -----------------------------------------------------------------
    Charge (ESU x 10^10)
                -0.0000
    Dipole Moment (Debye)
         X     -11.2318      Y     -11.3965      Z     -20.6586
       Tot      26.1306
    Quadrupole Moments (Debye-Ang)
        XX    -260.7366     XY     137.8141     YY    -337.9037
        XZ     185.7342     YZ     115.6902     ZZ    -297.2325

 Total job time:  117787.90s(wall), 566768.69s(cpu)
        *  Thank you very much for using Q-Chem.  Have a nice day.  *
