 Q-Chem 5.0, Q-Chem, Inc., Pleasanton, CA (2017)
 Q-Chem 5.0.1 for Intel X86 EM64T Linux

User input:
--------------------------------------------------------------
$rem
threads 8
jobtype	sp
method PBEh-3c
basis def2-mSVP
mem_static	1024
mem_total	8000
sym_ignore	true
unrestricted true
scf_convergence	9
solvent_method	pcm
$end

$molecule
read incoords.mol
$end

$solvent
dielectric	1.0001
$end

$pcm
theory iefpcm
$end
--------------------------------------------------------------

   17   -2927.8598913333      9.10E-10 Convergence criterion met
 Total energy in the final basis set = -2927.85989133
 Total job time:  3323.60s(wall), 14141.78s(cpu)
        *  Thank you very much for using Q-Chem.  Have a nice day.  *
 Q-Chem 5.0, Q-Chem, Inc., Pleasanton, CA (2017)
 Q-Chem 5.0.1 for Intel X86 EM64T Linux

User input:
--------------------------------------------------------------

$rem
threads 8
jobtype opt
method PBEh-3c
basis def2-mSVP
scf_guess	read
mem_static      1024
mem_total       8000
sym_ignore      true
unrestricted true
mom_start       1
scf_algorithm	diis
scf_max_cycles	250
solvent_method	pcm
geom_opt_tol_energy 25
geom_opt_tol_gradient 75
$end

$solvent
dielectric      1.0001
$end

$pcm
theory iefpcm
$end

$occupied
1 2 3 4 5 6 7 8 9 10 11 12 13 14 15 16 17 18 19 20 21 22 23 24 25 26 27 28 29 30 31 32 33 34 35 36 37 38 39 40 41 42 43 44 45 46 47 48 49 50 51 52 53 54 55 56 57 58 59 60 61 62 63 64 65 66 67 68 69 70 71 72 73 74 75 76 77 78 79 80 81 82 83 84 85 86 87 88 89 90 91 92 93 94 95 96 97 98 99 100 101 102 103 104 105 106 107 108 109 110 111 112 113 114 115 116 117 118 119 120 121 122 123 124 125 126 127 128 129 130 131 132 133 134 135 136 137 138 139 140 141 142 143 144 145 146 147 148 149 150 151 152 153 154 155 156 157 158 159 160 161 162 163 164 165 166 167 168 169 170 171 172 173 174 175 176 177 178 179 180 181 182 183 184 185 186 187 188 189 190 191 192 193 194 195 196 197 198 199 200 201 202 203 204 205 206 207 208 209 210 211 212 213 214 215 216 217 218 219 220 221 222 223 224 225 226 227 228 229 230 231 232 233 234 235 236 237 238 239 240 241 242 243 244 245 246 247 248 249 250 251 252 253  255
1 2 3 4 5 6 7 8 9 10 11 12 13 14 15 16 17 18 19 20 21 22 23 24 25 26 27 28 29 30 31 32 33 34 35 36 37 38 39 40 41 42 43 44 45 46 47 48 49 50 51 52 53 54 55 56 57 58 59 60 61 62 63 64 65 66 67 68 69 70 71 72 73 74 75 76 77 78 79 80 81 82 83 84 85 86 87 88 89 90 91 92 93 94 95 96 97 98 99 100 101 102 103 104 105 106 107 108 109 110 111 112 113 114 115 116 117 118 119 120 121 122 123 124 125 126 127 128 129 130 131 132 133 134 135 136 137 138 139 140 141 142 143 144 145 146 147 148 149 150 151 152 153 154 155 156 157 158 159 160 161 162 163 164 165 166 167 168 169 170 171 172 173 174 175 176 177 178 179 180 181 182 183 184 185 186 187 188 189 190 191 192 193 194 195 196 197 198 199 200 201 202 203 204 205 206 207 208 209 210 211 212 213 214 215 216 217 218 219 220 221 222 223 224 225 226 227 228 229 230 231 232 233 234 235 236 237 238 239 240 241 242 243 244 245 246 247 248 249 250 251 252 253 254
$end

$molecule
read incoords.mol
$end

--------------------------------------------------------------

   20   -2927.7812192563      9.84E-09 Convergence criterion met
 Total energy in the final basis set = -2927.78121926
   14   -2927.7813244271      9.57E-09 Convergence criterion met
 Total energy in the final basis set = -2927.78132443
   14   -2927.7813011446      8.76E-09 Convergence criterion met
 Total energy in the final basis set = -2927.78130114
   13   -2927.7813174508      7.03E-09 Convergence criterion met
 Total energy in the final basis set = -2927.78131745
   13   -2927.7813592329      5.14E-09 Convergence criterion met
 Total energy in the final basis set = -2927.78135923
   13   -2927.7814885394      7.66E-09 Convergence criterion met
 Total energy in the final basis set = -2927.78148854
   18   -2927.7675649359      7.27E-09 Convergence criterion met
   10   -2927.7853252829      5.87E-09 Convergence criterion met
 Total energy in the final basis set = -2927.78532528
   10   -2927.7853348329      5.46E-09 Convergence criterion met
 Total energy in the final basis set = -2927.78533483
    9   -2927.7853363385      8.60E-09 Convergence criterion met
 Total energy in the final basis set = -2927.78533634
    8   -2927.7853368350      9.23E-09 Convergence criterion met
 Total energy in the final basis set = -2927.78533683
    8   -2927.7853317824      9.27E-09 Convergence criterion met
 Total energy in the final basis set = -2927.78533178
    8   -2927.7853300495      8.10E-09 Convergence criterion met
 Total energy in the final basis set = -2927.78533005

             Standard Nuclear Orientation (Angstroms)
    I     Atom           X                Y                Z
 ----------------------------------------------------------------
    1      C      -4.8471693142    -0.3778962065     4.4996669818
    2      C      -5.4480334115    -0.9466538879     3.3839562549
    3      C      -4.7407356523    -1.0644183328     2.1816329397
    4      C      -3.4284581560    -0.5782240108     2.1226575606
    5      C      -2.8477111758     0.0134556175     3.2370139270
    6      C      -3.5481032650     0.1066004902     4.4327726467
    7      N      -2.9414630644     0.6812255284     5.5727837377
    8      C      -6.8568221042    -1.4648924932     3.4754815503
    9      C      -2.6507183556    -0.6970788945     0.8417729324
   10      C      -1.6858925193     0.2217953803     5.9873980332
   11      C      -0.7661947388     1.0899873177     6.5778512986
   12      C      -4.4616072329     2.5606549685     5.6969264804
   13      C      -3.6717077438     1.6031342461     6.3348064206
   14      C      -5.2244472956     3.4454206023     6.4383770976
   15      C      -5.2025735344     3.4087805970     7.8253758955
   16      C      -4.4106647642     2.4648687298     8.4620508489
   17      C      -3.6580325294     1.5622192625     7.7289552466
   18      C      -1.3253105542    -1.1135257362     5.7988341296
   19      C      -0.0744795624    -1.5617571958     6.1859516263
   20      C       0.8333197641    -0.7003076134     6.7842091968
   21      C       0.4742427946     0.6254350081     6.9801694164
   22      C      -6.7340450534    -1.6547791381    -1.2574517387
   23      C      -6.1598170410    -0.9798708494    -0.1373614569
   24      B      -5.3929903142    -1.7780902425     0.9321606388
   25      C      -5.2585944674    -3.3054458481     0.7832646512
   26      C      -5.8336339472    -3.9764324908    -0.3376682473
   27      B      -6.5861672598    -3.1673607776    -1.3850459988
   28      C      -4.5717067511    -4.0615054428     1.7526887967
   29      C      -4.4527000613    -5.4257762521     1.6298995043
   30      C      -5.0284228995    -6.0905646327     0.5077849353
   31      C      -5.6998019854    -5.3771886578    -0.4492464646
   32      C      -7.4372110669    -0.9076640505    -2.2251987360
   33      C      -7.5702902091     0.4491787722    -2.0984089022
   34      C      -6.9966002849     1.1308194465    -0.9860612650
   35      C      -6.3089612152     0.4169665762    -0.0306996980
   36      C      -3.1096344828    -6.4337423674     3.6451689176
   37      C      -2.6326148802    -7.6629092562     4.1568652622
   38      C      -2.8444297040    -8.8645616163     3.5224825612
   39      C      -3.5666686608    -8.9018993290     2.3056085176
   40      C      -4.0235358830    -7.6771980030     1.8259183694
   41      C      -3.8130545643    -6.4387549803     2.4670947462
   42      C      -3.8761094323   -10.0383649002     1.5195508676
   43      C      -4.5901868415    -9.8955837235     0.3525565738
   44      C      -5.0406347070    -8.6388630546    -0.1113310767
   45      C      -4.7552506324    -7.5211295464     0.6324660842
   46      C      -7.5291569105     4.9269833091    -0.9014655537
   47      C      -7.0404881190     3.6915272498    -0.4159236008
   48      C      -7.3046694567     2.5525196377    -1.1330469199
   49      C      -8.0541378226     2.6787154122    -2.3220656098
   50      C      -8.5501641720     3.8777016095    -2.8235295109
   51      C      -8.2604514960     5.0353892187    -2.0615673958
   52      C      -8.2427228305     1.4288662817    -2.9433221061
   53      C      -8.9581804656     1.3738516156    -4.1126732899
   54      C      -9.4740318754     2.5766755538    -4.6442011186
   55      C      -9.2841074383     3.7942868561    -4.0320256898
   56      C      -9.1838862504    -4.9561475861    -3.6255303698
   57      C      -8.5878344198    -4.3767301689    -2.5363712256
   58      C      -7.2472602770    -3.9000385494    -2.6160609316
   59      C      -6.5303071036    -4.0720562742    -3.8351968541
   60      C      -7.1393749383    -4.6384838289    -4.9239055403
   61      C      -8.4799948088    -5.0811608074    -4.8456600945
   62      N      -9.0906215152    -5.6149871481    -5.9407562548
   63      C      -9.3476254040    -4.2008950033    -1.2609673076
   64      C      -5.1041219911    -3.6292489925    -3.9086171505
   65      C      -8.6664173961    -5.2910928585    -7.2526460198
   66      C      -8.4768143204    -3.9604187716    -7.6146621626
   67      C     -11.3193715639    -6.3111664008    -6.5994091671
   68      C     -10.1838602069    -6.5067608046    -5.8190019615
   69      C     -12.3746996501    -7.2004394443    -6.5011829373
   70      C     -12.3010509638    -8.2820098270    -5.6340136435
   71      C     -11.1638790046    -8.4756441719    -4.8634908440
   72      C     -10.0996229310    -7.5947405960    -4.9553033875
   73      C      -8.4851473923    -6.3089416040    -8.1841530417
   74      C      -8.0950923144    -5.9913106793    -9.4727825076
   75      C      -7.8911636608    -4.6671301090    -9.8368114193
   76      C      -8.0838906241    -3.6556003413    -8.9070068396
   77      H      -5.3975228061    -0.3092891256     5.4310343112
   78      H      -1.8348307110     0.3952836792     3.1809940245
   79      H      -6.8973367579    -2.5405695674     3.2911664944
   80      H      -7.5002679669    -0.9944054504     2.7294488955
   81      H      -7.2923771654    -1.2778671850     4.4568728764
   82      H      -2.5384686092    -1.7426625968     0.5463151196
   83      H      -1.6530404033    -0.2675568625     0.9316122283
   84      H      -3.1613682173    -0.1924036641     0.0193406782
   85      H      -1.0255580409     2.1314440882     6.7167993844
   86      H      -4.4848250694     2.5975451572     4.6154542603
   87      H      -5.8361187842     4.1758744741     5.9245148276
   88      H      -5.7978426437     4.1042378706     8.4016687451
   89      H      -4.3907295044     2.4141660400     9.5431345107
   90      H      -3.0636993359     0.8147680107     8.2381374505
   91      H      -2.0274363130    -1.7988845578     5.3424458769
   92      H       0.1865535339    -2.6003148441     6.0271394278
   93      H       1.8076950009    -1.0564619598     7.0905024886
   94      H       1.1736351025     1.3142238471     7.4363272132
   95      H      -4.1354643359    -3.5508312275     2.6043144996
   96      H      -6.1331471034    -5.8982580819    -1.2997454761
   97      H      -7.8801596426    -1.4122758517    -3.0802553535
   98      H      -5.8716787701     0.9251613000     0.8225520895
   99      H      -2.9141603067    -5.5173883687     4.1873364710
  100      H      -2.0783862985    -7.6537378497     5.0866455879
  101      H      -2.4589787246    -9.7810073060     3.9525943729
  102      H      -3.5506546126   -11.0220660897     1.8359942242
  103      H      -4.8160840452   -10.7765372830    -0.2355055899
  104      H      -5.5969248497    -8.5817598656    -1.0393628158
  105      H      -7.3168274536     5.8227451067    -0.3320428623
  106      H      -6.4716796241     3.6645057096     0.5047876066
  107      H      -8.6131975501     6.0049418729    -2.3909950039
  108      H      -9.1351663258     0.4384485044    -4.6303537440
  109      H     -10.0400115833     2.5365393448    -5.5665887343
  110      H      -9.6991008029     4.6907487655    -4.4764024939
  111      H     -10.2199411056    -5.2656331491    -3.5731458416
  112      H      -6.5822587361    -4.7866903835    -5.8399836394
  113      H     -10.3592189767    -4.5988540434    -1.3331591984
  114      H      -9.4070066779    -3.1456177509    -0.9907946094
  115      H      -8.8342802759    -4.7018138756    -0.4387732694
  116      H      -5.0274559580    -2.5588386235    -3.7112207159
  117      H      -4.6660654900    -3.8343690729    -4.8846578054
  118      H      -4.5048503163    -4.1279105212    -3.1458136737
  119      H      -8.6496007677    -3.1711475843    -6.8944657031
  120      H     -11.3783917259    -5.4649090298    -7.2714261928
  121      H     -13.2611701910    -7.0443316147    -7.1007235167
  122      H     -13.1281552400    -8.9751715863    -5.5618366625
  123      H     -11.0974898343    -9.3238475659    -4.1959068178
  124      H      -9.2030992036    -7.7572871571    -4.3711126130
  125      H      -8.6409549680    -7.3410468789    -7.8984575632
  126      H      -7.9441498679    -6.7824232371   -10.1946702011
  127      H      -7.5870711017    -4.4242132501   -10.8458800332
  128      H      -7.9393407595    -2.6218864995    -9.1896901426
 ----------------------------------------------------------------

    7   -2927.7853287863      7.30E-09 Convergence criterion met
 Total energy in the final basis set = -2927.78532879
 Final energy is   -2927.78532878630
 **  OPTIMIZATION CONVERGED  **

                    Orbital Energies (a.u.)
 --------------------------------------------------------------

 Alpha MOs
 -- Occupied --
-14.770 -14.649 -10.562 -10.551 -10.551 -10.505 -10.505 -10.505
-10.505 -10.500 -10.500 -10.500 -10.500 -10.499 -10.498 -10.498
-10.498 -10.492 -10.492 -10.475 -10.472 -10.472 -10.456 -10.444
-10.443 -10.442 -10.442 -10.441 -10.441 -10.440 -10.440 -10.439
-10.438 -10.437 -10.437 -10.437 -10.436 -10.436 -10.436 -10.436
-10.435 -10.435 -10.435 -10.431 -10.430 -10.430 -10.429 -10.428
-10.427 -10.426 -10.426 -10.426 -10.425 -10.425 -10.425 -10.425
-10.425 -10.424 -10.424 -10.423 -10.423 -10.423 -10.423 -10.419
-10.418 -10.409 -10.409 -10.401 -10.400 -10.399 -10.399 -10.394
-10.393 -10.389  -6.894  -6.888  -1.159  -1.059  -1.018  -1.014
 -0.990  -0.988  -0.988  -0.942  -0.936  -0.931  -0.929  -0.919
 -0.917  -0.912  -0.910  -0.909  -0.905  -0.894  -0.893  -0.877
 -0.869  -0.849  -0.845  -0.836  -0.832  -0.826  -0.825  -0.824
 -0.823  -0.819  -0.817  -0.804  -0.795  -0.791  -0.787  -0.785
 -0.778  -0.773  -0.763  -0.759  -0.740  -0.739  -0.737  -0.733
 -0.707  -0.705  -0.702  -0.694  -0.692  -0.686  -0.686  -0.685
 -0.664  -0.662  -0.658  -0.657  -0.653  -0.648  -0.641  -0.637
 -0.622  -0.618  -0.617  -0.616  -0.616  -0.605  -0.592  -0.589
 -0.588  -0.574  -0.571  -0.570  -0.568  -0.566  -0.563  -0.559
 -0.556  -0.551  -0.549  -0.546  -0.545  -0.541  -0.540  -0.537
 -0.529  -0.520  -0.518  -0.514  -0.512  -0.506  -0.504  -0.501
 -0.501  -0.500  -0.494  -0.490  -0.486  -0.484  -0.481  -0.481
 -0.478  -0.477  -0.475  -0.473  -0.468  -0.468  -0.467  -0.465
 -0.465  -0.464  -0.464  -0.463  -0.458  -0.458  -0.457  -0.457
 -0.455  -0.453  -0.449  -0.446  -0.446  -0.446  -0.441  -0.440
 -0.437  -0.433  -0.430  -0.420  -0.420  -0.419  -0.414  -0.414
 -0.407  -0.406  -0.405  -0.402  -0.398  -0.396  -0.393  -0.390
 -0.389  -0.383  -0.378  -0.376  -0.374  -0.373  -0.372  -0.372
 -0.368  -0.363  -0.359  -0.359  -0.351  -0.347  -0.345  -0.344
 -0.343  -0.335  -0.323  -0.322  -0.321  -0.309  -0.306  -0.296
 -0.289  -0.284  -0.280  -0.275  -0.275  -0.273  -0.258  -0.257
 -0.248  -0.242  -0.231  -0.226  -0.198  -0.140

 Beta MOs
 -- Occupied --
-14.778 -14.649 -10.563 -10.550 -10.550 -10.507 -10.506 -10.506
-10.506 -10.500 -10.500 -10.500 -10.499 -10.499 -10.499 -10.497
-10.497 -10.494 -10.494 -10.481 -10.472 -10.472 -10.456 -10.444
-10.443 -10.442 -10.442 -10.441 -10.441 -10.440 -10.440 -10.438
-10.438 -10.438 -10.438 -10.437 -10.437 -10.436 -10.436 -10.435
-10.435 -10.434 -10.434 -10.431 -10.430 -10.430 -10.429 -10.427
-10.427 -10.426 -10.425 -10.425 -10.425 -10.425 -10.425 -10.424
-10.424 -10.424 -10.423 -10.423 -10.423 -10.423 -10.422 -10.420
-10.419 -10.409 -10.409 -10.401 -10.401 -10.399 -10.399 -10.393
-10.392 -10.389  -6.890  -6.886  -1.172  -1.059  -1.019  -1.017
 -0.995  -0.988  -0.987  -0.942  -0.936  -0.930  -0.928  -0.920
 -0.917  -0.916  -0.909  -0.908  -0.906  -0.895  -0.894  -0.877
 -0.869  -0.856  -0.844  -0.836  -0.832  -0.825  -0.824  -0.823
 -0.822  -0.819  -0.817  -0.808  -0.799  -0.789  -0.786  -0.784
 -0.778  -0.772  -0.767  -0.761  -0.742  -0.739  -0.737  -0.734
 -0.706  -0.703  -0.701  -0.694  -0.693  -0.687  -0.686  -0.685
 -0.663  -0.662  -0.659  -0.656  -0.653  -0.647  -0.642  -0.635
 -0.622  -0.618  -0.618  -0.617  -0.616  -0.607  -0.602  -0.589
 -0.587  -0.575  -0.570  -0.569  -0.569  -0.565  -0.561  -0.559
 -0.556  -0.552  -0.549  -0.548  -0.545  -0.541  -0.541  -0.538
 -0.529  -0.520  -0.519  -0.515  -0.514  -0.509  -0.506  -0.502
 -0.501  -0.500  -0.495  -0.493  -0.490  -0.485  -0.483  -0.480
 -0.477  -0.477  -0.475  -0.474  -0.471  -0.468  -0.468  -0.468
 -0.465  -0.464  -0.464  -0.463  -0.458  -0.457  -0.456  -0.456
 -0.455  -0.454  -0.453  -0.448  -0.446  -0.446  -0.441  -0.440
 -0.437  -0.433  -0.429  -0.422  -0.420  -0.420  -0.415  -0.414
 -0.409  -0.407  -0.405  -0.402  -0.402  -0.396  -0.393  -0.392
 -0.389  -0.383  -0.377  -0.376  -0.374  -0.372  -0.371  -0.370
 -0.367  -0.364  -0.362  -0.358  -0.354  -0.351  -0.346  -0.343
 -0.339  -0.337  -0.334  -0.328  -0.320  -0.312  -0.308  -0.289
 -0.285  -0.285  -0.284  -0.280  -0.275  -0.272  -0.271  -0.257
 -0.248  -0.247  -0.234  -0.228  -0.219  -0.198

          Ground-State Mulliken Net Atomic Charges

     Atom                 Charge (a.u.)    Spin (a.u.)
  --------------------------------------------------------
      1 C                    -0.348449      -0.000791
      2 C                     0.049500       0.002835
      3 C                    -0.194208      -0.023636
      4 C                     0.049373       0.002794
      5 C                    -0.346804      -0.000838
      6 C                     0.272241      -0.000391
      7 N                    -0.671647      -0.001905
      8 C                    -0.752943       0.000593
      9 C                    -0.753390       0.000677
     10 C                     0.310773       0.000418
     11 C                    -0.285270      -0.000663
     12 C                    -0.276790      -0.000677
     13 C                     0.300835       0.000410
     14 C                    -0.211917       0.000477
     15 C                    -0.240483      -0.000806
     16 C                    -0.214247       0.000439
     17 C                    -0.285713      -0.000638
     18 C                    -0.285069      -0.000704
     19 C                    -0.211686       0.000493
     20 C                    -0.241747      -0.000843
     21 C                    -0.213574       0.000463
     22 C                    -0.123920      -0.035185
     23 C                    -0.145703       0.083209
     24 B                     0.609795       0.252375
     25 C                    -0.145488       0.083781
     26 C                    -0.124739      -0.040027
     27 B                     0.542718       0.398363
     28 C                    -0.396630      -0.074651
     29 C                     0.096597       0.114316
     30 C                     0.080265       0.010580
     31 C                    -0.401887       0.010196
     32 C                    -0.395425       0.006333
     33 C                     0.078956       0.014084
     34 C                     0.100312       0.113962
     35 C                    -0.402544      -0.074248
     36 C                    -0.392558       0.088748
     37 C                    -0.199841      -0.054089
     38 C                    -0.346229       0.080062
     39 C                     0.252714      -0.036000
     40 C                    -0.075320       0.022561
     41 C                     0.198638      -0.061338
     42 C                    -0.342757       0.054662
     43 C                    -0.201323      -0.040108
     44 C                    -0.389904       0.057794
     45 C                     0.199753      -0.036394
     46 C                    -0.199139      -0.055046
     47 C                    -0.394156       0.090052
     48 C                     0.197258      -0.061841
     49 C                    -0.075367       0.023003
     50 C                     0.254419      -0.036895
     51 C                    -0.348129       0.081455
     52 C                     0.197988      -0.037843
     53 C                    -0.386814       0.060213
     54 C                    -0.201987      -0.041571
     55 C                    -0.342823       0.057252
     56 C                    -0.363022      -0.117410
     57 C                     0.064596       0.085550
     58 C                    -0.129037      -0.434183
     59 C                     0.065940       0.085743
     60 C                    -0.361329      -0.117778
     61 C                     0.350412      -0.091185
     62 N                    -0.600736      -0.290450
     63 C                    -0.748771      -0.003232
     64 C                    -0.746902      -0.003565
     65 C                     0.247099       0.059533
     66 C                    -0.249798      -0.071986
     67 C                    -0.249872      -0.068103
     68 C                     0.249794       0.059552
     69 C                    -0.217111       0.044809
     70 C                    -0.215824      -0.075226
     71 C                    -0.218765       0.048980
     72 C                    -0.251699      -0.071515
     73 C                    -0.249614      -0.068128
     74 C                    -0.217147       0.044875
     75 C                    -0.215815      -0.075574
     76 C                    -0.218894       0.049233
     77 H                     0.224397       0.000330
     78 H                     0.223010       0.000329
     79 H                     0.244362      -0.000652
     80 H                     0.243432      -0.000741
     81 H                     0.226148       0.001381
     82 H                     0.244115      -0.000732
     83 H                     0.225820       0.001367
     84 H                     0.244197      -0.000692
     85 H                     0.243925       0.000035
     86 H                     0.245442       0.000037
     87 H                     0.215272      -0.000025
     88 H                     0.211785       0.000045
     89 H                     0.214849      -0.000022
     90 H                     0.244669       0.000034
     91 H                     0.247011       0.000038
     92 H                     0.214953      -0.000026
     93 H                     0.211209       0.000047
     94 H                     0.214178      -0.000023
     95 H                     0.220084       0.003167
     96 H                     0.173878      -0.000593
     97 H                     0.171454      -0.000061
     98 H                     0.217895       0.003179
     99 H                     0.211056      -0.005278
    100 H                     0.216319       0.002647
    101 H                     0.208715      -0.004825
    102 H                     0.208805      -0.003225
    103 H                     0.208841       0.002045
    104 H                     0.189987      -0.003495
    105 H                     0.216281       0.002695
    106 H                     0.212256      -0.005349
    107 H                     0.208677      -0.004910
    108 H                     0.186183      -0.003657
    109 H                     0.207604       0.002118
    110 H                     0.208530      -0.003386
    111 H                     0.268174       0.007385
    112 H                     0.267926       0.007360
    113 H                     0.228625       0.003003
    114 H                     0.280318       0.000209
    115 H                     0.277464      -0.000712
    116 H                     0.278381      -0.000906
    117 H                     0.228495       0.002967
    118 H                     0.277228       0.000515
    119 H                     0.268775       0.003838
    120 H                     0.260224       0.003656
    121 H                     0.245780      -0.002348
    122 H                     0.245738       0.004196
    123 H                     0.249082      -0.002838
    124 H                     0.268283       0.003792
    125 H                     0.259805       0.003660
    126 H                     0.245488      -0.002346
    127 H                     0.245848       0.004215
    128 H                     0.250003      -0.002857
  --------------------------------------------------------
  Sum of atomic charges =    -0.000000

                    Cartesian Multipole Moments
 -----------------------------------------------------------------
    Charge (ESU x 10^10)
                -0.0000
    Dipole Moment (Debye)
         X      -9.7749      Y      -9.9250      Z     -17.9056
       Tot      22.6862
    Quadrupole Moments (Debye-Ang)
        XX    -285.0385     XY     120.4810     YY    -353.2095
        XZ     160.0518     YZ     100.0854     ZZ    -317.9008

 Total job time:  91951.31s(wall), 380643.73s(cpu)
        *  Thank you very much for using Q-Chem.  Have a nice day.  *
