 Q-Chem 5.0, Q-Chem, Inc., Pleasanton, CA (2017)
 Q-Chem 5.0.1 for Intel X86 EM64T Linux

User input:
--------------------------------------------------------------
$rem
threads 8
jobtype	sp
method PBEh-3c
basis def2-mSVP
mem_static	1024
mem_total	8000
sym_ignore	true
unrestricted true
scf_convergence	9
solvent_method	pcm
$end

$molecule
read incoords.mol
$end

$solvent
dielectric	2.38
$end

$pcm
theory iefpcm
$end
--------------------------------------------------------------

   17   -2927.8771794479      4.59E-10 Convergence criterion met
 Total energy in the final basis set = -2927.87717945
 Total job time:  3326.72s(wall), 14036.93s(cpu)
        *  Thank you very much for using Q-Chem.  Have a nice day.  *
 Q-Chem 5.0, Q-Chem, Inc., Pleasanton, CA (2017)
 Q-Chem 5.0.1 for Intel X86 EM64T Linux

User input:
--------------------------------------------------------------

$rem
threads 8
jobtype opt
method PBEh-3c
basis def2-mSVP
scf_guess	read
mem_static      1024
mem_total       8000
sym_ignore      true
unrestricted true
mom_start       1
scf_algorithm	diis
scf_max_cycles	250
solvent_method	pcm
geom_opt_tol_energy 25
geom_opt_tol_gradient 75
$end

$solvent
dielectric      2.38
$end

$pcm
theory iefpcm
$end

$occupied
1 2 3 4 5 6 7 8 9 10 11 12 13 14 15 16 17 18 19 20 21 22 23 24 25 26 27 28 29 30 31 32 33 34 35 36 37 38 39 40 41 42 43 44 45 46 47 48 49 50 51 52 53 54 55 56 57 58 59 60 61 62 63 64 65 66 67 68 69 70 71 72 73 74 75 76 77 78 79 80 81 82 83 84 85 86 87 88 89 90 91 92 93 94 95 96 97 98 99 100 101 102 103 104 105 106 107 108 109 110 111 112 113 114 115 116 117 118 119 120 121 122 123 124 125 126 127 128 129 130 131 132 133 134 135 136 137 138 139 140 141 142 143 144 145 146 147 148 149 150 151 152 153 154 155 156 157 158 159 160 161 162 163 164 165 166 167 168 169 170 171 172 173 174 175 176 177 178 179 180 181 182 183 184 185 186 187 188 189 190 191 192 193 194 195 196 197 198 199 200 201 202 203 204 205 206 207 208 209 210 211 212 213 214 215 216 217 218 219 220 221 222 223 224 225 226 227 228 229 230 231 232 233 234 235 236 237 238 239 240 241 242 243 244 245 246 247 248 249 250 251 252 253  255
1 2 3 4 5 6 7 8 9 10 11 12 13 14 15 16 17 18 19 20 21 22 23 24 25 26 27 28 29 30 31 32 33 34 35 36 37 38 39 40 41 42 43 44 45 46 47 48 49 50 51 52 53 54 55 56 57 58 59 60 61 62 63 64 65 66 67 68 69 70 71 72 73 74 75 76 77 78 79 80 81 82 83 84 85 86 87 88 89 90 91 92 93 94 95 96 97 98 99 100 101 102 103 104 105 106 107 108 109 110 111 112 113 114 115 116 117 118 119 120 121 122 123 124 125 126 127 128 129 130 131 132 133 134 135 136 137 138 139 140 141 142 143 144 145 146 147 148 149 150 151 152 153 154 155 156 157 158 159 160 161 162 163 164 165 166 167 168 169 170 171 172 173 174 175 176 177 178 179 180 181 182 183 184 185 186 187 188 189 190 191 192 193 194 195 196 197 198 199 200 201 202 203 204 205 206 207 208 209 210 211 212 213 214 215 216 217 218 219 220 221 222 223 224 225 226 227 228 229 230 231 232 233 234 235 236 237 238 239 240 241 242 243 244 245 246 247 248 249 250 251 252 253 254
$end

$molecule
read incoords.mol
$end

--------------------------------------------------------------

   20   -2927.8089961354      9.20E-09 Convergence criterion met
 Total energy in the final basis set = -2927.80899614
   17   -2927.8091498173      8.56E-09 Convergence criterion met
 Total energy in the final basis set = -2927.80914982
   17   -2927.8091155830      7.85E-09 Convergence criterion met
 Total energy in the final basis set = -2927.80911558
   17   -2927.8091496331      7.61E-09 Convergence criterion met
 Total energy in the final basis set = -2927.80914963
   17   -2927.8091764743      7.52E-09 Convergence criterion met
 Total energy in the final basis set = -2927.80917647
   17   -2927.8092851428      7.34E-09 Convergence criterion met
 Total energy in the final basis set = -2927.80928514
   17   -2927.8094249401      7.36E-09 Convergence criterion met
   17   -2927.8127502660      7.71E-09 Convergence criterion met
 Total energy in the final basis set = -2927.81275027
   17   -2927.8127610583      7.81E-09 Convergence criterion met
 Total energy in the final basis set = -2927.81276106
   17   -2927.8127715161      7.82E-09 Convergence criterion met
 Total energy in the final basis set = -2927.81277152
   17   -2927.8127764416      7.92E-09 Convergence criterion met
 Total energy in the final basis set = -2927.81277644
   17   -2927.8127800326      8.01E-09 Convergence criterion met
 Total energy in the final basis set = -2927.81278003
   17   -2927.8127797813      8.05E-09 Convergence criterion met
 Total energy in the final basis set = -2927.81277978

             Standard Nuclear Orientation (Angstroms)
    I     Atom           X                Y                Z
 ----------------------------------------------------------------
    1      C      -4.8417349737    -0.3744847545     4.5060979854
    2      C      -5.4456768246    -0.9459775920     3.3924433897
    3      C      -4.7421201801    -1.0665185932     2.1876424177
    4      C      -3.4296295818    -0.5800086263     2.1252635716
    5      C      -2.8456998774     0.0145168580     3.2373821162
    6      C      -3.5428552544     0.1105170086     4.4350838187
    7      N      -2.9334941332     0.6893316087     5.5718261904
    8      C      -6.8546100327    -1.4630576601     3.4914062569
    9      C      -2.6526972323    -0.6994493115     0.8436379156
   10      C      -1.6768975307     0.2308749259     5.9859839385
   11      C      -0.7531320933     1.1034569961     6.5643565981
   12      C      -4.4479929870     2.5745718449     5.6945466462
   13      C      -3.6620755227     1.6138609644     6.3332728273
   14      C      -5.2088968036     3.4624931478     6.4355655821
   15      C      -5.1884077214     3.4252683117     7.8232492016
   16      C      -4.4000019395     2.4779801320     8.4607949100
   17      C      -3.6496736644     1.5724101037     7.7277118324
   18      C      -1.3194413383    -1.1071347794     5.8086156314
   19      C      -0.0668893289    -1.5541810975     6.1942348142
   20      C       0.8455278051    -0.6879164435     6.7799143180
   21      C       0.4891718226     0.6408326792     6.9654258340
   22      C      -6.7402347435    -1.6568027741    -1.2513139675
   23      C      -6.1652826819    -0.9821830038    -0.1296033984
   24      B      -5.3986895923    -1.7809036309     0.9388796633
   25      C      -5.2672152774    -3.3078005555     0.7893567029
   26      C      -5.8447790314    -3.9774381236    -0.3329747626
   27      B      -6.5980709096    -3.1717202478    -1.3852800286
   28      C      -4.5802896452    -4.0662630994     1.7584870666
   29      C      -4.4636821348    -5.4306442722     1.6344933701
   30      C      -5.0419657231    -6.0940540225     0.5115846818
   31      C      -5.7133554731    -5.3779997198    -0.4449275388
   32      C      -7.4406707477    -0.9080526022    -2.2192424230
   33      C      -7.5731955920     0.4499385728    -2.0918098539
   34      C      -7.0006600788     1.1305456707    -0.9770359731
   35      C      -6.3138613878     0.4158144924    -0.0218585391
   36      C      -3.1189076487    -6.4417929841     3.6485795272
   37      C      -2.6432879635    -7.6727090031     4.1587312857
   38      C      -2.8579989282    -8.8742319338     3.5231541161
   39      C      -3.5820385704    -8.9091938198     2.3066956469
   40      C      -4.0379306278    -7.6829518380     1.8282790296
   41      C      -3.8244355922    -6.4452899482     2.4707535029
   42      C      -3.8935294614   -10.0455128958     1.5199322077
   43      C      -4.6089501166    -9.9003281356     0.3531300047
   44      C      -5.0585357313    -8.6423469210    -0.1100766611
   45      C      -4.7708888640    -7.5249274870     0.6350377642
   46      C      -7.5335879484     4.9277062523    -0.8862099748
   47      C      -7.0455125094     3.6911329101    -0.4014773983
   48      C      -7.3083002196     2.5529923733    -1.1220354525
   49      C      -8.0556647205     2.6804941338    -2.3125843551
   50      C      -8.5508004593     3.8809091398    -2.8131353085
   51      C      -8.2629076473     5.0378731481    -2.0484407716
   52      C      -8.2434680542     1.4310933167    -2.9365395008
   53      C      -8.9567546061     1.3779321499    -4.1083540094
   54      C      -9.4710666556     2.5827212497    -4.6387121509
   55      C      -9.2826033248     3.8001121840    -4.0239468103
   56      C      -9.1922431250    -4.9532979227    -3.6409418223
   57      C      -8.5982223857    -4.3710737134    -2.5489800650
   58      C      -7.2583833787    -3.9041841972    -2.6222711864
   59      C      -6.5356941713    -4.0817329478    -3.8321543927
   60      C      -7.1391818117    -4.6530893383    -4.9245289356
   61      C      -8.4807944719    -5.0880536969    -4.8534777215
   62      N      -9.0871987307    -5.6236306339    -5.9521456228
   63      C      -9.3717214590    -4.1917794862    -1.2801417847
   64      C      -5.1060013340    -3.6445508112    -3.9070824464
   65      C      -8.6675498852    -5.2853119751    -7.2596533548
   66      C      -8.4694581102    -3.9498850889    -7.6029108922
   67      C     -11.2996845076    -6.3493860909    -6.6254131770
   68      C     -10.1686177581    -6.5267923613    -5.8320696104
   69      C     -12.3455664920    -7.2492811696    -6.5268773565
   70      C     -12.2651999624    -8.3235644850    -5.6497956485
   71      C     -11.1319290445    -8.4987372614    -4.8677401348
   72      C     -10.0776553523    -7.6057764470    -4.9562688067
   73      C      -8.4970119642    -6.2940690395    -8.2049032723
   74      C      -8.1071596535    -5.9614889842    -9.4895594198
   75      C      -7.8961327244    -4.6327503987    -9.8360784846
   76      C      -8.0800327385    -3.6310920384    -8.8927239476
   77      H      -5.3909392130    -0.3050317662     5.4383097243
   78      H      -1.8329801675     0.3965844667     3.1761340674
   79      H      -6.8971410200    -2.5391217604     3.3097435363
   80      H      -7.5015176471    -0.9945912423     2.7470370278
   81      H      -7.2854337496    -1.2733173005     4.4744133914
   82      H      -2.5381043399    -1.7450723992     0.5491476503
   83      H      -1.6559974886    -0.2672703228     0.9322610657
   84      H      -3.1649356727    -0.1975050906     0.0204580451
   85      H      -1.0089155685     2.1470361760     6.6953510340
   86      H      -4.4703244629     2.6142582013     4.6129265958
   87      H      -5.8172377535     4.1953796810     5.9209614429
   88      H      -5.7818330890     4.1227550648     8.3992900083
   89      H      -4.3810856945     2.4268594761     9.5420011171
   90      H      -3.0591488081     0.8230273648     8.2388508032
   91      H      -2.0239021748    -1.7976402713     5.3633230034
   92      H       0.1914122657    -2.5948574939     6.0442510290
   93      H       1.8210177319    -1.0426876497     7.0848502313
   94      H       1.1916833504     1.3330541741     7.4117776489
   95      H      -4.1413535334    -3.5592278287     2.6110729585
   96      H      -6.1488655347    -5.8960862277    -1.2955452987
   97      H      -7.8818685603    -1.4125731829    -3.0746603235
   98      H      -5.8776278168     0.9256344118     0.8311302671
   99      H      -2.9206352027    -5.5261965990     4.1913638011
  100      H      -2.0877408382    -7.6651117811     5.0878676687
  101      H      -2.4735816298    -9.7919142264     3.9518366166
  102      H      -3.5689639461   -11.0298627204     1.8355383626
  103      H      -4.8368695343   -10.7803026469    -0.2356895852
  104      H      -5.6157636288    -8.5843118014    -1.0375117159
  105      H      -7.3226359440     5.8225556813    -0.3146555222
  106      H      -6.4786824913     3.6629235484     0.5206264936
  107      H      -8.6152845536     6.0078922245    -2.3772725721
  108      H      -9.1326032575     0.4439165539    -4.6288968634
  109      H     -10.0345828305     2.5437870524    -5.5626971459
  110      H      -9.6963472053     4.6976066970    -4.4676045687
  111      H     -10.2309103282    -5.2550901530    -3.5933594408
  112      H      -6.5740727724    -4.8098141157    -5.8344741133
  113      H     -10.3853531089    -4.5813703207    -1.3665040123
  114      H      -9.4301898929    -3.1375790835    -1.0058646786
  115      H      -8.8767670818    -4.7022757518    -0.4525705799
  116      H      -5.0209441674    -2.5738322721    -3.7152939467
  117      H      -4.6720224034    -3.8533834855    -4.8839971142
  118      H      -4.5044839201    -4.1464229208    -3.1481756134
  119      H      -8.6398867368    -3.1683595202    -6.8738510156
  120      H     -11.3655244601    -5.5077303910    -7.3026822889
  121      H     -13.2296900089    -7.1078812971    -7.1335387153
  122      H     -13.0846602658    -9.0261511513    -5.5792011150
  123      H     -11.0608431720    -9.3421313084    -4.1944981437
  124      H      -9.1826606078    -7.7561296822    -4.3664616703
  125      H      -8.6553910963    -7.3294435764    -7.9327354486
  126      H      -7.9619608270    -6.7438142229   -10.2221860780
  127      H      -7.5936184828    -4.3785266758   -10.8429826016
  128      H      -7.9318755365    -2.5946487450    -9.1633928232
 ----------------------------------------------------------------

   17   -2927.8127806974      8.11E-09 Convergence criterion met
 Total energy in the final basis set = -2927.81278070
 Final energy is   -2927.81278069738
 **  OPTIMIZATION CONVERGED  **

                    Orbital Energies (a.u.)
 --------------------------------------------------------------

 Alpha MOs
 -- Occupied --
-14.762 -14.658 -10.547 -10.537 -10.536 -10.490 -10.490 -10.489
-10.489 -10.487 -10.487 -10.483 -10.483 -10.483 -10.483 -10.482
-10.482 -10.481 -10.481 -10.481 -10.481 -10.466 -10.464 -10.449
-10.449 -10.447 -10.447 -10.446 -10.446 -10.445 -10.445 -10.445
-10.445 -10.444 -10.444 -10.444 -10.443 -10.443 -10.443 -10.443
-10.442 -10.439 -10.439 -10.438 -10.438 -10.436 -10.435 -10.435
-10.435 -10.435 -10.434 -10.434 -10.434 -10.434 -10.433 -10.433
-10.433 -10.433 -10.432 -10.432 -10.431 -10.431 -10.431 -10.428
-10.427 -10.419 -10.419 -10.408 -10.408 -10.406 -10.406 -10.402
-10.401 -10.399  -6.900  -6.895  -1.147  -1.068  -1.002  -1.000
 -0.996  -0.995  -0.977  -0.951  -0.945  -0.938  -0.936  -0.926
 -0.917  -0.916  -0.907  -0.900  -0.891  -0.884  -0.878  -0.877
 -0.876  -0.854  -0.845  -0.841  -0.837  -0.833  -0.832  -0.830
 -0.830  -0.827  -0.826  -0.799  -0.795  -0.793  -0.792  -0.787
 -0.784  -0.780  -0.751  -0.748  -0.746  -0.745  -0.723  -0.717
 -0.714  -0.711  -0.709  -0.700  -0.695  -0.694  -0.677  -0.674
 -0.671  -0.670  -0.665  -0.660  -0.654  -0.644  -0.643  -0.630
 -0.628  -0.626  -0.624  -0.624  -0.601  -0.596  -0.589  -0.585
 -0.577  -0.577  -0.576  -0.574  -0.570  -0.564  -0.560  -0.558
 -0.556  -0.553  -0.549  -0.547  -0.538  -0.535  -0.530  -0.529
 -0.524  -0.523  -0.522  -0.520  -0.509  -0.509  -0.508  -0.503
 -0.500  -0.499  -0.494  -0.492  -0.487  -0.486  -0.485  -0.482
 -0.476  -0.475  -0.473  -0.473  -0.472  -0.472  -0.470  -0.469
 -0.467  -0.466  -0.466  -0.464  -0.462  -0.456  -0.455  -0.454
 -0.451  -0.451  -0.448  -0.446  -0.446  -0.444  -0.443  -0.437
 -0.437  -0.435  -0.433  -0.429  -0.424  -0.422  -0.420  -0.416
 -0.414  -0.412  -0.410  -0.408  -0.406  -0.404  -0.402  -0.395
 -0.391  -0.386  -0.385  -0.381  -0.381  -0.380  -0.378  -0.377
 -0.374  -0.369  -0.367  -0.353  -0.352  -0.348  -0.344  -0.342
 -0.334  -0.330  -0.330  -0.322  -0.316  -0.310  -0.304  -0.301
 -0.297  -0.293  -0.290  -0.284  -0.283  -0.281  -0.267  -0.266
 -0.258  -0.249  -0.239  -0.235  -0.208  -0.146

 Beta MOs
 -- Occupied --
-14.771 -14.658 -10.548 -10.535 -10.535 -10.491 -10.491 -10.490
-10.490 -10.485 -10.485 -10.484 -10.484 -10.483 -10.483 -10.483
-10.482 -10.482 -10.482 -10.481 -10.481 -10.470 -10.466 -10.450
-10.450 -10.447 -10.446 -10.446 -10.446 -10.445 -10.445 -10.445
-10.444 -10.444 -10.444 -10.444 -10.444 -10.442 -10.442 -10.442
-10.442 -10.439 -10.439 -10.438 -10.438 -10.436 -10.435 -10.435
-10.435 -10.434 -10.434 -10.434 -10.433 -10.433 -10.433 -10.433
-10.433 -10.432 -10.432 -10.432 -10.431 -10.431 -10.431 -10.428
-10.427 -10.419 -10.419 -10.408 -10.408 -10.406 -10.406 -10.401
-10.400 -10.399  -6.896  -6.892  -1.162  -1.068  -1.004  -1.004
 -0.996  -0.995  -0.982  -0.951  -0.945  -0.937  -0.935  -0.926
 -0.916  -0.915  -0.908  -0.904  -0.892  -0.883  -0.879  -0.878
 -0.876  -0.854  -0.845  -0.843  -0.841  -0.832  -0.832  -0.830
 -0.829  -0.827  -0.826  -0.797  -0.797  -0.794  -0.791  -0.788
 -0.786  -0.779  -0.755  -0.748  -0.747  -0.746  -0.726  -0.718
 -0.713  -0.709  -0.708  -0.700  -0.695  -0.694  -0.679  -0.675
 -0.671  -0.670  -0.664  -0.660  -0.651  -0.645  -0.642  -0.632
 -0.628  -0.626  -0.624  -0.624  -0.603  -0.596  -0.592  -0.588
 -0.584  -0.576  -0.575  -0.574  -0.568  -0.565  -0.561  -0.558
 -0.555  -0.553  -0.550  -0.548  -0.537  -0.536  -0.532  -0.528
 -0.525  -0.523  -0.521  -0.521  -0.509  -0.509  -0.509  -0.504
 -0.502  -0.499  -0.499  -0.492  -0.487  -0.485  -0.485  -0.484
 -0.481  -0.475  -0.475  -0.473  -0.472  -0.472  -0.470  -0.469
 -0.469  -0.465  -0.465  -0.463  -0.461  -0.457  -0.456  -0.455
 -0.454  -0.451  -0.451  -0.446  -0.446  -0.443  -0.442  -0.438
 -0.437  -0.437  -0.434  -0.429  -0.424  -0.422  -0.420  -0.416
 -0.413  -0.412  -0.411  -0.407  -0.404  -0.401  -0.400  -0.400
 -0.395  -0.391  -0.386  -0.385  -0.381  -0.378  -0.378  -0.378
 -0.373  -0.370  -0.367  -0.353  -0.348  -0.346  -0.345  -0.343
 -0.339  -0.336  -0.329  -0.329  -0.317  -0.315  -0.313  -0.297
 -0.293  -0.293  -0.290  -0.285  -0.279  -0.279  -0.276  -0.267
 -0.258  -0.255  -0.242  -0.236  -0.227  -0.208

          Ground-State Mulliken Net Atomic Charges

     Atom                 Charge (a.u.)    Spin (a.u.)
  --------------------------------------------------------
      1 C                    -0.358857      -0.000670
      2 C                     0.040521       0.002884
      3 C                    -0.189493      -0.022927
      4 C                     0.040219       0.002817
      5 C                    -0.357523      -0.000700
      6 C                     0.274857       0.000447
      7 N                    -0.671182      -0.000046
      8 C                    -0.758206       0.000602
      9 C                    -0.758821       0.000688
     10 C                     0.308954       0.000006
     11 C                    -0.294502       0.000003
     12 C                    -0.287988       0.000002
     13 C                     0.299598       0.000002
     14 C                    -0.227070      -0.000005
     15 C                    -0.256234       0.000004
     16 C                    -0.229387      -0.000007
     17 C                    -0.294590       0.000006
     18 C                    -0.296079       0.000002
     19 C                    -0.226946      -0.000004
     20 C                    -0.257653       0.000002
     21 C                    -0.228814      -0.000005
     22 C                    -0.130309      -0.011707
     23 C                    -0.145959       0.071243
     24 B                     0.587010       0.265524
     25 C                    -0.145678       0.072444
     26 C                    -0.131117      -0.015551
     27 B                     0.551849       0.371711
     28 C                    -0.403685      -0.065568
     29 C                     0.085284       0.101465
     30 C                     0.069379       0.028635
     31 C                    -0.406106      -0.006893
     32 C                    -0.401064      -0.009995
     33 C                     0.068398       0.031636
     34 C                     0.088846       0.100577
     35 C                    -0.409432      -0.064711
     36 C                    -0.402066       0.087426
     37 C                    -0.216206      -0.053900
     38 C                    -0.356394       0.079418
     39 C                     0.236652      -0.037591
     40 C                    -0.077260       0.023329
     41 C                     0.187595      -0.059062
     42 C                    -0.353411       0.061506
     43 C                    -0.217940      -0.044011
     44 C                    -0.400437       0.065585
     45 C                     0.188930      -0.041614
     46 C                    -0.215655      -0.054493
     47 C                    -0.403353       0.088130
     48 C                     0.186400      -0.059248
     49 C                    -0.077109       0.023649
     50 C                     0.238381      -0.038235
     51 C                    -0.358216       0.080247
     52 C                     0.187023      -0.042812
     53 C                    -0.397818       0.067569
     54 C                    -0.218639      -0.045200
     55 C                    -0.353518       0.063669
     56 C                    -0.360944      -0.151841
     57 C                     0.054641       0.116320
     58 C                    -0.140973      -0.413531
     59 C                     0.055897       0.116963
     60 C                    -0.359905      -0.152338
     61 C                     0.345317      -0.038137
     62 N                    -0.584949      -0.341247
     63 C                    -0.754116      -0.006234
     64 C                    -0.752510      -0.006527
     65 C                     0.246541       0.067073
     66 C                    -0.252300      -0.087941
     67 C                    -0.255114      -0.082614
     68 C                     0.248656       0.067042
     69 C                    -0.228827       0.055254
     70 C                    -0.223787      -0.094562
     71 C                    -0.230155       0.059873
     72 C                    -0.254425      -0.087045
     73 C                    -0.254985      -0.082886
     74 C                    -0.228710       0.055511
     75 C                    -0.223766      -0.095378
     76 C                    -0.230149       0.060415
     77 H                     0.232833       0.000328
     78 H                     0.232069       0.000324
     79 H                     0.245744      -0.000668
     80 H                     0.245340      -0.000751
     81 H                     0.233188       0.001423
     82 H                     0.245833      -0.000736
     83 H                     0.233010       0.001414
     84 H                     0.245631      -0.000721
     85 H                     0.252906      -0.000000
     86 H                     0.254128      -0.000000
     87 H                     0.231908       0.000000
     88 H                     0.228155      -0.000000
     89 H                     0.231440       0.000000
     90 H                     0.253108      -0.000000
     91 H                     0.255273      -0.000000
     92 H                     0.231524       0.000001
     93 H                     0.227507      -0.000000
     94 H                     0.230838       0.000000
     95 H                     0.224222       0.002636
     96 H                     0.193654       0.000286
     97 H                     0.191953       0.000753
     98 H                     0.222622       0.002606
     99 H                     0.226995      -0.005147
    100 H                     0.232538       0.002613
    101 H                     0.226530      -0.004720
    102 H                     0.226791      -0.003601
    103 H                     0.227921       0.002191
    104 H                     0.212591      -0.003905
    105 H                     0.232636       0.002642
    106 H                     0.228180      -0.005183
    107 H                     0.226501      -0.004769
    108 H                     0.210106      -0.004033
    109 H                     0.227141       0.002249
    110 H                     0.226507      -0.003735
    111 H                     0.281512       0.008719
    112 H                     0.281523       0.008699
    113 H                     0.240530       0.002699
    114 H                     0.273499       0.001790
    115 H                     0.270810       0.000906
    116 H                     0.272015       0.000785
    117 H                     0.240310       0.002653
    118 H                     0.270764       0.002044
    119 H                     0.281054       0.004581
    120 H                     0.275487       0.004344
    121 H                     0.260718      -0.002877
    122 H                     0.260229       0.005209
    123 H                     0.262795      -0.003351
    124 H                     0.281315       0.004512
    125 H                     0.275309       0.004360
    126 H                     0.260505      -0.002879
    127 H                     0.260365       0.005253
    128 H                     0.263320      -0.003387
  --------------------------------------------------------
  Sum of atomic charges =    -0.000000

                    Cartesian Multipole Moments
 -----------------------------------------------------------------
    Charge (ESU x 10^10)
                -0.0000
    Dipole Moment (Debye)
         X     -11.4896      Y     -11.6523      Z     -21.1290
       Tot      26.7249
    Quadrupole Moments (Debye-Ang)
        XX    -256.2272     XY     140.7564     YY    -334.5840
        XZ     190.4871     YZ     118.5053     ZZ    -293.0284

 Total job time:  90255.13s(wall), 373972.50s(cpu)
        *  Thank you very much for using Q-Chem.  Have a nice day.  *
