 Q-Chem 5.0, Q-Chem, Inc., Pleasanton, CA (2017)
 Q-Chem 5.0.1 for Intel X86 EM64T Linux

User input:
--------------------------------------------------------------
$rem
threads 8
jobtype sp
method PBEh-3c
basis def2-mSVP
mem_static      1024
mem_total       8000
sym_ignore      true
unrestricted true
scf_algorithm	diis
scf_max_cycles	250
solvent_method  pcm
$end

$pcm
theory  iefpcm
$end

$solvent
dielectric      1.0001
$end

$molecule
read uincoords.mol
$end

--------------------------------------------------------------

   10   -2927.7822618054      8.07E-06 Convergence criterion met
 Total energy in the final basis set = -2927.78226181
 Total job time:  1854.81s(wall), 7680.76s(cpu)
        *  Thank you very much for using Q-Chem.  Have a nice day.  *
 Q-Chem 5.0, Q-Chem, Inc., Pleasanton, CA (2017)
 Q-Chem 5.0.1 for Intel X86 EM64T Linux

User input:
--------------------------------------------------------------

$rem
threads 8
jobtype opt
method PBEh-3c
basis def2-mSVP
mem_static      1024
mem_total       8000
sym_ignore      true
unrestricted true
scf_algorithm   diis
scf_max_cycles  250
solvent_method  pcm
geom_opt_tol_energy 25
geom_opt_tol_gradient 75
scf_guess	read
mom_start	1
$end

$pcm
theory  iefpcm
$end

$solvent
dielectric      1.0001
$end

$molecule
read uincoords.mol
$end

--------------------------------------------------------------

   13   -2927.7812198373      8.32E-09 Convergence criterion met
 Total energy in the final basis set = -2927.78121984
   15   -2927.7813320684      7.13E-09 Convergence criterion met
 Total energy in the final basis set = -2927.78133207
   15   -2927.7813187087      6.92E-09 Convergence criterion met
 Total energy in the final basis set = -2927.78131871
   13   -2927.7813289653      9.75E-09 Convergence criterion met
 Total energy in the final basis set = -2927.78132897
   13   -2927.7813661047      9.41E-09 Convergence criterion met
 Total energy in the final basis set = -2927.78136610
   15   -2927.7814813642      8.10E-09 Convergence criterion met
 Total energy in the final basis set = -2927.78148136
   18   -2927.7696179459      8.35E-09 Convergence criterion met
   10   -2927.7853201998      6.67E-09 Convergence criterion met
 Total energy in the final basis set = -2927.78532020
   10   -2927.7853222987      5.64E-09 Convergence criterion met
 Total energy in the final basis set = -2927.78532230
    9   -2927.7853281112      6.67E-09 Convergence criterion met
 Total energy in the final basis set = -2927.78532811
    9   -2927.7853141020      8.47E-09 Convergence criterion met
 Total energy in the final basis set = -2927.78531410
    8   -2927.7853102099      8.66E-09 Convergence criterion met
 Total energy in the final basis set = -2927.78531021
    8   -2927.7853075650      6.88E-09 Convergence criterion met
 Total energy in the final basis set = -2927.78530756

             Standard Nuclear Orientation (Angstroms)
    I     Atom           X                Y                Z
 ----------------------------------------------------------------
    1      C      -4.8498328486    -0.3777457447     4.4997920301
    2      C      -5.4496851405    -0.9471544220     3.3839085336
    3      C      -4.7412887921    -1.0656838567     2.1822442057
    4      C      -3.4289213941    -0.5795652530     2.1242000659
    5      C      -2.8491588304     0.0127729257     3.2387153671
    6      C      -3.5506443742     0.1066596604     4.4337874505
    7      N      -2.9450607879     0.6818642669     5.5740185158
    8      C      -6.8585479819    -1.4653276866     3.4745503786
    9      C      -2.6499941973    -0.6990913948     0.8441096466
   10      C      -1.6892942308     0.2235989910     5.9893219744
   11      C      -0.7705725795     1.0927354303     6.5799148247
   12      C      -4.4664515898     2.5603706943     5.6969787341
   13      C      -3.6763297171     1.6034427096     6.3354682681
   14      C      -5.2303237391     3.4447153657     6.4378665632
   15      C      -5.2092757752     3.4082285225     7.8248799456
   16      C      -4.4171331507     2.4649176131     8.4621661910
   17      C      -3.6634585809     1.5626893458     7.7296356101
   18      C      -1.3275703765    -1.1115110052     5.8014043560
   19      C      -0.0765644348    -1.5586011114     6.1892421074
   20      C       0.8302739531    -0.6962050382     6.7876066788
   21      C       0.4700528074     0.6293155038     6.9829513961
   22      C      -6.7295562757    -1.6576523688    -1.2594565375
   23      C      -6.1568339970    -0.9823556067    -0.1389221096
   24      B      -5.3924083857    -1.7800011077     0.9325870372
   25      C      -5.2591894031    -3.3075561702     0.7852551922
   26      C      -5.8331837710    -3.9792203227    -0.3357078495
   27      B      -6.5832119161    -3.1705634767    -1.3852314247
   28      C      -4.5739249177    -4.0632857092     1.7561942221
   29      C      -4.4556535730    -5.4276674748     1.6347452110
   30      C      -5.0301996277    -6.0930717266     0.5123817428
   31      C      -5.6997267867    -5.3801169351    -0.4462516301
   32      C      -7.4312374302    -0.9110109091    -2.2286913767
   33      C      -7.5633004102     0.4460406006    -2.1033885407
   34      C      -6.9906430526     1.1282646662    -0.9908293223
   35      C      -6.3051563962     0.4147684935    -0.0337542717
   36      C      -3.1156706522    -6.4347220500     3.6525328846
   37      C      -2.6398426861    -7.6637098650     4.1657678081
   38      C      -2.8513429812    -8.8657387763     3.5319930082
   39      C      -3.5720178393    -8.9036911873     2.3142198175
   40      C      -4.0277380411    -7.6791452425     1.8330296233
   41      C      -3.8175406202    -6.4403321635     2.4735537697
   42      C      -3.8809332162   -10.0406058831     1.5285866591
   43      C      -4.5934425658    -9.8983685473     0.3605731618
   44      C      -5.0427409239    -8.6417974234    -0.1048396851
   45      C      -4.7578260842    -7.5236441683     0.6385021506
   46      C      -7.5194785539     4.9250621655    -0.9111408697
   47      C      -7.0328270424     3.6896386348    -0.4235050903
   48      C      -7.2972019020     2.5501178960    -1.1397320357
   49      C      -8.0447749259     2.6757775245    -2.3299935933
   50      C      -8.5387483081     3.8747387753    -2.8335627828
   51      C      -8.2489514984     5.0329488032    -2.0724405026
   52      C      -8.2335427568     1.4254730167    -2.9502877899
   53      C      -8.9470949669     1.3699429844    -4.1207824162
   54      C      -9.4608986529     2.5727149660    -4.6544005888
   55      C      -9.2707953034     3.7907769182    -4.0431799590
   56      C      -9.1781429411    -4.9658777627    -3.6223000999
   57      C      -8.5812027056    -4.3880545092    -2.5327114311
   58      C      -7.2439662184    -3.9030761053    -2.6156947087
   59      C      -6.5306562313    -4.0658226034    -3.8380075143
   60      C      -7.1405467376    -4.6313342644    -4.9267953102
   61      C      -8.4783036235    -5.0816533712    -4.8455628788
   62      N      -9.0902787072    -5.6133628874    -5.9411980602
   63      C      -9.3377441313    -4.2209698236    -1.2541423999
   64      C      -5.1071779424    -3.6147985332    -3.9148432975
   65      C      -8.6730502050    -5.2796589137    -7.2528878990
   66      C      -8.4929381560    -3.9458915113    -7.6082643685
   67      C     -11.3172858355    -6.3172832314    -6.5969420007
   68      C     -10.1787694535    -6.5108781569    -5.8203417506
   69      C     -12.3683454134    -7.2116751945    -6.4996893436
   70      C     -12.2876708285    -8.2964054122    -5.6371139247
   71      C     -11.1476160504    -8.4880364303    -4.8703482318
   72      C     -10.0875071193    -7.6020714140    -4.9613450286
   73      C      -8.4893198621    -6.2911616592    -8.1907752955
   74      C      -8.1066207023    -5.9639941671    -9.4792400597
   75      C      -7.9123295839    -4.6365935104    -9.8367675548
   76      C      -8.1072809647    -3.6314578434    -8.9005062305
   77      H      -5.4010124915    -0.3085903165     5.4306265500
   78      H      -1.8362352714     0.3945657600     3.1833366006
   79      H      -6.8988212084    -2.5412331828     3.2915505122
   80      H      -7.5012067154    -0.9958334851     2.7272229265
   81      H      -7.2951561959    -1.2770671299     4.4552371860
   82      H      -2.5391471861    -1.7447154062     0.5482840388
   83      H      -1.6517091653    -0.2712485524     0.9352339706
   84      H      -3.1589171040    -0.1932084530     0.0213472081
   85      H      -1.0308219007     2.1340357963     6.7183755360
   86      H      -4.4890200290     2.5971450280     4.6154899021
   87      H      -5.8421501624     4.1747181573     5.9235507772
   88      H      -5.8053794723     4.1033444840     8.4007216085
   89      H      -4.3978333618     2.4143481925     9.5432647545
   90      H      -3.0689596347     0.8156698109     8.2392569743
   91      H      -2.0289419142    -1.7976051943     5.3449663506
   92      H       0.1853624899    -2.5970057336     6.0309191574
   93      H       1.8047915105    -1.0514741499     7.0944685730
   94      H       1.1686810964     1.3188241067     7.4391876059
   95      H      -4.1382982896    -3.5520997653     2.6078269634
   96      H      -6.1314180816    -5.9015352855    -1.2973615080
   97      H      -7.8739940906    -1.4161725406    -3.0835051013
   98      H      -5.8688819306     0.9233285187     0.8197930936
   99      H      -2.9205206524    -5.5180396824     4.1942593233
  100      H      -2.0868058899    -7.6540888260     5.0962522212
  101      H      -2.4668077290    -9.7820232621     3.9632673140
  102      H      -3.5563035559   -11.0242148476     1.8461583189
  103      H      -4.8189574855   -10.7796560807    -0.2271349080
  104      H      -5.5977859128    -8.5851357809    -1.0336416437
  105      H      -7.3070166416     5.8212398046    -0.3424231767
  106      H      -6.4653337611     3.6630493031     0.4980284207
  107      H      -8.6001602436     6.0025123842    -2.4034740330
  108      H      -9.1240701961     0.4341762190    -4.6378124884
  109      H     -10.0253890136     2.5321865547    -5.5776849905
  110      H      -9.6841670042     4.6871793117    -4.4891836259
  111      H     -10.2123950532    -5.2809390787    -3.5674893155
  112      H      -6.5859590800    -4.7725684462    -5.8455177883
  113      H     -10.3469445938    -4.6253175118    -1.3241961109
  114      H      -9.4033068076    -3.1667858042    -0.9809849939
  115      H      -8.8186231581    -4.7206969961    -0.4349150784
  116      H      -5.0359629350    -2.5437695833    -3.7187058035
  117      H      -4.6700716139    -3.8182178955    -4.8916609063
  118      H      -4.5034714149    -4.1094319236    -3.1529056091
  119      H      -8.6675937370    -3.1617251279    -6.8829571022
  120      H     -11.3819916531    -5.4685098996    -7.2652611771
  121      H     -13.2570472431    -7.0570751539    -7.0963159207
  122      H     -13.1114798065    -8.9935496682    -5.5656017765
  123      H     -11.0756808681    -9.3386512831    -4.2064100574
  124      H      -9.1887739412    -7.7630440904    -4.3801185399
  125      H      -8.6376008958    -7.3257566910    -7.9101431221
  126      H      -7.9538395952    -6.7501587184   -10.2061350309
  127      H      -7.6139181087    -4.3862595243   -10.8457197645
  128      H      -7.9702156630    -2.5953149028    -9.1779816816
 ----------------------------------------------------------------

    7   -2927.7853076746      8.22E-09 Convergence criterion met
 Total energy in the final basis set = -2927.78530767
 Final energy is   -2927.78530767457
 **  OPTIMIZATION CONVERGED  **

                    Orbital Energies (a.u.)
 --------------------------------------------------------------

 Alpha MOs
 -- Occupied --
-14.778 -14.649 -10.562 -10.550 -10.550 -10.506 -10.506 -10.506
-10.505 -10.500 -10.500 -10.499 -10.499 -10.499 -10.499 -10.497
-10.497 -10.494 -10.494 -10.481 -10.472 -10.472 -10.456 -10.444
-10.443 -10.442 -10.442 -10.441 -10.441 -10.441 -10.440 -10.439
-10.438 -10.437 -10.437 -10.437 -10.436 -10.436 -10.436 -10.436
-10.435 -10.435 -10.435 -10.431 -10.430 -10.430 -10.430 -10.428
-10.427 -10.426 -10.426 -10.426 -10.426 -10.425 -10.425 -10.425
-10.425 -10.424 -10.424 -10.423 -10.423 -10.423 -10.423 -10.420
-10.418 -10.410 -10.409 -10.401 -10.401 -10.399 -10.399 -10.394
-10.394 -10.389  -6.894  -6.888  -1.172  -1.059  -1.019  -1.017
 -0.995  -0.988  -0.988  -0.942  -0.936  -0.931  -0.929  -0.920
 -0.917  -0.916  -0.910  -0.909  -0.906  -0.895  -0.894  -0.878
 -0.869  -0.856  -0.845  -0.836  -0.832  -0.826  -0.826  -0.824
 -0.823  -0.819  -0.818  -0.808  -0.800  -0.792  -0.787  -0.785
 -0.778  -0.773  -0.767  -0.761  -0.742  -0.739  -0.737  -0.734
 -0.707  -0.705  -0.702  -0.694  -0.693  -0.687  -0.686  -0.685
 -0.664  -0.662  -0.659  -0.658  -0.654  -0.649  -0.643  -0.637
 -0.623  -0.618  -0.618  -0.617  -0.616  -0.607  -0.602  -0.591
 -0.588  -0.575  -0.571  -0.570  -0.569  -0.566  -0.563  -0.559
 -0.557  -0.552  -0.550  -0.548  -0.546  -0.541  -0.541  -0.538
 -0.530  -0.521  -0.520  -0.515  -0.514  -0.509  -0.507  -0.502
 -0.501  -0.501  -0.495  -0.494  -0.491  -0.485  -0.483  -0.481
 -0.478  -0.477  -0.476  -0.474  -0.471  -0.469  -0.468  -0.468
 -0.465  -0.464  -0.464  -0.464  -0.459  -0.458  -0.457  -0.457
 -0.455  -0.454  -0.453  -0.448  -0.446  -0.446  -0.441  -0.441
 -0.437  -0.434  -0.430  -0.422  -0.421  -0.420  -0.415  -0.414
 -0.409  -0.407  -0.406  -0.405  -0.402  -0.398  -0.396  -0.394
 -0.390  -0.383  -0.378  -0.377  -0.375  -0.373  -0.372  -0.372
 -0.368  -0.365  -0.362  -0.359  -0.354  -0.352  -0.347  -0.345
 -0.344  -0.339  -0.334  -0.328  -0.322  -0.314  -0.309  -0.296
 -0.289  -0.285  -0.284  -0.280  -0.275  -0.275  -0.273  -0.258
 -0.257  -0.248  -0.242  -0.231  -0.226  -0.198  -0.140

 Beta MOs
 -- Occupied --
-14.770 -14.649 -10.561 -10.551 -10.551 -10.505 -10.505 -10.505
-10.504 -10.500 -10.500 -10.500 -10.500 -10.498 -10.498 -10.498
-10.498 -10.492 -10.492 -10.475 -10.472 -10.472 -10.456 -10.444
-10.443 -10.442 -10.442 -10.441 -10.441 -10.440 -10.440 -10.438
-10.438 -10.438 -10.438 -10.437 -10.437 -10.436 -10.436 -10.435
-10.435 -10.435 -10.434 -10.431 -10.430 -10.430 -10.430 -10.428
-10.427 -10.426 -10.425 -10.425 -10.425 -10.425 -10.425 -10.424
-10.424 -10.424 -10.423 -10.423 -10.423 -10.423 -10.422 -10.420
-10.419 -10.410 -10.409 -10.401 -10.401 -10.399 -10.399 -10.393
-10.392 -10.389  -6.891  -6.885  -1.159  -1.059  -1.018  -1.013
 -0.990  -0.988  -0.987  -0.942  -0.936  -0.930  -0.928  -0.918
 -0.917  -0.911  -0.909  -0.908  -0.905  -0.894  -0.893  -0.876
 -0.869  -0.849  -0.844  -0.836  -0.832  -0.825  -0.824  -0.823
 -0.822  -0.819  -0.817  -0.804  -0.794  -0.789  -0.786  -0.784
 -0.778  -0.772  -0.762  -0.759  -0.740  -0.739  -0.737  -0.732
 -0.706  -0.703  -0.701  -0.693  -0.691  -0.686  -0.685  -0.685
 -0.663  -0.662  -0.657  -0.656  -0.653  -0.646  -0.640  -0.635
 -0.622  -0.618  -0.617  -0.616  -0.616  -0.605  -0.592  -0.588
 -0.587  -0.573  -0.570  -0.569  -0.568  -0.565  -0.561  -0.558
 -0.556  -0.551  -0.549  -0.546  -0.544  -0.541  -0.540  -0.537
 -0.529  -0.519  -0.517  -0.514  -0.512  -0.505  -0.503  -0.501
 -0.500  -0.500  -0.493  -0.490  -0.486  -0.483  -0.481  -0.480
 -0.477  -0.477  -0.475  -0.473  -0.468  -0.467  -0.467  -0.465
 -0.465  -0.464  -0.463  -0.463  -0.458  -0.457  -0.456  -0.456
 -0.455  -0.453  -0.449  -0.446  -0.446  -0.445  -0.440  -0.440
 -0.437  -0.433  -0.429  -0.420  -0.419  -0.418  -0.414  -0.413
 -0.407  -0.405  -0.402  -0.401  -0.396  -0.393  -0.392  -0.389
 -0.388  -0.383  -0.378  -0.377  -0.374  -0.371  -0.371  -0.370
 -0.367  -0.362  -0.358  -0.358  -0.350  -0.346  -0.344  -0.341
 -0.337  -0.334  -0.323  -0.321  -0.320  -0.308  -0.305  -0.289
 -0.285  -0.284  -0.280  -0.275  -0.272  -0.271  -0.257  -0.248
 -0.247  -0.234  -0.228  -0.219  -0.198

          Ground-State Mulliken Net Atomic Charges

     Atom                 Charge (a.u.)    Spin (a.u.)
  --------------------------------------------------------
      1 C                    -0.348497      -0.000493
      2 C                     0.049519       0.002958
      3 C                    -0.194103      -0.020705
      4 C                     0.049352       0.002859
      5 C                    -0.346869      -0.000498
      6 C                     0.272354       0.001523
      7 N                    -0.671550       0.002317
      8 C                    -0.752884       0.000570
      9 C                    -0.753343       0.000660
     10 C                     0.310701      -0.000524
     11 C                    -0.285251       0.000849
     12 C                    -0.276758       0.000865
     13 C                     0.300742      -0.000521
     14 C                    -0.211921      -0.000618
     15 C                    -0.240447       0.001030
     16 C                    -0.214248      -0.000573
     17 C                    -0.285652       0.000823
     18 C                    -0.285017       0.000900
     19 C                    -0.211692      -0.000636
     20 C                    -0.241713       0.001073
     21 C                    -0.213568      -0.000599
     22 C                    -0.124549       0.001704
     23 C                    -0.145511       0.081061
     24 B                     0.609239       0.255118
     25 C                    -0.145182       0.081581
     26 C                    -0.125547      -0.000663
     27 B                     0.545299       0.368048
     28 C                    -0.396724      -0.069403
     29 C                     0.096766       0.112578
     30 C                     0.080191       0.011091
     31 C                    -0.401864       0.014228
     32 C                    -0.395238       0.011015
     33 C                     0.078855       0.014492
     34 C                     0.100467       0.112708
     35 C                    -0.402625      -0.069456
     36 C                    -0.392552       0.087926
     37 C                    -0.199851      -0.053636
     38 C                    -0.346214       0.079337
     39 C                     0.252706      -0.035816
     40 C                    -0.075289       0.022342
     41 C                     0.198605      -0.060795
     42 C                    -0.342747       0.054784
     43 C                    -0.201321      -0.040111
     44 C                    -0.389880       0.057987
     45 C                     0.199765      -0.035915
     46 C                    -0.199141      -0.054724
     47 C                    -0.394149       0.089461
     48 C                     0.197213      -0.061437
     49 C                    -0.075355       0.022848
     50 C                     0.254415      -0.036801
     51 C                    -0.348122       0.080963
     52 C                     0.198019      -0.037402
     53 C                    -0.386763       0.060507
     54 C                    -0.201969      -0.041657
     55 C                    -0.342826       0.057485
     56 C                    -0.363277       0.115091
     57 C                     0.064570      -0.081271
     58 C                    -0.129934       0.398116
     59 C                     0.066062      -0.081325
     60 C                    -0.361460       0.115278
     61 C                     0.350403       0.091882
     62 N                    -0.601075       0.289446
     63 C                    -0.748868       0.007217
     64 C                    -0.746994       0.007577
     65 C                     0.246911      -0.059359
     66 C                    -0.249711       0.071805
     67 C                    -0.250021       0.068284
     68 C                     0.250274      -0.059546
     69 C                    -0.217069      -0.044945
     70 C                    -0.215922       0.075426
     71 C                    -0.218724      -0.049061
     72 C                    -0.251942       0.071583
     73 C                    -0.249616       0.068048
     74 C                    -0.217149      -0.044817
     75 C                    -0.215869       0.075461
     76 C                    -0.218895      -0.049119
     77 H                     0.224472       0.000304
     78 H                     0.223089       0.000301
     79 H                     0.244385      -0.000643
     80 H                     0.243448      -0.000702
     81 H                     0.226144       0.001378
     82 H                     0.244176      -0.000694
     83 H                     0.225819       0.001364
     84 H                     0.244201      -0.000685
     85 H                     0.243956      -0.000045
     86 H                     0.245494      -0.000046
     87 H                     0.215333       0.000033
     88 H                     0.211846      -0.000058
     89 H                     0.214904       0.000029
     90 H                     0.244699      -0.000044
     91 H                     0.247061      -0.000048
     92 H                     0.215022       0.000035
     93 H                     0.211271      -0.000060
     94 H                     0.214231       0.000029
     95 H                     0.220062       0.003027
     96 H                     0.174155      -0.002981
     97 H                     0.171615      -0.003138
     98 H                     0.217879       0.003007
     99 H                     0.211046      -0.005229
    100 H                     0.216326       0.002626
    101 H                     0.208736      -0.004776
    102 H                     0.208823      -0.003234
    103 H                     0.208880       0.002048
    104 H                     0.190054      -0.003501
    105 H                     0.216293       0.002680
    106 H                     0.212249      -0.005315
    107 H                     0.208696      -0.004874
    108 H                     0.186077      -0.003660
    109 H                     0.207592       0.002125
    110 H                     0.208545      -0.003401
    111 H                     0.268093      -0.006417
    112 H                     0.267841      -0.006409
    113 H                     0.228699       0.001335
    114 H                     0.279948      -0.002859
    115 H                     0.277654      -0.001734
    116 H                     0.278378      -0.001620
    117 H                     0.228594       0.001285
    118 H                     0.277026      -0.002933
    119 H                     0.268633      -0.003827
    120 H                     0.260246      -0.003665
    121 H                     0.245694       0.002355
    122 H                     0.245643      -0.004208
    123 H                     0.248972       0.002839
    124 H                     0.268213      -0.003794
    125 H                     0.259722      -0.003656
    126 H                     0.245409       0.002342
    127 H                     0.245765      -0.004210
    128 H                     0.249916       0.002852
  --------------------------------------------------------
  Sum of atomic charges =    -0.000000

                    Cartesian Multipole Moments
 -----------------------------------------------------------------
    Charge (ESU x 10^10)
                -0.0000
    Dipole Moment (Debye)
         X      -9.7379      Y      -9.8704      Z     -17.8308
       Tot      22.5873
    Quadrupole Moments (Debye-Ang)
        XX    -285.6427     XY     119.9503     YY    -353.4010
        XZ     159.6383     YZ      99.6643     ZZ    -318.0572

 Total job time:  117886.40s(wall), 456323.29s(cpu)
        *  Thank you very much for using Q-Chem.  Have a nice day.  *
