 Q-Chem 5.0, Q-Chem, Inc., Pleasanton, CA (2017)
 Q-Chem 5.0.1 for Intel X86 EM64T Linux

User input:
--------------------------------------------------------------
$rem
threads 8
jobtype opt
method PBEh-3c
basis def2-mSVP
mem_static      1024
mem_total       8000
sym_ignore      true
unrestricted true
scf_algorithm	diis
scf_max_cycles	250
solvent_method  pcm
geom_opt_tol_energy 25
geom_opt_tol_gradient 75
$end

$pcm
theory  iefpcm
$end
$solvent
dielectric      4.33
$end

$molecule
read uincoords.mol
$end
--------------------------------------------------------------

   21   -2927.8229949667      8.78E-09 Convergence criterion met
 Total energy in the final basis set = -2927.82299497
   17   -2927.8232813050      9.61E-09 Convergence criterion met
 Total energy in the final basis set = -2927.82328130
   17   -2927.8232366642      9.03E-09 Convergence criterion met
 Total energy in the final basis set = -2927.82323666
   17   -2927.8232862108      8.70E-09 Convergence criterion met
 Total energy in the final basis set = -2927.82328621
   17   -2927.8233064746      8.94E-09 Convergence criterion met
 Total energy in the final basis set = -2927.82330647
   17   -2927.8233500685      8.92E-09 Convergence criterion met
 Total energy in the final basis set = -2927.82335007
   17   -2927.8234743246      8.65E-09 Convergence criterion met
 Total energy in the final basis set = -2927.82347432
   17   -2927.8236141982      8.74E-09 Convergence criterion met
   17   -2927.8266803283      8.99E-09 Convergence criterion met
 Total energy in the final basis set = -2927.82668033
   17   -2927.8266807890      8.97E-09 Convergence criterion met
 Total energy in the final basis set = -2927.82668079
   17   -2927.8266798085      9.12E-09 Convergence criterion met
 Total energy in the final basis set = -2927.82667981
   17   -2927.8266768176      9.21E-09 Convergence criterion met
 Total energy in the final basis set = -2927.82667682
   17   -2927.8266723861      9.22E-09 Convergence criterion met
 Total energy in the final basis set = -2927.82667239
   17   -2927.8266698709      9.23E-09 Convergence criterion met
 Total energy in the final basis set = -2927.82666987

             Standard Nuclear Orientation (Angstroms)
    I     Atom           X                Y                Z
 ----------------------------------------------------------------
    1      C      -4.8415621305    -0.3685864795     4.5071880091
    2      C      -5.4462507967    -0.9419539573     3.3945006035
    3      C      -4.7431861902    -1.0663795617     2.1894424230
    4      C      -3.4299011107    -0.5812115657     2.1265333505
    5      C      -2.8449109929     0.0147813084     3.2376993512
    6      C      -3.5416587163     0.1142454166     4.4356138832
    7      N      -2.9308954290     0.6936653013     5.5709549620
    8      C      -6.8558118745    -1.4570412955     3.4964273672
    9      C      -2.6518461784    -0.7026730653     0.8456104454
   10      C      -1.6750127354     0.2329451273     5.9862700469
   11      C      -0.7490577788     1.1056273426     6.5612903658
   12      C      -4.4393381149     2.5839645264     5.6982127851
   13      C      -3.6597516083     1.6166712166     6.3349702282
   14      C      -5.2003874736     3.4707504337     6.4411901279
   15      C      -5.1857196602     3.4251810443     7.8290419564
   16      C      -4.4031897869     2.4712502941     8.4647102702
   17      C      -3.6529331540     1.5670143173     7.7292372685
   18      C      -1.3211239802    -1.1068317268     5.8139965159
   19      C      -0.0691615140    -1.5557780775     6.2007905759
   20      C       0.8458084185    -0.6891125052     6.7826516899
   21      C       0.4926904783     0.6415209348     6.9635810842
   22      C      -6.7406954859    -1.6652172192    -1.2500580628
   23      C      -6.1667280746    -0.9877583718    -0.1286517432
   24      B      -5.4006471671    -1.7836728419     0.9420249818
   25      C      -5.2700662392    -3.3106718543     0.7955198401
   26      C      -5.8478777388    -3.9830167605    -0.3260050816
   27      B      -6.6009673340    -3.1819052004    -1.3836206777
   28      C      -4.5828075916    -4.0677089407     1.7666037771
   29      C      -4.4662413929    -5.4323238780     1.6452371217
   30      C      -5.0451629104    -6.0982666521     0.5233406049
   31      C      -5.7165985230    -5.3837651694    -0.4351123538
   32      C      -7.4395077237    -0.9187491737    -2.2208073148
   33      C      -7.5719126503     0.4401562922    -2.0968944690
   34      C      -7.0013797685     1.1235607245    -0.9821391918
   35      C      -6.3158740755     0.4111733718    -0.0242592887
   36      C      -3.1200673886    -6.4393146644     3.6613385877
   37      C      -2.6444305621    -7.6696128078     4.1737647063
   38      C      -2.8600582953    -8.8727357317     3.5405137780
   39      C      -3.5849330899    -8.9099579706     2.3243140053
   40      C      -4.0409064745    -7.6843173958     1.8434296794
   41      C      -3.8265767909    -6.4454281030     2.4836112076
   42      C      -3.8970581218   -10.0482902063     1.5400219038
   43      C      -4.6132624321    -9.9051794975     0.3729562486
   44      C      -5.0629838615    -8.6479362217    -0.0931897116
   45      C      -4.7744540457    -7.5288201347     0.6498542238
   46      C      -7.5339212903     4.9217915590    -0.9014913793
   47      C      -7.0472107513     3.6861111078    -0.4122065418
   48      C      -7.3086512725     2.5460944330    -1.1310284976
   49      C      -8.0531311910     2.6703958937    -2.3239110275
   50      C      -8.5464815828     3.8700300036    -2.8290147053
   51      C      -8.2603146918     5.0290860831    -2.0663534503
   52      C      -8.2396433162     1.4193966634    -2.9456948918
   53      C      -8.9491934308     1.3632410877    -4.1201268749
   54      C      -9.4614019290     2.5674500379    -4.6548334644
   55      C      -9.2747438593     3.7866758554    -4.0422468205
   56      C      -9.1899254889    -4.9673089137    -3.6430585527
   57      C      -8.5952989446    -4.3872516557    -2.5483252229
   58      C      -7.2598136289    -3.9152520153    -2.6219538438
   59      C      -6.5389223248    -4.0836475654    -3.8313240480
   60      C      -7.1416327651    -4.6535308308    -4.9268152338
   61      C      -8.4799951756    -5.0929819022    -4.8555138777
   62      N      -9.0873770216    -5.6227515722    -5.9593955033
   63      C      -9.3710973363    -4.2186873108    -1.2783326299
   64      C      -5.1105036897    -3.6399851406    -3.9105971190
   65      C      -8.6836677492    -5.2519442077    -7.2616087088
   66      C      -8.5029454177    -3.9064884835    -7.5763016104
   67      C     -11.2835339041    -6.3818524486    -6.6428874385
   68      C     -10.1518219150    -6.5433537233    -5.8452949679
   69      C     -12.3157533606    -7.2974050282    -6.5486535109
   70      C     -12.2214188413    -8.3719939646    -5.6726002523
   71      C     -11.0878680941    -8.5312837831    -4.8866873866
   72      C     -10.0472407268    -7.6222231788    -4.9694857606
   73      C      -8.5095166582    -6.2389637846    -8.2299077933
   74      C      -8.1341647317    -5.8737647435    -9.5098868038
   75      C      -7.9421947943    -4.5347794530    -9.8288560532
   76      C      -8.1295549431    -3.5554616988    -8.8623184886
   77      H      -5.3912270753    -0.2975392923     5.4390925188
   78      H      -1.8317104668     0.3955165857     3.1745647285
   79      H      -6.9002028184    -2.5332893858     3.3162879022
   80      H      -7.5037756354    -0.9890101712     2.7526635896
   81      H      -7.2846776301    -1.2656253818     4.4799472440
   82      H      -2.5389026176    -1.7484847860     0.5510391388
   83      H      -1.6543901254    -0.2724921446     0.9351784211
   84      H      -3.1619348349    -0.1998324131     0.0216272553
   85      H      -1.0016200604     2.1504745415     6.6891075162
   86      H      -4.4566533606     2.6314333601     4.6166859695
   87      H      -5.8035239326     4.2091875308     5.9283277941
   88      H      -5.7789180339     4.1216056805     8.4067000796
   89      H      -4.3888055497     2.4140437517     9.5457063483
   90      H      -3.0673880945     0.8128388836     8.2392123789
   91      H      -2.0271583651    -1.7985320219     5.3728140381
   92      H       0.1862540881    -2.5978244987     6.0551842201
   93      H       1.8206184464    -1.0450762756     7.0885663147
   94      H       1.1970002409     1.3336987615     7.4072304931
   95      H      -4.1433412314    -3.5601369593     2.6186866696
   96      H      -6.1519333722    -5.9029553058    -1.2848602728
   97      H      -7.8794737042    -1.4254002945    -3.0752851387
   98      H      -5.8812659242     0.9244004204     0.8276080799
   99      H      -2.9208066791    -5.5226974413     4.2022120033
  100      H      -2.0881727968    -7.6602530515     5.1024797534
  101      H      -2.4757239550    -9.7897863726     3.9706904578
  102      H      -3.5725622504   -11.0320005231     1.8577168085
  103      H      -4.8419945041   -10.7861841763    -0.2139565871
  104      H      -5.6208588896    -8.5919859198    -1.0203510360
  105      H      -7.3242953831     5.8180533274    -0.3316388587
  106      H      -6.4826963672     3.6604019397     0.5114897101
  107      H      -8.6116007490     5.9982989802    -2.3988129644
  108      H      -9.1231815450     0.4282691635    -4.6395565582
  109      H     -10.0216048951     2.5261906177    -5.5806933022
  110      H      -9.6866668555     4.6833294577    -4.4893134799
  111      H     -10.2278956823    -5.2717503662    -3.5952644654
  112      H      -6.5766547691    -4.8037165703    -5.8380536454
  113      H     -10.3842484449    -4.6080698241    -1.3703683883
  114      H      -9.4326924846    -3.1670345455    -0.9949072447
  115      H      -8.8794788462    -4.7376092476    -0.4539948525
  116      H      -5.0277086367    -2.5688263258    -3.7200221464
  117      H      -4.6800840106    -3.8461676114    -4.8895687480
  118      H      -4.5028458554    -4.1411854432    -3.1560788458
  119      H      -8.6789322796    -3.1428729270    -6.8297818227
  120      H     -11.3620791266    -5.5391112802    -7.3173707263
  121      H     -13.2003110375    -7.1681583876    -7.1574026741
  122      H     -13.0301387663    -9.0873827822    -5.6059786933
  123      H     -11.0057168932    -9.3753771841    -4.2155632272
  124      H      -9.1512437506    -7.7619554215    -4.3786969192
  125      H      -8.6507818292    -7.2820265449    -7.9784771283
  126      H      -7.9851268233    -6.6381950980   -10.2604317227
  127      H      -7.6517993642    -4.2551791795   -10.8326624359
  128      H      -7.9971615798    -2.5116897900    -9.1122271710
 ----------------------------------------------------------------

   17   -2927.8266665464      9.22E-09 Convergence criterion met
 Total energy in the final basis set = -2927.82666655
 Final energy is   -2927.82666654644
 **  OPTIMIZATION CONVERGED  **

                    Orbital Energies (a.u.)
 --------------------------------------------------------------

 Alpha MOs
 -- Occupied --
-14.768 -14.663 -10.541 -10.530 -10.529 -10.486 -10.486 -10.485
-10.485 -10.484 -10.484 -10.481 -10.481 -10.479 -10.479 -10.478
-10.478 -10.476 -10.476 -10.475 -10.475 -10.472 -10.465 -10.454
-10.453 -10.451 -10.450 -10.449 -10.449 -10.449 -10.449 -10.449
-10.449 -10.448 -10.448 -10.448 -10.448 -10.447 -10.447 -10.447
-10.446 -10.443 -10.443 -10.443 -10.442 -10.440 -10.440 -10.440
-10.439 -10.439 -10.439 -10.439 -10.439 -10.439 -10.438 -10.437
-10.436 -10.436 -10.436 -10.436 -10.435 -10.434 -10.433 -10.433
-10.432 -10.425 -10.425 -10.413 -10.413 -10.411 -10.410 -10.407
-10.407 -10.404  -6.903  -6.899  -1.157  -1.073  -1.001  -1.000
 -0.999  -0.998  -0.976  -0.955  -0.950  -0.943  -0.941  -0.931
 -0.920  -0.920  -0.903  -0.900  -0.888  -0.886  -0.881  -0.873
 -0.872  -0.859  -0.850  -0.845  -0.840  -0.837  -0.835  -0.834
 -0.834  -0.832  -0.831  -0.804  -0.799  -0.796  -0.793  -0.791
 -0.786  -0.785  -0.754  -0.752  -0.751  -0.742  -0.719  -0.718
 -0.716  -0.713  -0.711  -0.704  -0.699  -0.698  -0.675  -0.675
 -0.674  -0.671  -0.669  -0.664  -0.658  -0.648  -0.640  -0.633
 -0.632  -0.629  -0.628  -0.626  -0.600  -0.598  -0.586  -0.586
 -0.582  -0.580  -0.579  -0.578  -0.574  -0.568  -0.560  -0.560
 -0.556  -0.554  -0.553  -0.545  -0.542  -0.534  -0.529  -0.528
 -0.526  -0.525  -0.518  -0.514  -0.513  -0.513  -0.512  -0.506
 -0.502  -0.501  -0.495  -0.492  -0.491  -0.490  -0.488  -0.486
 -0.482  -0.479  -0.477  -0.476  -0.475  -0.474  -0.473  -0.472
 -0.472  -0.471  -0.468  -0.465  -0.464  -0.459  -0.458  -0.454
 -0.451  -0.451  -0.451  -0.450  -0.448  -0.445  -0.444  -0.440
 -0.435  -0.434  -0.431  -0.430  -0.428  -0.427  -0.425  -0.421
 -0.419  -0.416  -0.412  -0.411  -0.409  -0.408  -0.406  -0.399
 -0.397  -0.396  -0.391  -0.390  -0.385  -0.385  -0.385  -0.381
 -0.378  -0.374  -0.373  -0.358  -0.357  -0.353  -0.349  -0.340
 -0.335  -0.335  -0.333  -0.325  -0.321  -0.314  -0.312  -0.309
 -0.302  -0.298  -0.295  -0.290  -0.288  -0.286  -0.274  -0.271
 -0.270  -0.264  -0.254  -0.244  -0.240  -0.214  -0.150

 Beta MOs
 -- Occupied --
-14.759 -14.663 -10.541 -10.531 -10.531 -10.486 -10.486 -10.484
-10.484 -10.483 -10.483 -10.482 -10.482 -10.477 -10.477 -10.476
-10.476 -10.476 -10.476 -10.476 -10.476 -10.472 -10.460 -10.454
-10.454 -10.450 -10.450 -10.450 -10.450 -10.449 -10.449 -10.449
-10.449 -10.448 -10.448 -10.447 -10.447 -10.447 -10.446 -10.446
-10.446 -10.443 -10.443 -10.443 -10.442 -10.440 -10.439 -10.439
-10.439 -10.439 -10.439 -10.439 -10.438 -10.438 -10.438 -10.437
-10.436 -10.436 -10.436 -10.435 -10.435 -10.434 -10.433 -10.433
-10.433 -10.425 -10.425 -10.413 -10.413 -10.410 -10.410 -10.406
-10.406 -10.405  -6.901  -6.897  -1.142  -1.073  -1.000  -1.000
 -0.996  -0.995  -0.971  -0.955  -0.950  -0.941  -0.940  -0.931
 -0.920  -0.919  -0.902  -0.895  -0.887  -0.885  -0.880  -0.871
 -0.870  -0.859  -0.850  -0.845  -0.837  -0.836  -0.833  -0.833
 -0.832  -0.831  -0.829  -0.801  -0.798  -0.795  -0.791  -0.789
 -0.783  -0.781  -0.753  -0.751  -0.746  -0.739  -0.717  -0.716
 -0.714  -0.711  -0.709  -0.703  -0.699  -0.698  -0.675  -0.674
 -0.672  -0.669  -0.668  -0.663  -0.654  -0.646  -0.637  -0.633
 -0.631  -0.628  -0.628  -0.623  -0.600  -0.595  -0.583  -0.583
 -0.579  -0.578  -0.578  -0.572  -0.571  -0.568  -0.559  -0.559
 -0.554  -0.554  -0.550  -0.544  -0.542  -0.533  -0.528  -0.526
 -0.525  -0.524  -0.517  -0.513  -0.513  -0.512  -0.512  -0.505
 -0.501  -0.496  -0.492  -0.491  -0.490  -0.489  -0.487  -0.485
 -0.479  -0.477  -0.476  -0.475  -0.475  -0.473  -0.472  -0.471
 -0.470  -0.467  -0.466  -0.465  -0.460  -0.458  -0.458  -0.453
 -0.451  -0.450  -0.449  -0.448  -0.445  -0.443  -0.442  -0.438
 -0.434  -0.433  -0.429  -0.428  -0.427  -0.427  -0.423  -0.421
 -0.416  -0.415  -0.410  -0.409  -0.406  -0.405  -0.405  -0.398
 -0.396  -0.391  -0.389  -0.384  -0.383  -0.382  -0.381  -0.377
 -0.375  -0.373  -0.370  -0.355  -0.350  -0.348  -0.348  -0.335
 -0.333  -0.328  -0.326  -0.321  -0.319  -0.305  -0.302  -0.298
 -0.298  -0.297  -0.295  -0.289  -0.284  -0.283  -0.272  -0.264
 -0.260  -0.246  -0.241  -0.233  -0.214

          Ground-State Mulliken Net Atomic Charges

     Atom                 Charge (a.u.)    Spin (a.u.)
  --------------------------------------------------------
      1 C                    -0.363879      -0.000781
      2 C                     0.035749       0.003083
      3 C                    -0.186750      -0.023564
      4 C                     0.035233       0.003010
      5 C                    -0.362475      -0.000809
      6 C                     0.277043       0.000638
      7 N                    -0.670705       0.000014
      8 C                    -0.760175       0.000581
      9 C                    -0.760777       0.000667
     10 C                     0.307544      -0.000014
     11 C                    -0.298567       0.000032
     12 C                    -0.293109       0.000031
     13 C                     0.298123      -0.000018
     14 C                    -0.234513      -0.000026
     15 C                    -0.263368       0.000036
     16 C                    -0.236621      -0.000025
     17 C                    -0.298397       0.000034
     18 C                    -0.301405       0.000032
     19 C                    -0.234407      -0.000025
     20 C                    -0.265003       0.000035
     21 C                    -0.236004      -0.000024
     22 C                    -0.134251       0.022705
     23 C                    -0.145834       0.062857
     24 B                     0.571780       0.274137
     25 C                    -0.145399       0.064596
     26 C                    -0.135308       0.020077
     27 B                     0.553170       0.331863
     28 C                    -0.407540      -0.058072
     29 C                     0.078965       0.093905
     30 C                     0.062532       0.037597
     31 C                    -0.408234      -0.011616
     32 C                    -0.403518      -0.014066
     33 C                     0.061716       0.040392
     34 C                     0.082407       0.092629
     35 C                    -0.413166      -0.056899
     36 C                    -0.406529       0.085862
     37 C                    -0.224548      -0.053333
     38 C                    -0.360522       0.078172
     39 C                     0.227056      -0.038076
     40 C                    -0.078487       0.023511
     41 C                     0.181089      -0.057565
     42 C                    -0.357818       0.064584
     43 C                    -0.226184      -0.045788
     44 C                    -0.404563       0.069295
     45 C                     0.182416      -0.044012
     46 C                    -0.224037      -0.053681
     47 C                    -0.407651       0.086153
     48 C                     0.179928      -0.057524
     49 C                    -0.078232       0.023740
     50 C                     0.228774      -0.038548
     51 C                    -0.362274       0.078599
     52 C                     0.180505      -0.045076
     53 C                    -0.402081       0.071000
     54 C                    -0.226911      -0.046799
     55 C                    -0.357903       0.066468
     56 C                    -0.359286       0.161723
     57 C                     0.049820      -0.121277
     58 C                    -0.146194       0.352613
     59 C                     0.051327      -0.122110
     60 C                    -0.358530       0.162199
     61 C                     0.342139       0.013504
     62 N                    -0.578140       0.363530
     63 C                    -0.756761       0.009684
     64 C                    -0.755349       0.009942
     65 C                     0.245835      -0.069801
     66 C                    -0.252541       0.095722
     67 C                    -0.258135       0.091967
     68 C                     0.251529      -0.070880
     69 C                    -0.234226      -0.062095
     70 C                    -0.227819       0.107105
     71 C                    -0.235500      -0.066662
     72 C                    -0.256146       0.096529
     73 C                    -0.256935       0.090356
     74 C                    -0.234404      -0.060997
     75 C                    -0.227500       0.105689
     76 C                    -0.235702      -0.065940
     77 H                     0.237199       0.000339
     78 H                     0.236735       0.000334
     79 H                     0.245507      -0.000682
     80 H                     0.245163      -0.000758
     81 H                     0.237740       0.001448
     82 H                     0.245614      -0.000749
     83 H                     0.237667       0.001436
     84 H                     0.245303      -0.000729
     85 H                     0.257033      -0.000002
     86 H                     0.257565      -0.000002
     87 H                     0.240488       0.000002
     88 H                     0.236864      -0.000002
     89 H                     0.240172       0.000001
     90 H                     0.256987      -0.000002
     91 H                     0.258689      -0.000001
     92 H                     0.240054       0.000002
     93 H                     0.236146      -0.000002
     94 H                     0.239565       0.000001
     95 H                     0.226512       0.002352
     96 H                     0.205570      -0.001252
     97 H                     0.204263      -0.001423
     98 H                     0.224865       0.002292
     99 H                     0.235168      -0.005030
    100 H                     0.241327       0.002575
    101 H                     0.236461      -0.004603
    102 H                     0.236700      -0.003763
    103 H                     0.238521       0.002255
    104 H                     0.225557      -0.004087
    105 H                     0.241457       0.002592
    106 H                     0.236231      -0.005042
    107 H                     0.236437      -0.004629
    108 H                     0.223669      -0.004188
    109 H                     0.237943       0.002304
    110 H                     0.236425      -0.003880
    111 H                     0.287269      -0.008325
    112 H                     0.287622      -0.008306
    113 H                     0.247188       0.001045
    114 H                     0.268413      -0.004539
    115 H                     0.266163      -0.003440
    116 H                     0.267391      -0.003494
    117 H                     0.247000       0.001009
    118 H                     0.265998      -0.004478
    119 H                     0.287015      -0.004935
    120 H                     0.283167      -0.004784
    121 H                     0.267447       0.003212
    122 H                     0.266735      -0.005867
    123 H                     0.268779       0.003652
    124 H                     0.287857      -0.004955
    125 H                     0.282852      -0.004706
    126 H                     0.267287       0.003151
    127 H                     0.266821      -0.005790
    128 H                     0.269035       0.003645
  --------------------------------------------------------
  Sum of atomic charges =    -0.000000

                    Cartesian Multipole Moments
 -----------------------------------------------------------------
    Charge (ESU x 10^10)
                -0.0000
    Dipole Moment (Debye)
         X     -12.2695      Y     -12.3760      Z     -22.5674
       Tot      28.5131
    Quadrupole Moments (Debye-Ang)
        XX    -242.4877     XY     149.0283     YY    -323.3992
        XZ     205.8435     YZ     126.5796     ZZ    -279.3051

 Total job time:  133672.86s(wall), 546662.46s(cpu)
        *  Thank you very much for using Q-Chem.  Have a nice day.  *
