 Q-Chem 5.0, Q-Chem, Inc., Pleasanton, CA (2017)
 Q-Chem 5.0.1 for Intel X86 EM64T Linux

User input:
--------------------------------------------------------------
$rem
threads 8
jobtype opt
method PBEh-3c
basis def2-mSVP
mem_static      1024
mem_total       8000
sym_ignore      true
unrestricted true
scf_algorithm	diis
scf_max_cycles	250
solvent_method  pcm
geom_opt_tol_energy 25
geom_opt_tol_gradient 75
$end

$pcm
theory  iefpcm
$end

$solvent
dielectric      2.38
$end

$molecule
read uincoords.mol
$end
--------------------------------------------------------------

   21   -2927.8089585656      8.46E-09 Convergence criterion met
 Total energy in the final basis set = -2927.80895857
   17   -2927.8091198004      7.32E-09 Convergence criterion met
 Total energy in the final basis set = -2927.80911980
   16   -2927.8090819861      9.83E-09 Convergence criterion met
 Total energy in the final basis set = -2927.80908199
   16   -2927.8091152729      9.25E-09 Convergence criterion met
 Total energy in the final basis set = -2927.80911527
   16   -2927.8091430506      9.10E-09 Convergence criterion met
 Total energy in the final basis set = -2927.80914305
   16   -2927.8092642796      8.66E-09 Convergence criterion met
 Total energy in the final basis set = -2927.80926428
   16   -2927.8094110431      8.55E-09 Convergence criterion met
 Total energy in the final basis set = -2927.80941104
   16   -2927.8097058253      8.66E-09 Convergence criterion met
   16   -2927.8126822743      8.50E-09 Convergence criterion met
 Total energy in the final basis set = -2927.81268227
   16   -2927.8127063020      9.09E-09 Convergence criterion met
 Total energy in the final basis set = -2927.81270630
   16   -2927.8127171206      9.23E-09 Convergence criterion met
 Total energy in the final basis set = -2927.81271712
   16   -2927.8127288849      9.46E-09 Convergence criterion met
 Total energy in the final basis set = -2927.81272888
   16   -2927.8127314720      9.43E-09 Convergence criterion met
 Total energy in the final basis set = -2927.81273147
   16   -2927.8127382656      9.46E-09 Convergence criterion met
 Total energy in the final basis set = -2927.81273827

             Standard Nuclear Orientation (Angstroms)
    I     Atom           X                Y                Z
 ----------------------------------------------------------------
    1      C      -4.8432176629    -0.3741330502     4.5060637224
    2      C      -5.4466360714    -0.9465989041     3.3926573817
    3      C      -4.7424324867    -1.0685356941     2.1883411339
    4      C      -3.4297786071    -0.5824487291     2.1263117413
    5      C      -2.8463617738     0.0131233783     3.2381612377
    6      C      -3.5441542181     0.1105043622     4.4353666146
    7      N      -2.9353526869     0.6902414452     5.5719175166
    8      C      -6.8558607072    -1.4629439578     3.4912799543
    9      C      -2.6521088824    -0.7031130460     0.8452488750
   10      C      -1.6787550885     0.2325179913     5.9869686511
   11      C      -0.7555186382     1.1059243361     6.5649083196
   12      C      -4.4500589208     2.5754564140     5.6929649626
   13      C      -3.6644130587     1.6150970014     6.3325375793
   14      C      -5.2113966872     3.4636582064     6.4331996837
   15      C      -5.1915825414     3.4270669963     7.8209057370
   16      C      -4.4034082704     2.4801552156     8.4592932546
   17      C      -3.6526610553     1.5743009496     7.7269943514
   18      C      -1.3208806469    -1.1056005913     5.8112221729
   19      C      -0.0683950633    -1.5519119454     6.1978733886
   20      C       0.8435380459    -0.6847822128     6.7830379759
   21      C       0.4867350199     0.6440469354     6.9670197898
   22      C      -6.7376961423    -1.6595839788    -1.2521147924
   23      C      -6.1631128623    -0.9847904059    -0.1303226046
   24      B      -5.3987156162    -1.7834342231     0.9396978898
   25      C      -5.2690706156    -3.3105488425     0.7915632027
   26      C      -5.8465404821    -3.9806126505    -0.3305479980
   27      B      -6.5976099758    -3.1748778210    -1.3843136977
   28      C      -4.5834231803    -4.0689535191     1.7616984876
   29      C      -4.4679616343    -5.4334881500     1.6388257205
   30      C      -5.0460749528    -6.0972889661     0.5160328948
   31      C      -5.7161219145    -5.3813747564    -0.4415190094
   32      C      -7.4363658278    -0.9108646506    -2.2213501983
   33      C      -7.5668268238     0.4474635666    -2.0955218647
   34      C      -6.9943580625     1.1283595533    -0.9808754955
   35      C      -6.3098541758     0.4135602568    -0.0241554946
   36      C      -3.1251616003    -6.4442058976     3.6544348603
   37      C      -2.6507393961    -7.6750972217     4.1657313564
   38      C      -2.8659606411    -8.8769122322     3.5308750759
   39      C      -3.5893112268    -8.9122173000     2.3140276826
   40      C      -4.0440495370    -7.6859797183     1.8344868118
   41      C      -3.8300181065    -6.4480360047     2.4762118975
   42      C      -3.9011170384   -10.0488548191     1.5278467820
   43      C      -4.6156960699    -9.9039562640     0.3604958987
   44      C      -5.0640837496    -8.6459833962    -0.1038712492
   45      C      -4.7761298561    -7.5282501612     0.6406628907
   46      C      -7.5196831954     4.9267212302    -0.8958923477
   47      C      -7.0348655620     3.6898119760    -0.4087744883
   48      C      -7.2991983877     2.5512086250    -1.1280288885
   49      C      -8.0448016255     2.6786178869    -2.3196874486
   50      C      -8.5366878667     3.8793779649    -2.8226226545
   51      C      -8.2472936371     5.0367974114    -2.0592026150
   52      C      -8.2341987324     1.4287810737    -2.9422901397
   53      C      -8.9458994150     1.3754949316    -4.1150669809
   54      C      -9.4569972945     2.5806052360    -4.6477695633
   55      C      -9.2669156829     3.7984371369    -4.0343769806
   56      C      -9.1899507749    -4.9601578387    -3.6381185902
   57      C      -8.5954393920    -4.3791127378    -2.5457579277
   58      C      -7.2577082092    -3.9069180679    -2.6211055230
   59      C      -6.5371955927    -4.0782362380    -3.8329917018
   60      C      -7.1411764564    -4.6486700639    -4.9255987270
   61      C      -8.4809833406    -5.0885782395    -4.8526954953
   62      N      -9.0881939216    -5.6221481269    -5.9520934220
   63      C      -9.3668187808    -4.2057434102    -1.2747908663
   64      C      -5.1091114053    -3.6361209814    -3.9097553185
   65      C      -8.6733364511    -5.2754442741    -7.2590109207
   66      C      -8.4833549527    -3.9373433149    -7.5962498978
   67      C     -11.2982522745    -6.3545672435    -6.6256830187
   68      C     -10.1658974586    -6.5296233529    -5.8335170756
   69      C     -12.3408656592    -7.2583385722    -6.5284522249
   70      C     -12.2562230468    -8.3342137555    -5.6537277176
   71      C     -11.1217896108    -8.5070709216    -4.8728272222
   72      C     -10.0706748933    -7.6103111211    -4.9601534815
   73      C      -8.4993890991    -6.2787168597    -8.2094210510
   74      C      -8.1145249618    -5.9378092997    -9.4934107159
   75      C      -7.9117655791    -4.6062631139    -9.8340607929
   76      C      -8.0988777300    -3.6101690617    -8.8854592003
   77      H      -5.3929047618    -0.3037293384     5.4379166161
   78      H      -1.8335028498     0.3948451686     3.1770286931
   79      H      -6.8992001616    -2.5387010953     3.3080756697
   80      H      -7.5026437082    -0.9929508830     2.7477511548
   81      H      -7.2863020397    -1.2742947449     4.4746655852
   82      H      -2.5418513157    -1.7487164512     0.5490428395
   83      H      -1.6536040028    -0.2754817669     0.9355678028
   84      H      -3.1613251643    -0.1974989651     0.0224321771
   85      H      -1.0116597857     2.1495594213     6.6947518364
   86      H      -4.4718484286     2.6146284303     4.6113173784
   87      H      -5.8195442925     4.1962693202     5.9179759353
   88      H      -5.7853524945     4.1247746741     8.3963237645
   89      H      -4.3850155974     2.4295642195     9.5405319020
   90      H      -3.0623079558     0.8251971047     8.2387402645
   91      H      -2.0249653476    -1.7967678988     5.3663772435
   92      H       0.1902445560    -2.5926805863     6.0491238045
   93      H       1.8189759910    -1.0389814545     7.0888006353
   94      H       1.1888414931     1.3369232141     7.4129919480
   95      H      -4.1445273439    -3.5616195077     2.6141220422
   96      H      -6.1510458483    -5.8996955665    -1.2922794701
   97      H      -7.8779181491    -1.4156121278    -3.0764296884
   98      H      -5.8739475186     0.9235482956     0.8288965899
   99      H      -2.9265110646    -5.5283590832     4.1966536909
  100      H      -2.0957001015    -7.6672522094     5.0951684623
  101      H      -2.4824303192    -9.7945630529     3.9604175800
  102      H      -3.5774409650   -11.0332179123     1.8443190755
  103      H      -4.8438601983   -10.7841757381    -0.2278631507
  104      H      -5.6206564430    -8.5881915757    -1.0317129283
  105      H      -7.3075000964     5.8219442396    -0.3253801014
  106      H      -6.4691521700     3.6617268579     0.5140168964
  107      H      -8.5971263468     6.0071111538    -2.3898727303
  108      H      -9.1228189091     0.4411435673    -4.6346447649
  109      H     -10.0192568148     2.5416002656    -5.5725183465
  110      H      -9.6781528278     4.6961756710    -4.4798652448
  111      H     -10.2275209190    -5.2654842403    -3.5891028138
  112      H      -6.5776863129    -4.8005947970    -5.8373694192
  113      H     -10.3797700789    -4.5972293114    -1.3605319460
  114      H      -9.4270819053    -3.1525768796    -0.9969290461
  115      H      -8.8692792160    -4.7179256877    -0.4498380371
  116      H      -5.0270548091    -2.5653211108    -3.7171173393
  117      H      -4.6760024977    -3.8426110978    -4.8875476745
  118      H      -4.5048198448    -4.1368084225    -3.1522590567
  119      H      -8.6564526834    -3.1603533862    -6.8629730054
  120      H     -11.3677460311    -5.5116494285    -7.3009960919
  121      H     -13.2258653506    -7.1186788791    -7.1342372483
  122      H     -13.0731633813    -9.0398180047    -5.5840891094
  123      H     -11.0472661427    -9.3516848672    -4.2014889541
  124      H      -9.1747506968    -7.7589743662    -4.3713408268
  125      H      -8.6512829418    -7.3162276399    -7.9417466375
  126      H      -7.9666803503    -6.7157921583   -10.2301207240
  127      H      -7.6131219173    -4.3455717209   -10.8404641292
  128      H      -7.9571074601    -2.5716340237    -9.1514771965
 ----------------------------------------------------------------

   16   -2927.8127411824      9.54E-09 Convergence criterion met
 Total energy in the final basis set = -2927.81274118
 Final energy is   -2927.81274118237
 **  OPTIMIZATION CONVERGED  **

                    Orbital Energies (a.u.)
 --------------------------------------------------------------

 Alpha MOs
 -- Occupied --
-14.771 -14.658 -10.548 -10.535 -10.535 -10.491 -10.491 -10.490
-10.490 -10.486 -10.485 -10.484 -10.484 -10.483 -10.483 -10.482
-10.482 -10.482 -10.482 -10.481 -10.481 -10.469 -10.466 -10.449
-10.449 -10.447 -10.447 -10.446 -10.446 -10.445 -10.445 -10.445
-10.445 -10.444 -10.444 -10.444 -10.443 -10.443 -10.443 -10.443
-10.442 -10.439 -10.439 -10.438 -10.438 -10.436 -10.435 -10.435
-10.435 -10.435 -10.434 -10.434 -10.434 -10.434 -10.433 -10.433
-10.433 -10.433 -10.432 -10.432 -10.431 -10.431 -10.431 -10.428
-10.427 -10.419 -10.419 -10.408 -10.408 -10.407 -10.406 -10.402
-10.401 -10.399  -6.900  -6.895  -1.162  -1.068  -1.004  -1.004
 -0.996  -0.995  -0.982  -0.951  -0.945  -0.938  -0.936  -0.926
 -0.917  -0.916  -0.908  -0.904  -0.892  -0.884  -0.879  -0.878
 -0.876  -0.854  -0.845  -0.843  -0.841  -0.833  -0.833  -0.831
 -0.830  -0.827  -0.826  -0.800  -0.797  -0.795  -0.792  -0.788
 -0.787  -0.780  -0.756  -0.748  -0.747  -0.746  -0.726  -0.718
 -0.714  -0.711  -0.709  -0.700  -0.695  -0.694  -0.679  -0.676
 -0.671  -0.670  -0.665  -0.660  -0.654  -0.645  -0.644  -0.632
 -0.629  -0.626  -0.624  -0.624  -0.603  -0.596  -0.592  -0.589
 -0.587  -0.577  -0.576  -0.574  -0.570  -0.565  -0.562  -0.558
 -0.556  -0.554  -0.550  -0.549  -0.538  -0.536  -0.532  -0.529
 -0.525  -0.524  -0.522  -0.521  -0.510  -0.509  -0.509  -0.504
 -0.503  -0.499  -0.499  -0.492  -0.488  -0.486  -0.485  -0.485
 -0.482  -0.476  -0.475  -0.473  -0.472  -0.472  -0.470  -0.470
 -0.469  -0.467  -0.466  -0.464  -0.462  -0.457  -0.456  -0.456
 -0.454  -0.452  -0.451  -0.447  -0.446  -0.444  -0.443  -0.439
 -0.438  -0.437  -0.436  -0.429  -0.425  -0.422  -0.421  -0.416
 -0.415  -0.412  -0.412  -0.408  -0.407  -0.404  -0.402  -0.400
 -0.396  -0.391  -0.386  -0.385  -0.381  -0.381  -0.380  -0.378
 -0.374  -0.370  -0.368  -0.354  -0.352  -0.350  -0.346  -0.344
 -0.339  -0.337  -0.330  -0.329  -0.317  -0.316  -0.315  -0.304
 -0.297  -0.293  -0.290  -0.285  -0.283  -0.281  -0.276  -0.267
 -0.266  -0.258  -0.250  -0.239  -0.235  -0.208  -0.146

 Beta MOs
 -- Occupied --
-14.762 -14.658 -10.547 -10.536 -10.536 -10.490 -10.490 -10.489
-10.489 -10.487 -10.486 -10.483 -10.483 -10.483 -10.483 -10.482
-10.482 -10.481 -10.481 -10.481 -10.481 -10.466 -10.464 -10.450
-10.450 -10.447 -10.446 -10.446 -10.446 -10.445 -10.445 -10.445
-10.444 -10.444 -10.444 -10.444 -10.444 -10.442 -10.442 -10.442
-10.442 -10.439 -10.439 -10.438 -10.438 -10.436 -10.435 -10.435
-10.435 -10.434 -10.434 -10.434 -10.433 -10.433 -10.433 -10.433
-10.433 -10.432 -10.432 -10.432 -10.431 -10.431 -10.431 -10.428
-10.427 -10.419 -10.419 -10.408 -10.408 -10.406 -10.406 -10.401
-10.400 -10.399  -6.897  -6.892  -1.147  -1.068  -1.002  -1.000
 -0.996  -0.995  -0.977  -0.951  -0.945  -0.937  -0.935  -0.926
 -0.916  -0.915  -0.907  -0.899  -0.891  -0.883  -0.878  -0.877
 -0.876  -0.854  -0.845  -0.841  -0.836  -0.832  -0.831  -0.830
 -0.829  -0.827  -0.826  -0.797  -0.794  -0.793  -0.791  -0.786
 -0.783  -0.779  -0.751  -0.748  -0.746  -0.745  -0.723  -0.717
 -0.713  -0.709  -0.708  -0.700  -0.695  -0.693  -0.677  -0.674
 -0.671  -0.670  -0.664  -0.659  -0.651  -0.643  -0.642  -0.630
 -0.628  -0.626  -0.624  -0.624  -0.601  -0.596  -0.589  -0.583
 -0.577  -0.576  -0.575  -0.574  -0.568  -0.564  -0.559  -0.557
 -0.555  -0.553  -0.549  -0.547  -0.537  -0.535  -0.530  -0.528
 -0.524  -0.522  -0.521  -0.520  -0.509  -0.509  -0.508  -0.501
 -0.500  -0.498  -0.494  -0.491  -0.486  -0.485  -0.484  -0.481
 -0.476  -0.475  -0.473  -0.472  -0.472  -0.471  -0.469  -0.469
 -0.466  -0.465  -0.465  -0.463  -0.461  -0.456  -0.455  -0.454
 -0.451  -0.451  -0.448  -0.446  -0.446  -0.443  -0.442  -0.437
 -0.436  -0.434  -0.433  -0.429  -0.424  -0.422  -0.419  -0.416
 -0.412  -0.411  -0.410  -0.406  -0.404  -0.401  -0.400  -0.394
 -0.391  -0.386  -0.385  -0.381  -0.378  -0.378  -0.378  -0.377
 -0.373  -0.369  -0.367  -0.351  -0.346  -0.345  -0.343  -0.342
 -0.334  -0.330  -0.329  -0.320  -0.315  -0.310  -0.300  -0.297
 -0.293  -0.293  -0.290  -0.284  -0.279  -0.279  -0.267  -0.258
 -0.255  -0.242  -0.236  -0.227  -0.208

          Ground-State Mulliken Net Atomic Charges

     Atom                 Charge (a.u.)    Spin (a.u.)
  --------------------------------------------------------
      1 C                    -0.358937      -0.000778
      2 C                     0.040543       0.003061
      3 C                    -0.189427      -0.023057
      4 C                     0.040190       0.002989
      5 C                    -0.357602      -0.000805
      6 C                     0.274996       0.000665
      7 N                    -0.671195       0.000048
      8 C                    -0.758171       0.000584
      9 C                    -0.758780       0.000671
     10 C                     0.308894      -0.000023
     11 C                    -0.294490       0.000043
     12 C                    -0.287949       0.000043
     13 C                     0.299524      -0.000027
     14 C                    -0.227079      -0.000035
     15 C                    -0.256219       0.000050
     16 C                    -0.229394      -0.000034
     17 C                    -0.294550       0.000045
     18 C                    -0.296033       0.000045
     19 C                    -0.226957      -0.000034
     20 C                    -0.257642       0.000049
     21 C                    -0.228812      -0.000033
     22 C                    -0.130824       0.015922
     23 C                    -0.145784       0.069089
     24 B                     0.586464       0.267261
     25 C                    -0.145418       0.070350
     26 C                    -0.131667       0.013315
     27 B                     0.553887       0.342196
     28 C                    -0.403781      -0.062437
     29 C                     0.085411       0.100417
     30 C                     0.069276       0.029077
     31 C                    -0.406077      -0.004026
     32 C                    -0.400926      -0.006738
     33 C                     0.068307       0.032063
     34 C                     0.088935       0.099678
     35 C                    -0.409488      -0.061744
     36 C                    -0.402051       0.086917
     37 C                    -0.216211      -0.053615
     38 C                    -0.356392       0.078968
     39 C                     0.236658      -0.037488
     40 C                    -0.077257       0.023176
     41 C                     0.187569      -0.058709
     42 C                    -0.353419       0.061650
     43 C                    -0.217933      -0.044045
     44 C                    -0.400445       0.065789
     45 C                     0.188956      -0.041338
     46 C                    -0.215651      -0.054245
     47 C                    -0.403366       0.087684
     48 C                     0.186359      -0.058935
     49 C                    -0.077119       0.023512
     50 C                     0.238395      -0.038159
     51 C                    -0.358223       0.079857
     52 C                     0.187067      -0.042554
     53 C                    -0.397800       0.067810
     54 C                    -0.218630      -0.045266
     55 C                    -0.353531       0.063856
     56 C                    -0.361033       0.149945
     57 C                     0.054628      -0.111651
     58 C                    -0.141547       0.373418
     59 C                     0.055968      -0.112333
     60 C                    -0.359918       0.150417
     61 C                     0.345075       0.038826
     62 N                    -0.585027       0.341038
     63 C                    -0.754197       0.009078
     64 C                    -0.752597       0.009360
     65 C                     0.246077      -0.066921
     66 C                    -0.252086       0.087794
     67 C                    -0.255365       0.083117
     68 C                     0.249422      -0.067250
     69 C                    -0.228755      -0.055612
     70 C                    -0.223851       0.095186
     71 C                    -0.230093      -0.060206
     72 C                    -0.254754       0.087485
     73 C                    -0.254919       0.082778
     74 C                    -0.228730      -0.055424
     75 C                    -0.223750       0.095259
     76 C                    -0.230161      -0.060311
     77 H                     0.232840       0.000333
     78 H                     0.232061       0.000329
     79 H                     0.245784      -0.000668
     80 H                     0.245264      -0.000740
     81 H                     0.233167       0.001427
     82 H                     0.245892      -0.000738
     83 H                     0.232998       0.001416
     84 H                     0.245535      -0.000708
     85 H                     0.252904      -0.000002
     86 H                     0.254117      -0.000002
     87 H                     0.231913       0.000002
     88 H                     0.228158      -0.000003
     89 H                     0.231443       0.000002
     90 H                     0.253109      -0.000002
     91 H                     0.255275      -0.000002
     92 H                     0.231533       0.000002
     93 H                     0.227510      -0.000003
     94 H                     0.230838       0.000002
     95 H                     0.224245       0.002620
     96 H                     0.193753      -0.001773
     97 H                     0.191981      -0.001927
     98 H                     0.222632       0.002580
     99 H                     0.227013      -0.005118
    100 H                     0.232542       0.002601
    101 H                     0.226533      -0.004690
    102 H                     0.226790      -0.003611
    103 H                     0.227923       0.002195
    104 H                     0.212587      -0.003915
    105 H                     0.232643       0.002632
    106 H                     0.228190      -0.005158
    107 H                     0.226504      -0.004743
    108 H                     0.210009      -0.004038
    109 H                     0.227116       0.002254
    110 H                     0.226506      -0.003747
    111 H                     0.281479      -0.007888
    112 H                     0.281490      -0.007880
    113 H                     0.240590       0.001119
    114 H                     0.273448      -0.004116
    115 H                     0.270850      -0.002980
    116 H                     0.272080      -0.002998
    117 H                     0.240385       0.001072
    118 H                     0.270698      -0.004081
    119 H                     0.280944      -0.004570
    120 H                     0.275572      -0.004368
    121 H                     0.260712       0.002892
    122 H                     0.260223      -0.005243
    123 H                     0.262778       0.003363
    124 H                     0.281375      -0.004533
    125 H                     0.275316      -0.004353
    126 H                     0.260501       0.002873
    127 H                     0.260357      -0.005246
    128 H                     0.263298       0.003383
  --------------------------------------------------------
  Sum of atomic charges =    -0.000000

                    Cartesian Multipole Moments
 -----------------------------------------------------------------
    Charge (ESU x 10^10)
                -0.0000
    Dipole Moment (Debye)
         X     -11.4914      Y     -11.6331      Z     -21.1258
       Tot      26.7148
    Quadrupole Moments (Debye-Ang)
        XX    -256.2988     XY     140.6350     YY    -334.6460
        XZ     190.5577     YZ     118.3277     ZZ    -293.0716

 Total job time:  131117.74s(wall), 508923.48s(cpu)
        *  Thank you very much for using Q-Chem.  Have a nice day.  *
