 Q-Chem 5.0, Q-Chem, Inc., Pleasanton, CA (2017)
 Q-Chem 5.0.1 for Intel X86 EM64T Linux

User input:
--------------------------------------------------------------
$rem
threads 8
jobtype opt
method PBEh-3c
basis def2-mSVP
mem_static      1024
mem_total       8000
sym_ignore      true
unrestricted true
scf_algorithm   diis
scf_max_cycles  250
solvent_method  pcm
geom_opt_tol_energy 25
geom_opt_tol_gradient 75
$end

$pcm
theory  iefpcm
$end

$solvent
dielectric      2.03
$end

$molecule
read uincoords.mol
$end

--------------------------------------------------------------

   21   -2927.8044601596      9.35E-09 Convergence criterion met
 Total energy in the final basis set = -2927.80446016
   16   -2927.8045964940      9.37E-09 Convergence criterion met
 Total energy in the final basis set = -2927.80459649
   16   -2927.8045613513      8.59E-09 Convergence criterion met
 Total energy in the final basis set = -2927.80456135
   16   -2927.8045898384      8.07E-09 Convergence criterion met
 Total energy in the final basis set = -2927.80458984
   16   -2927.8046223556      7.89E-09 Convergence criterion met
 Total energy in the final basis set = -2927.80462236
   15   -2927.8047541921      9.98E-09 Convergence criterion met
 Total energy in the final basis set = -2927.80475419
   15   -2927.8049084885      9.88E-09 Convergence criterion met
 Total energy in the final basis set = -2927.80490849
   15   -2927.8051860806      9.71E-09 Convergence criterion met
   16   -2927.8082385037      8.22E-09 Convergence criterion met
 Total energy in the final basis set = -2927.80823850
   16   -2927.8082492905      8.37E-09 Convergence criterion met
 Total energy in the final basis set = -2927.80824929
   16   -2927.8082608785      8.44E-09 Convergence criterion met
 Total energy in the final basis set = -2927.80826088
   16   -2927.8082764485      8.37E-09 Convergence criterion met
 Total energy in the final basis set = -2927.80827645
   16   -2927.8082850267      8.28E-09 Convergence criterion met
 Total energy in the final basis set = -2927.80828503
   16   -2927.8082857311      8.32E-09 Convergence criterion met
 Total energy in the final basis set = -2927.80828573

             Standard Nuclear Orientation (Angstroms)
    I     Atom           X                Y                Z
 ----------------------------------------------------------------
    1      C      -4.8430134188    -0.3751233261     4.5049546315
    2      C      -5.4459331743    -0.9473769960     3.3913380417
    3      C      -4.7413927547    -1.0681468124     2.1871689024
    4      C      -3.4291075070    -0.5814142652     2.1253260051
    5      C      -2.8462565424     0.0140285854     3.2374495977
    6      C      -3.5443313137     0.1104192937     4.4344361413
    7      N      -2.9359423593     0.6899841385     5.5714339811
    8      C      -6.8547277111    -1.4649520533     3.4890892237
    9      C      -2.6516288701    -0.7015883818     0.8441370401
   10      C      -1.6802527265     0.2309818181     5.9873627738
   11      C      -0.7569163471     1.1029028859     6.5672978185
   12      C      -4.4515899182     2.5743330688     5.6901506544
   13      C      -3.6648587595     1.6156736131     6.3308825962
   14      C      -5.2129898279     3.4632524938     6.4292196553
   15      C      -5.1923777361     3.4292905788     7.8168667686
   16      C      -4.4032325419     2.4841380732     8.4563925553
   17      C      -3.6523384156     1.5775231124     7.7253916149
   18      C      -1.3230760129    -1.1070817129     5.8102032096
   19      C      -0.0714497107    -1.5547360083     6.1976625590
   20      C       0.8404253890    -0.6891817731     6.7849694876
   21      C       0.4844254339     0.6395759297     6.9701480293
   22      C      -6.7378626665    -1.6582463559    -1.2521899199
   23      C      -6.1627527312    -0.9837881325    -0.1307518602
   24      B      -5.3972437632    -1.7827508521     0.9384058087
   25      C      -5.2667432011    -3.3097341726     0.7895066197
   26      C      -5.8442095057    -3.9795791159    -0.3324516413
   27      B      -6.5961645764    -3.1729306696    -1.3843673043
   28      C      -4.5803197317    -4.0679862109     1.7589397313
   29      C      -4.4640348495    -5.4323811425     1.6355102649
   30      C      -5.0419808110    -6.0959861151     0.5127162339
   31      C      -5.7127882399    -5.3802420890    -0.4441588725
   32      C      -7.4382523253    -0.9095779279    -2.2202904775
   33      C      -7.5694536428     0.4484186079    -2.0936357635
   34      C      -6.9960537164     1.1290630929    -0.9795373932
   35      C      -6.3101709963     0.4142207557    -0.0238298677
   36      C      -3.1202627456    -6.4432168347     3.6501358116
   37      C      -2.6449864987    -7.6739279151     4.1608122244
   38      C      -2.8595875047    -8.8755021861     3.5256074850
   39      C      -3.5831667305    -8.9107727127     2.3089972431
   40      C      -4.0387142996    -7.6846939007     1.8301239480
   41      C      -3.8253131848    -6.4468786871     2.4721873790
   42      C      -3.8945213483   -10.0471228347     1.5224447713
   43      C      -4.6093940922    -9.9022295188     0.3554251678
   44      C      -5.0585690988    -8.6443745667    -0.1081542429
   45      C      -4.7711550375    -7.5268638868     0.6366616831
   46      C      -7.5234799147     4.9268628416    -0.8923036728
   47      C      -7.0372518631     3.6900890215    -0.4065078698
   48      C      -7.3018270250     2.5517102067    -1.1257705376
   49      C      -8.0491397839     2.6793156850    -2.3162737075
   50      C      -8.5425479087     3.8798832998    -2.8178737980
   51      C      -8.2527639238     5.0370509078    -2.0543799903
   52      C      -8.2386993254     1.4296897986    -2.9390265521
   53      C      -8.9522830876     1.3765334146    -4.1104934390
   54      C      -9.4650163388     2.5813849967    -4.6419178123
   55      C      -9.2746120508     3.7989414347    -4.0283764420
   56      C      -9.1886295717    -4.9607614386    -3.6353874996
   57      C      -8.5941538830    -4.3794749839    -2.5437740075
   58      C      -7.2564860672    -3.9049976581    -2.6203321195
   59      C      -6.5368142592    -4.0752173849    -3.8337243890
   60      C      -7.1412957470    -4.6457329611    -4.9254483387
   61      C      -8.4807792439    -5.0877924003    -4.8513142475
   62      N      -9.0881496955    -5.6220601212    -5.9495766707
   63      C      -9.3632363893    -4.2066888862    -1.2717042210
   64      C      -5.1096183878    -3.6312134387    -3.9106457352
   65      C      -8.6716028836    -5.2801137616    -7.2577094642
   66      C      -8.4823558446    -3.9434675005    -7.6003108696
   67      C     -11.3014675684    -6.3486713133    -6.6202443154
   68      C     -10.1684510370    -6.5271278062    -5.8302521712
   69      C     -12.3460505729    -7.2502345358    -6.5227349018
   70      C     -12.2628170823    -8.3272107204    -5.6494743614
   71      C     -11.1276907728    -8.5035242878    -4.8706146548
   72      C     -10.0745419336    -7.6091629448    -4.9587621100
   73      C      -8.4959307428    -6.2866894669    -8.2039437695
   74      C      -8.1101126326    -5.9507143324    -9.4889996507
   75      C      -7.9077232973    -4.6206047158    -9.8348065517
   76      C      -8.0964167815    -3.6210762598    -8.8903440970
   77      H      -5.3925917141    -0.3051719169     5.4368750629
   78      H      -1.8336008917     0.3963208022     3.1770349499
   79      H      -6.8968389914    -2.5408635710     3.3064892176
   80      H      -7.5012375245    -0.9958926861     2.7447536164
   81      H      -7.2861739100    -1.2760958426     4.4719953291
   82      H      -2.5402965826    -1.7472129603     0.5484215677
   83      H      -1.6535847655    -0.2728063843     0.9340352883
   84      H      -3.1616846029    -0.1968544804     0.0213289247
   85      H      -1.0125885962     2.1465142617     6.6979919018
   86      H      -4.4741258260     2.6111224643     4.6084771533
   87      H      -5.8220316174     4.1944192575     5.9130284284
   88      H      -5.7863062378     4.1276148195     8.3913330801
   89      H      -4.3841833264     2.4354768325     9.5376958186
   90      H      -3.0611601612     0.8296934175     8.2379842961
   91      H      -2.0272577540    -1.7968114697     5.3633588840
   92      H       0.1866275997    -2.5954576265     6.0477209744
   93      H       1.8152476001    -1.0444805864     7.0913403721
   94      H       1.1865879713     1.3313560690     7.4177023206
   95      H      -4.1415631944    -3.5602914093     2.6111932254
   96      H      -6.1475225423    -5.8987883208    -1.2949776576
   97      H      -7.8806828980    -1.4141562415    -3.0751144797
   98      H      -5.8736279640     0.9237198375     0.8291592828
   99      H      -2.9221488365    -5.5274643621     4.1926536319
  100      H      -2.0897773986    -7.6661260399     5.0901348912
  101      H      -2.4753931435    -9.7930529817     3.9547345604
  102      H      -3.5702016734   -11.0314361900     1.8383845899
  103      H      -4.8370983105   -10.7823755753    -0.2332250259
  104      H      -5.6153294025    -8.5864209558    -1.0358745073
  105      H      -7.3110392391     5.8219366186    -0.3216734137
  106      H      -6.4702735467     3.6618476924     0.5154697502
  107      H      -8.6036732771     6.0073071592    -2.3840291779
  108      H      -9.1296256942     0.4422039562    -4.6299732784
  109      H     -10.0288749509     2.5424852103    -5.5656999467
  110      H      -9.6871609547     4.6965799297    -4.4728310582
  111      H     -10.2256024215    -5.2678740626    -3.5854446065
  112      H      -6.5788394111    -4.7965129152    -5.8380097245
  113      H     -10.3758040178    -4.5997282249    -1.3550015111
  114      H      -9.4238206057    -3.1533571154    -0.9945197850
  115      H      -8.8625386500    -4.7171255455    -0.4475839004
  116      H      -5.0295211833    -2.5604368839    -3.7170147438
  117      H      -4.6760923947    -3.8366589504    -4.8884938328
  118      H      -4.5049817504    -4.1309924621    -3.1528368737
  119      H      -8.6558169491    -3.1637625344    -6.8699944987
  120      H     -11.3694261302    -5.5051534967    -7.2949688717
  121      H     -13.2314775927    -7.1079156107    -7.1272706503
  122      H     -13.0813432030    -9.0308939577    -5.5793524373
  123      H     -11.0542134950    -9.3488498075    -4.2000668985
  124      H      -9.1783196308    -7.7600349108    -4.3709435771
  125      H      -8.6482375149    -7.3231266110    -7.9323731882
  126      H      -7.9613008467    -6.7315371890   -10.2224971715
  127      H      -7.6080960492    -4.3637207842   -10.8418743988
  128      H      -7.9545980587    -2.5835212457    -9.1601182508
 ----------------------------------------------------------------

   16   -2927.8082859053      8.38E-09 Convergence criterion met
 Total energy in the final basis set = -2927.80828591
 Final energy is   -2927.80828590527
 **  OPTIMIZATION CONVERGED  **

                    Orbital Energies (a.u.)
 --------------------------------------------------------------

 Alpha MOs
 -- Occupied --
-14.772 -14.656 -10.550 -10.537 -10.537 -10.493 -10.493 -10.493
-10.492 -10.487 -10.487 -10.486 -10.486 -10.485 -10.485 -10.485
-10.485 -10.485 -10.484 -10.480 -10.479 -10.471 -10.464 -10.448
-10.448 -10.446 -10.446 -10.445 -10.445 -10.444 -10.444 -10.444
-10.443 -10.443 -10.442 -10.442 -10.442 -10.442 -10.442 -10.441
-10.441 -10.438 -10.437 -10.437 -10.437 -10.437 -10.436 -10.434
-10.433 -10.433 -10.433 -10.432 -10.432 -10.432 -10.432 -10.432
-10.431 -10.431 -10.431 -10.431 -10.430 -10.430 -10.430 -10.426
-10.425 -10.417 -10.417 -10.406 -10.406 -10.406 -10.405 -10.400
-10.400 -10.397  -6.899  -6.893  -1.163  -1.066  -1.006  -1.006
 -0.995  -0.994  -0.984  -0.949  -0.943  -0.937  -0.935  -0.924
 -0.915  -0.915  -0.909  -0.906  -0.894  -0.884  -0.881  -0.880
 -0.875  -0.852  -0.846  -0.843  -0.839  -0.832  -0.831  -0.829
 -0.829  -0.826  -0.825  -0.799  -0.799  -0.795  -0.791  -0.789
 -0.785  -0.779  -0.757  -0.749  -0.746  -0.744  -0.728  -0.721
 -0.713  -0.710  -0.708  -0.699  -0.693  -0.692  -0.681  -0.677
 -0.669  -0.669  -0.664  -0.659  -0.653  -0.647  -0.643  -0.633
 -0.627  -0.625  -0.623  -0.623  -0.605  -0.594  -0.594  -0.591
 -0.587  -0.576  -0.575  -0.572  -0.569  -0.564  -0.563  -0.558
 -0.555  -0.555  -0.550  -0.548  -0.538  -0.536  -0.534  -0.527
 -0.527  -0.523  -0.523  -0.520  -0.509  -0.508  -0.508  -0.505
 -0.502  -0.500  -0.498  -0.493  -0.487  -0.486  -0.484  -0.484
 -0.481  -0.477  -0.474  -0.473  -0.471  -0.471  -0.470  -0.469
 -0.469  -0.465  -0.465  -0.462  -0.461  -0.459  -0.458  -0.455
 -0.454  -0.452  -0.451  -0.445  -0.444  -0.444  -0.441  -0.440
 -0.440  -0.439  -0.435  -0.427  -0.424  -0.421  -0.420  -0.415
 -0.414  -0.412  -0.411  -0.407  -0.405  -0.402  -0.402  -0.400
 -0.395  -0.390  -0.384  -0.384  -0.380  -0.380  -0.379  -0.377
 -0.373  -0.369  -0.366  -0.353  -0.351  -0.350  -0.348  -0.343
 -0.341  -0.338  -0.330  -0.329  -0.318  -0.315  -0.315  -0.302
 -0.296  -0.292  -0.288  -0.283  -0.282  -0.280  -0.277  -0.265
 -0.265  -0.256  -0.248  -0.237  -0.233  -0.206  -0.145

 Beta MOs
 -- Occupied --
-14.763 -14.656 -10.549 -10.539 -10.538 -10.492 -10.492 -10.491
-10.491 -10.488 -10.488 -10.486 -10.486 -10.486 -10.485 -10.485
-10.485 -10.483 -10.483 -10.480 -10.479 -10.466 -10.464 -10.449
-10.448 -10.446 -10.445 -10.445 -10.445 -10.444 -10.444 -10.443
-10.443 -10.443 -10.443 -10.443 -10.442 -10.441 -10.441 -10.441
-10.440 -10.438 -10.437 -10.437 -10.437 -10.437 -10.436 -10.433
-10.433 -10.433 -10.433 -10.432 -10.432 -10.432 -10.431 -10.431
-10.431 -10.431 -10.431 -10.430 -10.430 -10.429 -10.429 -10.427
-10.426 -10.417 -10.417 -10.406 -10.406 -10.405 -10.405 -10.399
-10.399 -10.397  -6.896  -6.891  -1.149  -1.066  -1.005  -1.002
 -0.994  -0.994  -0.979  -0.949  -0.943  -0.936  -0.934  -0.924
 -0.915  -0.914  -0.908  -0.901  -0.893  -0.882  -0.880  -0.879
 -0.875  -0.852  -0.843  -0.839  -0.838  -0.830  -0.830  -0.828
 -0.828  -0.826  -0.825  -0.795  -0.795  -0.793  -0.790  -0.785
 -0.784  -0.777  -0.752  -0.747  -0.746  -0.744  -0.726  -0.719
 -0.711  -0.708  -0.707  -0.698  -0.693  -0.692  -0.679  -0.675
 -0.669  -0.669  -0.663  -0.658  -0.650  -0.645  -0.641  -0.631
 -0.627  -0.624  -0.623  -0.622  -0.603  -0.594  -0.591  -0.583
 -0.579  -0.575  -0.574  -0.572  -0.567  -0.563  -0.561  -0.557
 -0.554  -0.554  -0.548  -0.547  -0.537  -0.536  -0.533  -0.527
 -0.526  -0.523  -0.522  -0.520  -0.508  -0.507  -0.507  -0.501
 -0.500  -0.497  -0.495  -0.491  -0.485  -0.484  -0.483  -0.480
 -0.477  -0.475  -0.473  -0.471  -0.471  -0.470  -0.469  -0.468
 -0.467  -0.464  -0.463  -0.462  -0.460  -0.458  -0.454  -0.453
 -0.452  -0.451  -0.450  -0.445  -0.444  -0.443  -0.441  -0.438
 -0.438  -0.435  -0.433  -0.427  -0.423  -0.421  -0.418  -0.414
 -0.412  -0.410  -0.409  -0.406  -0.403  -0.400  -0.399  -0.393
 -0.390  -0.384  -0.384  -0.380  -0.378  -0.377  -0.377  -0.376
 -0.372  -0.367  -0.365  -0.350  -0.345  -0.344  -0.343  -0.341
 -0.336  -0.332  -0.327  -0.320  -0.314  -0.312  -0.301  -0.296
 -0.292  -0.292  -0.288  -0.283  -0.278  -0.277  -0.265  -0.256
 -0.254  -0.240  -0.235  -0.226  -0.206

          Ground-State Mulliken Net Atomic Charges

     Atom                 Charge (a.u.)    Spin (a.u.)
  --------------------------------------------------------
      1 C                    -0.357127      -0.000777
      2 C                     0.042010       0.003061
      3 C                    -0.190237      -0.022911
      4 C                     0.041697       0.002988
      5 C                    -0.355785      -0.000804
      6 C                     0.274115       0.000684
      7 N                    -0.671322       0.000072
      8 C                    -0.757447       0.000583
      9 C                    -0.758016       0.000669
     10 C                     0.309351      -0.000030
     11 C                    -0.293082       0.000053
     12 C                    -0.286295       0.000053
     13 C                     0.300059      -0.000034
     14 C                    -0.224623      -0.000042
     15 C                    -0.253837       0.000061
     16 C                    -0.226982      -0.000040
     17 C                    -0.293362       0.000054
     18 C                    -0.294338       0.000055
     19 C                    -0.224504      -0.000041
     20 C                    -0.255183       0.000060
     21 C                    -0.226423      -0.000039
     22 C                    -0.129760       0.013593
     23 C                    -0.145757       0.071053
     24 B                     0.590690       0.265161
     25 C                    -0.145422       0.072189
     26 C                    -0.130569       0.011101
     27 B                     0.553282       0.345937
     28 C                    -0.402601      -0.063749
     29 C                     0.087363       0.102496
     30 C                     0.071255       0.026265
     31 C                    -0.405403      -0.001371
     32 C                    -0.400076      -0.004120
     33 C                     0.070234       0.029269
     34 C                     0.090920       0.101855
     35 C                    -0.408338      -0.063147
     36 C                    -0.400557       0.087209
     37 C                    -0.213529      -0.053688
     38 C                    -0.354903       0.079166
     39 C                     0.239538      -0.037277
     40 C                    -0.076903       0.023068
     41 C                     0.189516      -0.059088
     42 C                    -0.351843       0.060653
     43 C                    -0.215249      -0.043470
     44 C                    -0.398923       0.064622
     45 C                     0.190910      -0.040492
     46 C                    -0.212956      -0.054353
     47 C                    -0.401916       0.088045
     48 C                     0.188310      -0.059346
     49 C                    -0.076796       0.023410
     50 C                     0.241267      -0.037969
     51 C                    -0.356743       0.080118
     52 C                     0.189030      -0.041711
     53 C                    -0.396233       0.066668
     54 C                    -0.215940      -0.044706
     55 C                    -0.351949       0.062883
     56 C                    -0.361483       0.145398
     57 C                     0.056283      -0.107817
     58 C                    -0.139828       0.379409
     59 C                     0.057566      -0.108475
     60 C                    -0.360304       0.145922
     61 C                     0.346090       0.047282
     62 N                    -0.587403       0.333381
     63 C                    -0.753338       0.008842
     64 C                    -0.751709       0.009134
     65 C                     0.246038      -0.065843
     66 C                    -0.251803       0.085151
     67 C                    -0.254458       0.080508
     68 C                     0.249149      -0.066081
     69 C                    -0.226932      -0.053715
     70 C                    -0.222556       0.091662
     71 C                    -0.228308      -0.058272
     72 C                    -0.254326       0.084750
     73 C                    -0.254104       0.080300
     74 C                    -0.226894      -0.053617
     75 C                    -0.222485       0.091867
     76 C                    -0.228375      -0.058449
     77 H                     0.231417       0.000331
     78 H                     0.230538       0.000328
     79 H                     0.245683      -0.000662
     80 H                     0.245164      -0.000738
     81 H                     0.231868       0.001421
     82 H                     0.245761      -0.000731
     83 H                     0.231662       0.001409
     84 H                     0.245474      -0.000705
     85 H                     0.251516      -0.000003
     86 H                     0.252855      -0.000003
     87 H                     0.229138       0.000002
     88 H                     0.225381      -0.000003
     89 H                     0.228652       0.000002
     90 H                     0.251813      -0.000003
     91 H                     0.254047      -0.000002
     92 H                     0.228769       0.000003
     93 H                     0.224759      -0.000003
     94 H                     0.228047       0.000002
     95 H                     0.223553       0.002700
     96 H                     0.190222      -0.001952
     97 H                     0.188347      -0.002106
     98 H                     0.221904       0.002662
     99 H                     0.224399      -0.005143
    100 H                     0.229800       0.002609
    101 H                     0.223472      -0.004713
    102 H                     0.223720      -0.003558
    103 H                     0.224636       0.002175
    104 H                     0.208622      -0.003856
    105 H                     0.229888       0.002641
    106 H                     0.225609      -0.005187
    107 H                     0.223445      -0.004770
    108 H                     0.205853      -0.003982
    109 H                     0.223765       0.002235
    110 H                     0.223436      -0.003696
    111 H                     0.279500      -0.007710
    112 H                     0.279440      -0.007707
    113 H                     0.238574       0.001145
    114 H                     0.274834      -0.003953
    115 H                     0.272172      -0.002808
    116 H                     0.273374      -0.002815
    117 H                     0.238374       0.001098
    118 H                     0.272013      -0.003929
    119 H                     0.278990      -0.004448
    120 H                     0.273114      -0.004246
    121 H                     0.258432       0.002798
    122 H                     0.258019      -0.005058
    123 H                     0.260725       0.003275
    124 H                     0.279270      -0.004406
    125 H                     0.272838      -0.004237
    126 H                     0.258206       0.002784
    127 H                     0.258155      -0.005069
    128 H                     0.261318       0.003296
  --------------------------------------------------------
  Sum of atomic charges =    -0.000000

                    Cartesian Multipole Moments
 -----------------------------------------------------------------
    Charge (ESU x 10^10)
                -0.0000
    Dipole Moment (Debye)
         X     -11.2386      Y     -11.3882      Z     -20.6536
       Tot      26.1260
    Quadrupole Moments (Debye-Ang)
        XX    -260.7586     XY     137.7607     YY    -337.9020
        XZ     185.7427     YZ     115.5280     ZZ    -297.3626

 Total job time:  98599.14s(wall), 412965.51s(cpu)
        *  Thank you very much for using Q-Chem.  Have a nice day.  *
