 Q-Chem 5.0, Q-Chem, Inc., Pleasanton, CA (2017)
 Q-Chem 5.0.1 for Intel X86 EM64T Linux

User input:
--------------------------------------------------------------
$rem
threads 8
jobtype opt
method PBEh-3c
basis def2-mSVP
mem_static      1024
mem_total       8000
sym_ignore      true
unrestricted true
scf_algorithm	diis
scf_max_cycles	250
solvent_method  pcm
geom_opt_tol_energy 25
geom_opt_tol_gradient 75
$end

$pcm
theory  iefpcm
$end
$solvent
dielectric      4.33
$end

$molecule
read utLEincoords.mol
$end
--------------------------------------------------------------

   22   -2927.8156437177      7.41E-09 Convergence criterion met
 Total energy in the final basis set = -2927.81564372
   20   -2927.8221906089      6.45E-09 Convergence criterion met
 Total energy in the final basis set = -2927.82219061
   19   -2927.8227188998      7.96E-09 Convergence criterion met
 Total energy in the final basis set = -2927.82271890
   19   -2927.8229630430      9.74E-09 Convergence criterion met
 Total energy in the final basis set = -2927.82296304
   17   -2927.8230615829      8.09E-09 Convergence criterion met
 Total energy in the final basis set = -2927.82306158
   17   -2927.8230601140      8.31E-09 Convergence criterion met
 Total energy in the final basis set = -2927.82306011
   19   -2927.8225777015      9.16E-09 Convergence criterion met
 Total energy in the final basis set = -2927.82257770
   19   -2927.8231443035      7.84E-09 Convergence criterion met
   17   -2927.8266734415      8.89E-09 Convergence criterion met
 Total energy in the final basis set = -2927.82667344
   17   -2927.8266656769      9.02E-09 Convergence criterion met
 Total energy in the final basis set = -2927.82666568
   17   -2927.8266668109      9.07E-09 Convergence criterion met
 Total energy in the final basis set = -2927.82666681
   17   -2927.8266637197      9.19E-09 Convergence criterion met
 Total energy in the final basis set = -2927.82666372
   17   -2927.8266653327      9.21E-09 Convergence criterion met
 Total energy in the final basis set = -2927.82666533
   17   -2927.8266647669      9.13E-09 Convergence criterion met
 Total energy in the final basis set = -2927.82666477

             Standard Nuclear Orientation (Angstroms)
    I     Atom           X                Y                Z
 ----------------------------------------------------------------
    1      C      -4.8443177441    -0.3662345529     4.5072844276
    2      C      -5.4488267800    -0.9398761941     3.3946424026
    3      C      -4.7456707366    -1.0643426224     2.1896473875
    4      C      -3.4325149096    -0.5787760565     2.1266909806
    5      C      -2.8477304270     0.0175100034     3.2378086789
    6      C      -3.5445180040     0.1168762325     4.4357087538
    7      N      -2.9339818057     0.6965160781     5.5710532410
    8      C      -6.8582879708    -1.4552607636     3.4965572800
    9      C      -2.6542756430    -0.7003128527     0.8458831920
   10      C      -1.6777522473     0.2366229810     5.9861739484
   11      C      -0.7522829950     1.1098154838     6.5612082028
   12      C      -4.4426800749     2.5866905751     5.6976679105
   13      C      -3.6629634120     1.6197094541     6.3347172467
   14      C      -5.2038670245     3.4735887573     6.4403861032
   15      C      -5.1891930943     3.4284337390     7.8282468696
   16      C      -4.4065131782     2.4748080293     8.4642085767
   17      C      -3.6561391408     1.5704633664     7.7290047038
   18      C      -1.3230343702    -1.1029233701     5.8137463483
   19      C      -0.0707514121    -1.5511165533     6.2003580326
   20      C       0.8437448083    -0.6839431565     6.7822216690
   21      C       0.4898010069     0.6464433433     6.9633238976
   22      C      -6.7406460531    -1.6654040582    -1.2510345445
   23      C      -6.1678238769    -0.9872282037    -0.1294719585
   24      B      -5.4025419175    -1.7823617880     0.9423282317
   25      C      -5.2716516875    -3.3094731669     0.7969020902
   26      C      -5.8486263156    -3.9825451756    -0.3246130373
   27      B      -6.6008656688    -3.1821862589    -1.3834040383
   28      C      -4.5849550645    -4.0658734272     1.7688727883
   29      C      -4.4682264772    -5.4305618557     1.6484018578
   30      C      -5.0464251624    -6.0972338063     0.5265849868
   31      C      -5.7172560981    -5.3833529100    -0.4327605949
   32      C      -7.4383976779    -0.9195404032    -2.2230079058
   33      C      -7.5708708495     0.4394451406    -2.1001357983
   34      C      -7.0015596801     1.1235688193    -0.9851847869
   35      C      -6.3171131796     0.4117784284    -0.0261073046
   36      C      -3.1231371910    -6.4362219299     3.6659045357
   37      C      -2.6476938108    -7.6661780483     4.1793479627
   38      C      -2.8628457708    -8.8697002453     3.5466945234
   39      C      -3.5870114387    -8.9077214926     2.3300918880
   40      C      -4.0427767148    -7.6824009774     1.8481953592
   41      C      -3.8289358425    -6.4431050507     2.4877589803
   42      C      -3.8986607154   -10.0465577448     1.5463319805
   43      C      -4.6142645686    -9.9042099635     0.3788061160
   44      C      -5.0637922473    -8.6472741482    -0.0883657736
   45      C      -4.7756817440    -7.5276873943     0.6541243180
   46      C      -7.5338730947     4.9218915003    -0.9077718864
   47      C      -7.0478147867     3.6865109490    -0.4170820864
   48      C      -7.3086029344     2.5460126593    -1.1353823824
   49      C      -8.0517607398     2.6695484824    -2.3291691586
   50      C      -8.5444373733     3.8688777375    -2.8356691668
   51      C      -8.2590073951     5.0284365438    -2.0734897424
   52      C      -8.2376043361     1.4181450325    -2.9503348589
   53      C      -8.9457586973     1.3612346991    -4.1255783195
   54      C      -9.4572780549     2.5651082701    -4.6616925346
   55      C      -9.2712942874     3.7847366675    -4.0496950798
   56      C      -9.1884307189    -4.9686731718    -3.6435801792
   57      C      -8.5945715340    -4.3877856700    -2.5488489316
   58      C      -7.2588596354    -3.9163744196    -2.6216911012
   59      C      -6.5369071361    -4.0862114509    -3.8302424873
   60      C      -7.1387908567    -4.6569860850    -4.9257024288
   61      C      -8.4774333994    -5.0958343805    -4.8552412605
   62      N      -9.0839431929    -5.6266421989    -5.9590591983
   63      C      -9.3715164217    -4.2177596523    -1.2797423417
   64      C      -5.1082194235    -3.6432491479    -3.9085671704
   65      C      -8.6786232144    -5.2581187301    -7.2613831242
   66      C      -8.4959304180    -3.9133216410    -7.5778058270
   67      C     -11.2803285146    -6.3848115890    -6.6430189616
   68      C     -10.1491699985    -6.5464070810    -5.8446914424
   69      C     -12.3132294727    -7.2995792049    -6.5484941894
   70      C     -12.2200578292    -8.3734535602    -5.6714416944
   71      C     -11.0870369151    -8.5328125374    -4.8847841304
   72      C     -10.0457568374    -7.6245121207    -4.9678419164
   73      C      -8.5048197341    -6.2466890714    -8.2281781713
   74      C      -8.1278160533    -5.8837387093    -9.5083062011
   75      C      -7.9338510395    -4.5454431318    -9.8289547197
   76      C      -8.1208849380    -3.5645508772    -8.8639474701
   77      H      -5.3940384089    -0.2951781977     5.4391571834
   78      H      -1.8346568358     0.3985799615     3.1746420720
   79      H      -6.9022820378    -2.5317325682     3.3176525248
   80      H      -7.5060727805    -0.9882896094     2.7519764626
   81      H      -7.2876402204    -1.2628363548     4.4796680496
   82      H      -2.5402768798    -1.7462269045     0.5520548719
   83      H      -1.6572278274    -0.2691528795     0.9352653920
   84      H      -3.1647903349    -0.1985681485     0.0215119568
   85      H      -1.0054646860     2.1544951813     6.6891696161
   86      H      -4.4600095304     2.6338475623     4.6161271286
   87      H      -5.8071224936     4.2117719457     5.9272976274
   88      H      -5.7824901255     4.1249429775     8.4057015298
   89      H      -4.3921293892     2.4179297664     9.5452224599
   90      H      -3.0704841075     0.8165080865     8.2391834152
   91      H      -2.0286703685    -1.7950390553     5.3725802627
   92      H       0.1852961729    -2.5929897709     6.0546158907
   93      H       1.8188069518    -1.0393302916     7.0880015413
   94      H       1.1937093770     1.3390271448     7.4069767687
   95      H      -4.1460399875    -3.5577701152     2.6209228108
   96      H      -6.1520148206    -5.9030598651    -1.2824849228
   97      H      -7.8774248796    -1.4267513410    -3.0776352961
   98      H      -5.8834511111     0.9255241057     0.8259298904
   99      H      -2.9242982846    -5.5192655872     4.2063580521
  100      H      -2.0919789325    -7.6562120580     5.1083813336
  101      H      -2.4786827675    -9.7864584793     3.9776482944
  102      H      -3.5742851834   -11.0300551378     1.8648097631
  103      H      -4.8426548367   -10.7855914058    -0.2076736483
  104      H      -5.6212014663    -8.5919249676    -1.0158432093
  105      H      -7.3247702210     5.8185405807    -0.3383362856
  106      H      -6.4842516090     3.6613892804     0.5072098012
  107      H      -8.6098298195     5.9974521575    -2.4070144726
  108      H      -9.1191261230     0.4259260506    -4.6446100894
  109      H     -10.0163802327     2.5232646459    -5.5881914425
  110      H      -9.6826433960     4.6811078374    -4.4978575747
  111      H     -10.2265483690    -5.2727033978    -3.5963905049
  112      H      -6.5730047069    -4.8083635581    -5.8362419323
  113      H     -10.3847063003    -4.6068957030    -1.3723655895
  114      H      -9.4330285726    -3.1658164563    -0.9973800653
  115      H      -8.8808579958    -4.7360570308    -0.4544371235
  116      H      -5.0251193239    -2.5719444730    -3.7189706273
  117      H      -4.6769210452    -3.8506053825    -4.8869086084
  118      H      -4.5015266816    -4.1440041182    -3.1529681018
  119      H      -8.6716398083    -3.1484487849    -6.8325128432
  120      H     -11.3579081564    -5.5426250172    -7.3183095860
  121      H     -13.1973931997    -7.1702841019    -7.1578054432
  122      H     -13.0292988728    -9.0882340336    -5.6046002122
  123      H     -11.0058234642    -9.3763548216    -4.2128524904
  124      H      -9.1501744303    -7.7642580481    -4.3764258566
  125      H      -8.6476238247    -7.2892316398    -7.9754661080
  126      H      -7.9790553146    -6.6493973519   -10.2576539145
  127      H      -7.6421620593    -4.2676039278   -10.8328748800
  128      H      -7.9869457882    -2.5212920721    -9.1151744374
 ----------------------------------------------------------------

   17   -2927.8266649689      9.00E-09 Convergence criterion met
 Total energy in the final basis set = -2927.82666497
 Final energy is   -2927.82666496885
 **  OPTIMIZATION CONVERGED  **

                    Orbital Energies (a.u.)
 --------------------------------------------------------------

 Alpha MOs
 -- Occupied --
-14.768 -14.663 -10.541 -10.530 -10.530 -10.486 -10.486 -10.485
-10.485 -10.484 -10.484 -10.481 -10.481 -10.479 -10.479 -10.478
-10.478 -10.476 -10.476 -10.475 -10.475 -10.472 -10.465 -10.454
-10.453 -10.451 -10.450 -10.449 -10.449 -10.449 -10.449 -10.449
-10.449 -10.448 -10.448 -10.448 -10.448 -10.447 -10.447 -10.447
-10.446 -10.443 -10.443 -10.443 -10.442 -10.440 -10.440 -10.440
-10.439 -10.439 -10.439 -10.439 -10.439 -10.439 -10.438 -10.437
-10.436 -10.436 -10.436 -10.436 -10.435 -10.434 -10.433 -10.433
-10.432 -10.425 -10.425 -10.413 -10.413 -10.411 -10.410 -10.407
-10.407 -10.404  -6.903  -6.899  -1.157  -1.073  -1.001  -1.000
 -0.999  -0.998  -0.976  -0.955  -0.950  -0.943  -0.941  -0.931
 -0.920  -0.920  -0.903  -0.900  -0.888  -0.886  -0.881  -0.873
 -0.872  -0.859  -0.850  -0.845  -0.840  -0.837  -0.835  -0.834
 -0.834  -0.832  -0.831  -0.804  -0.799  -0.796  -0.793  -0.791
 -0.786  -0.785  -0.754  -0.752  -0.751  -0.742  -0.719  -0.718
 -0.716  -0.713  -0.711  -0.704  -0.699  -0.698  -0.675  -0.675
 -0.674  -0.671  -0.669  -0.664  -0.658  -0.648  -0.640  -0.633
 -0.632  -0.629  -0.628  -0.626  -0.600  -0.598  -0.586  -0.586
 -0.582  -0.580  -0.579  -0.578  -0.574  -0.568  -0.560  -0.560
 -0.556  -0.554  -0.553  -0.545  -0.542  -0.534  -0.529  -0.528
 -0.526  -0.525  -0.518  -0.514  -0.513  -0.513  -0.512  -0.506
 -0.502  -0.501  -0.495  -0.492  -0.491  -0.490  -0.488  -0.486
 -0.482  -0.479  -0.477  -0.476  -0.475  -0.474  -0.473  -0.472
 -0.472  -0.471  -0.468  -0.465  -0.464  -0.459  -0.458  -0.454
 -0.451  -0.451  -0.451  -0.450  -0.448  -0.445  -0.444  -0.440
 -0.435  -0.434  -0.431  -0.430  -0.428  -0.427  -0.425  -0.421
 -0.419  -0.416  -0.412  -0.411  -0.409  -0.408  -0.406  -0.399
 -0.397  -0.396  -0.391  -0.390  -0.385  -0.385  -0.385  -0.382
 -0.378  -0.374  -0.373  -0.358  -0.357  -0.353  -0.349  -0.340
 -0.335  -0.335  -0.333  -0.325  -0.321  -0.314  -0.312  -0.309
 -0.302  -0.298  -0.295  -0.290  -0.288  -0.286  -0.274  -0.271
 -0.270  -0.264  -0.254  -0.244  -0.240  -0.214  -0.150

 Beta MOs
 -- Occupied --
-14.759 -14.663 -10.541 -10.531 -10.531 -10.486 -10.486 -10.484
-10.484 -10.483 -10.483 -10.482 -10.482 -10.477 -10.477 -10.476
-10.476 -10.476 -10.476 -10.476 -10.476 -10.472 -10.460 -10.454
-10.454 -10.450 -10.450 -10.450 -10.450 -10.449 -10.449 -10.449
-10.449 -10.448 -10.448 -10.447 -10.447 -10.447 -10.446 -10.446
-10.446 -10.443 -10.443 -10.443 -10.442 -10.440 -10.439 -10.439
-10.439 -10.439 -10.439 -10.439 -10.438 -10.438 -10.438 -10.437
-10.436 -10.436 -10.436 -10.435 -10.435 -10.434 -10.433 -10.433
-10.433 -10.425 -10.425 -10.413 -10.413 -10.410 -10.410 -10.406
-10.406 -10.405  -6.901  -6.897  -1.142  -1.073  -1.000  -1.000
 -0.996  -0.995  -0.971  -0.955  -0.950  -0.941  -0.940  -0.931
 -0.920  -0.919  -0.902  -0.895  -0.887  -0.885  -0.880  -0.871
 -0.870  -0.859  -0.850  -0.845  -0.837  -0.836  -0.833  -0.833
 -0.832  -0.831  -0.829  -0.801  -0.798  -0.795  -0.791  -0.789
 -0.783  -0.781  -0.753  -0.751  -0.746  -0.739  -0.717  -0.716
 -0.714  -0.711  -0.709  -0.703  -0.699  -0.698  -0.675  -0.674
 -0.672  -0.669  -0.668  -0.663  -0.654  -0.646  -0.637  -0.633
 -0.631  -0.628  -0.628  -0.623  -0.600  -0.595  -0.583  -0.583
 -0.579  -0.578  -0.578  -0.572  -0.571  -0.568  -0.559  -0.559
 -0.554  -0.554  -0.550  -0.544  -0.542  -0.533  -0.528  -0.526
 -0.525  -0.524  -0.517  -0.513  -0.513  -0.512  -0.512  -0.505
 -0.501  -0.496  -0.492  -0.491  -0.490  -0.489  -0.487  -0.485
 -0.479  -0.477  -0.476  -0.475  -0.475  -0.473  -0.472  -0.471
 -0.470  -0.467  -0.466  -0.465  -0.460  -0.458  -0.458  -0.453
 -0.451  -0.450  -0.449  -0.448  -0.445  -0.443  -0.442  -0.438
 -0.434  -0.433  -0.429  -0.428  -0.427  -0.427  -0.423  -0.421
 -0.416  -0.415  -0.410  -0.409  -0.406  -0.405  -0.405  -0.398
 -0.396  -0.391  -0.389  -0.384  -0.383  -0.382  -0.381  -0.377
 -0.375  -0.373  -0.370  -0.355  -0.350  -0.348  -0.348  -0.335
 -0.333  -0.328  -0.326  -0.321  -0.319  -0.305  -0.302  -0.298
 -0.298  -0.297  -0.295  -0.289  -0.284  -0.283  -0.272  -0.264
 -0.260  -0.246  -0.241  -0.233  -0.214

          Ground-State Mulliken Net Atomic Charges

     Atom                 Charge (a.u.)    Spin (a.u.)
  --------------------------------------------------------
      1 C                    -0.363855      -0.000782
      2 C                     0.035759       0.003086
      3 C                    -0.186750      -0.023568
      4 C                     0.035214       0.003012
      5 C                    -0.362505      -0.000810
      6 C                     0.277063       0.000640
      7 N                    -0.670725       0.000014
      8 C                    -0.760150       0.000581
      9 C                    -0.760785       0.000666
     10 C                     0.307597      -0.000014
     11 C                    -0.298632       0.000032
     12 C                    -0.293130       0.000031
     13 C                     0.298113      -0.000018
     14 C                    -0.234515      -0.000026
     15 C                    -0.263364       0.000036
     16 C                    -0.236625      -0.000026
     17 C                    -0.298361       0.000034
     18 C                    -0.301417       0.000032
     19 C                    -0.234401      -0.000025
     20 C                    -0.265020       0.000035
     21 C                    -0.235996      -0.000024
     22 C                    -0.134246       0.022750
     23 C                    -0.145841       0.062843
     24 B                     0.571755       0.274152
     25 C                    -0.145397       0.064564
     26 C                    -0.135318       0.020086
     27 B                     0.553176       0.331842
     28 C                    -0.407538      -0.058029
     29 C                     0.078965       0.093862
     30 C                     0.062536       0.037623
     31 C                    -0.408223      -0.011641
     32 C                    -0.403517      -0.014108
     33 C                     0.061711       0.040434
     34 C                     0.082433       0.092607
     35 C                    -0.413177      -0.056877
     36 C                    -0.406537       0.085837
     37 C                    -0.224547      -0.053319
     38 C                    -0.360523       0.078150
     39 C                     0.227050      -0.038073
     40 C                    -0.078478       0.023511
     41 C                     0.181091      -0.057546
     42 C                    -0.357816       0.064590
     43 C                    -0.226185      -0.045796
     44 C                    -0.404558       0.069302
     45 C                     0.182402      -0.044022
     46 C                    -0.224037      -0.053683
     47 C                    -0.407645       0.086153
     48 C                     0.179903      -0.057521
     49 C                    -0.078217       0.023748
     50 C                     0.228771      -0.038558
     51 C                    -0.362277       0.078602
     52 C                     0.180495      -0.045102
     53 C                    -0.402081       0.071031
     54 C                    -0.226908      -0.046822
     55 C                    -0.357908       0.066499
     56 C                    -0.359333       0.161795
     57 C                     0.049831      -0.121320
     58 C                    -0.146208       0.352717
     59 C                     0.051358      -0.122159
     60 C                    -0.358576       0.162270
     61 C                     0.342224       0.013493
     62 N                    -0.578157       0.363502
     63 C                    -0.756762       0.009687
     64 C                    -0.755350       0.009946
     65 C                     0.246002      -0.069860
     66 C                    -0.252613       0.095803
     67 C                    -0.258074       0.091851
     68 C                     0.251337      -0.070830
     69 C                    -0.234244      -0.062016
     70 C                    -0.227808       0.106950
     71 C                    -0.235517      -0.066584
     72 C                    -0.256085       0.096412
     73 C                    -0.256979       0.090439
     74 C                    -0.234389      -0.061062
     75 C                    -0.227516       0.105784
     76 C                    -0.235693      -0.066006
     77 H                     0.237199       0.000339
     78 H                     0.236746       0.000335
     79 H                     0.245497      -0.000680
     80 H                     0.245159      -0.000759
     81 H                     0.237736       0.001448
     82 H                     0.245598      -0.000748
     83 H                     0.237669       0.001437
     84 H                     0.245334      -0.000730
     85 H                     0.257039      -0.000002
     86 H                     0.257570      -0.000002
     87 H                     0.240492       0.000002
     88 H                     0.236867      -0.000002
     89 H                     0.240174       0.000001
     90 H                     0.256994      -0.000002
     91 H                     0.258695      -0.000001
     92 H                     0.240054       0.000002
     93 H                     0.236141      -0.000002
     94 H                     0.239562       0.000001
     95 H                     0.226513       0.002349
     96 H                     0.205574      -0.001251
     97 H                     0.204263      -0.001420
     98 H                     0.224866       0.002290
     99 H                     0.235171      -0.005028
    100 H                     0.241330       0.002574
    101 H                     0.236462      -0.004602
    102 H                     0.236700      -0.003764
    103 H                     0.238522       0.002256
    104 H                     0.225557      -0.004088
    105 H                     0.241457       0.002592
    106 H                     0.236232      -0.005042
    107 H                     0.236436      -0.004628
    108 H                     0.223672      -0.004191
    109 H                     0.237945       0.002305
    110 H                     0.236425      -0.003882
    111 H                     0.287293      -0.008330
    112 H                     0.287642      -0.008310
    113 H                     0.247191       0.001045
    114 H                     0.268421      -0.004540
    115 H                     0.266159      -0.003442
    116 H                     0.267387      -0.003495
    117 H                     0.247002       0.001008
    118 H                     0.266003      -0.004479
    119 H                     0.287034      -0.004940
    120 H                     0.283145      -0.004779
    121 H                     0.267445       0.003209
    122 H                     0.266730      -0.005860
    123 H                     0.268775       0.003650
    124 H                     0.287844      -0.004950
    125 H                     0.282851      -0.004711
    126 H                     0.267286       0.003154
    127 H                     0.266821      -0.005796
    128 H                     0.269036       0.003648
  --------------------------------------------------------
  Sum of atomic charges =    -0.000000

                    Cartesian Multipole Moments
 -----------------------------------------------------------------
    Charge (ESU x 10^10)
                -0.0000
    Dipole Moment (Debye)
         X     -12.2531      Y     -12.3934      Z     -22.5661
       Tot      28.5125
    Quadrupole Moments (Debye-Ang)
        XX    -242.7619     XY     149.1003     YY    -323.2345
        XZ     205.7060     YZ     126.6936     ZZ    -279.3225

 Total job time:  170784.16s(wall), 498130.96s(cpu)
        *  Thank you very much for using Q-Chem.  Have a nice day.  *
