 Q-Chem 5.0, Q-Chem, Inc., Pleasanton, CA (2017)
 Q-Chem 5.0.1 for Intel X86 EM64T Linux

User input:
--------------------------------------------------------------
$rem
threads 8
jobtype opt
method PBEh-3c
basis def2-mSVP
mem_static      1024
mem_total       8000
sym_ignore      true
unrestricted true
scf_algorithm	diis
scf_max_cycles	2500
solvent_method  pcm
geom_opt_tol_energy 25
geom_opt_tol_gradient 75
$end

$pcm
theory  iefpcm
$end

$solvent
dielectric      8.93
$end

$molecule
read utLEincoords.mol
$end
--------------------------------------------------------------

   21   -2927.8275646505      8.75E-09 Convergence criterion met
 Total energy in the final basis set = -2927.82756465
   18   -2927.8338257738      8.29E-09 Convergence criterion met
 Total energy in the final basis set = -2927.83382577
   18   -2927.8342213621      7.46E-09 Convergence criterion met
 Total energy in the final basis set = -2927.83422136
   18   -2927.8343950392      8.36E-09 Convergence criterion met
 Total energy in the final basis set = -2927.83439504
   18   -2927.8344907230      7.55E-09 Convergence criterion met
 Total energy in the final basis set = -2927.83449072
   18   -2927.8344752476      8.83E-09 Convergence criterion met
 Total energy in the final basis set = -2927.83447525
   18   -2927.8344522830      8.41E-09 Convergence criterion met
 Total energy in the final basis set = -2927.83445228
   18   -2927.8192186518      7.70E-09 Convergence criterion met
   18   -2927.8377509343      8.65E-09 Convergence criterion met
 Total energy in the final basis set = -2927.83775093
   18   -2927.8377567015      8.62E-09 Convergence criterion met
 Total energy in the final basis set = -2927.83775670
   18   -2927.8377735398      8.80E-09 Convergence criterion met
 Total energy in the final basis set = -2927.83777354
   18   -2927.8377917863      8.73E-09 Convergence criterion met
 Total energy in the final basis set = -2927.83779179
   18   -2927.8378102938      8.55E-09 Convergence criterion met
 Total energy in the final basis set = -2927.83781029
   18   -2927.8378222525      8.69E-09 Convergence criterion met
 Total energy in the final basis set = -2927.83782225

             Standard Nuclear Orientation (Angstroms)
    I     Atom           X                Y                Z
 ----------------------------------------------------------------
    1      C      -4.8451187226    -0.3553673530     4.5063743888
    2      C      -5.4509606793    -0.9288666326     3.3939645388
    3      C      -4.7480402000    -1.0573526929     2.1890384217
    4      C      -3.4332264840    -0.5753197769     2.1263502079
    5      C      -2.8466346449     0.0198511923     3.2372889637
    6      C      -3.5433213889     0.1228447463     4.4352460315
    7      N      -2.9298198547     0.6995936410     5.5699971031
    8      C      -6.8618763495    -1.4402176869     3.4979184355
    9      C      -2.6541283326    -0.6987746100     0.8461378643
   10      C      -1.6770630663     0.2300066703     5.9868378248
   11      C      -0.7439979168     1.0982010890     6.5571711469
   12      C      -4.4277252046     2.5980843847     5.7050775734
   13      C      -3.6557545021     1.6220702470     6.3380536972
   14      C      -5.1853800374     3.4852815684     6.4516043973
   15      C      -5.1743150192     3.4309351647     7.8394761169
   16      C      -4.3989866776     2.4682938042     8.4714144648
   17      C      -3.6523087542     1.5638155028     7.7320281322
   18      C      -1.3347375612    -1.1136618461     5.8214075628
   19      C      -0.0860641265    -1.5713128651     6.2099769336
   20      C       0.8364020142    -0.7088078918     6.7867073981
   21      C       0.4944227060     0.6259315931     6.9612146598
   22      C      -6.7430709981    -1.6659194683    -1.2519828685
   23      C      -6.1702188054    -0.9847970241    -0.1314134648
   24      B      -5.4059027467    -1.7773956175     0.9428955604
   25      C      -5.2762516643    -3.3048506966     0.8006885714
   26      C      -5.8542446959    -3.9805884214    -0.3195234195
   27      B      -6.6064112664    -3.1843345403    -1.3828663960
   28      C      -4.5886827229    -4.0598216394     1.7740745581
   29      C      -4.4720867168    -5.4247780987     1.6560342783
   30      C      -5.0521251140    -6.0939695936     0.5359785559
   31      C      -5.7238729525    -5.3817575355    -0.4246231395
   32      C      -7.4384757102    -0.9222060592    -2.2273052442
   33      C      -7.5693143660     0.4377608105    -2.1086691808
   34      C      -7.0008545114     1.1248966661    -0.9945482749
   35      C      -6.3182647248     0.4152907632    -0.0324120702
   36      C      -3.1232006503    -6.4262016765     3.6738419129
   37      C      -2.6469484129    -7.6554525530     4.1889506183
   38      C      -2.8637309503    -8.8604979175     3.5589379856
   39      C      -3.5901943432    -8.9008627091     2.3435278573
   40      C      -4.0466588776    -7.6762308899     1.8597270892
   41      C      -3.8313228899    -6.4357171931     2.4967179562
   42      C      -3.9035484321   -10.0416350452     1.5627070526
   43      C      -4.6214032381    -9.9014856159     0.3959043189
   44      C      -5.0716723634    -8.6453346602    -0.0736059234
   45      C      -4.7816083670    -7.5241480281     0.6663086233
   46      C      -7.5279153559     4.9249254511    -0.9308182842
   47      C      -7.0445130468     3.6903518515    -0.4346689636
   48      C      -7.3058534945     2.5476294280    -1.1498225400
   49      C      -8.0465667606     2.6677930674    -2.3456413230
   50      C      -8.5362503213     3.8663721291    -2.8575651426
   51      C      -8.2506155009     5.0283524713    -2.0987476289
   52      C      -8.2328485618     1.4145767725    -2.9634339313
   53      C      -8.9378550916     1.3542989352    -4.1407548488
   54      C      -9.4462348715     2.5575710417    -4.6820420364
   55      C      -9.2602602441     3.7792826049    -4.0734506757
   56      C      -9.1926758781    -4.9703335497    -3.6459607702
   57      C      -8.5988157443    -4.3884896175    -2.5501804046
   58      C      -7.2637531059    -3.9203769142    -2.6211862582
   59      C      -6.5405055329    -4.0927260980    -3.8266206243
   60      C      -7.1411927873    -4.6650627381    -4.9233516998
   61      C      -8.4795777115    -5.1005147511    -4.8544148589
   62      N      -9.0859585211    -5.6312043570    -5.9609421766
   63      C      -9.3804548307    -4.2173218664    -1.2832844753
   64      C      -5.1104482686    -3.6520740160    -3.9060730977
   65      C      -8.6874525298    -5.2501495482    -7.2602829672
   66      C      -8.5075968347    -3.9015932313    -7.5645235782
   67      C     -11.2723660578    -6.4081948975    -6.6506471647
   68      C     -10.1420458060    -6.5592141145    -5.8478160552
   69      C     -12.2984068446    -7.3304203825    -6.5566009896
   70      C     -12.1992155135    -8.4015645117    -5.6763021764
   71      C     -11.0672303540    -8.5503287255    -4.8853675203
   72      C     -10.0329606330    -7.6341358816    -4.9667233132
   73      C      -8.5158743874    -6.2302804859    -8.2369454520
   74      C      -8.1445882913    -5.8548245254    -9.5150111991
   75      C      -7.9548374163    -4.5128320985    -9.8240226733
   76      C      -8.1395086738    -3.5407167639    -8.8491713303
   77      H      -5.3953885346    -0.2826531759     5.4378569266
   78      H      -1.8322321786     0.3974151920     3.1733950299
   79      H      -6.9093159277    -2.5165406632     3.3189238746
   80      H      -7.5099817116    -0.9712773633     2.7548043338
   81      H      -7.2890289057    -1.2471146752     4.4818113208
   82      H      -2.5464185125    -1.7444805605     0.5491844849
   83      H      -1.6544503413    -0.2743103549     0.9378490327
   84      H      -3.1599562432    -0.1910541419     0.0224460249
   85      H      -0.9876704189     2.1457805492     6.6804682409
   86      H      -4.4414917465     2.6537517287     4.6237814301
   87      H      -5.7822158592     4.2309794597     5.9418438838
   88      H      -5.7644190533     4.1276262917     8.4200249853
   89      H      -4.3873318651     2.4046525875     9.5520954955
   90      H      -3.0726380357     0.8033586066     8.2394938911
   91      H      -2.0467092640    -1.8027188154     5.3853589563
   92      H       0.1603893481    -2.6163546795     6.0703818071
   93      H       1.8084101401    -1.0711737130     7.0941456902
   94      H       1.2046440583     1.3143818910     7.4012490953
   95      H      -4.1487056156    -3.5511316046     2.6253104316
   96      H      -6.1598980261    -5.9028312115    -1.2726523004
   97      H      -7.8766254476    -1.4313378150    -3.0810338529
   98      H      -5.8851303146     0.9322644760     0.8180176780
   99      H      -2.9228229451    -5.5082373361     4.2121662336
  100      H      -2.0893720563    -7.6436893058     5.1168422822
  101      H      -2.4790597671    -9.7765805213     3.9908937192
  102      H      -3.5788127870   -11.0244538877     1.8828874471
  103      H      -4.8513745926   -10.7839170093    -0.1883009423
  104      H      -5.6309676548    -8.5920236121    -1.0000522749
  105      H      -7.3186484310     5.8232701338    -0.3641308618
  106      H      -6.4827222907     3.6679698826     0.4908540484
  107      H      -8.5993082326     5.9966384213    -2.4366304289
  108      H      -9.1106343111     0.4176698917    -4.6575808923
  109      H     -10.0025976671     2.5131938619    -5.6100151987
  110      H      -9.6690043642     4.6748397418    -4.5255951097
  111      H     -10.2317614302    -5.2714476943    -3.6000956014
  112      H      -6.5734521592    -4.8190550132    -5.8322676784
  113      H     -10.3944943966    -4.6027701494    -1.3812696257
  114      H      -9.4410713310    -3.1656243289    -0.9995513369
  115      H      -8.8966522573    -4.7401162094    -0.4566705722
  116      H      -5.0241823343    -2.5809954887    -3.7162999886
  117      H      -4.6815735144    -3.8587497066    -4.8855693571
  118      H      -4.5026995089    -4.1564577491    -3.1535912999
  119      H      -8.6833079528    -3.1435811547    -6.8122832318
  120      H     -11.3554977255    -5.5672917560    -7.3268431407
  121      H     -13.1819490869    -7.2092654919    -7.1684987531
  122      H     -13.0029750300    -9.1226498384    -5.6103034508
  123      H     -10.9813015245    -9.3921804230    -4.2118888016
  124      H      -9.1375558808    -7.7667431735    -4.3734917111
  125      H      -8.6534579322    -7.2755423558    -7.9927272625
  126      H      -7.9968910620    -6.6133296245   -10.2718181920
  127      H      -7.6683500103    -4.2252001763   -10.8267379182
  128      H      -8.0096970143    -2.4949291195    -9.0919522200
 ----------------------------------------------------------------

   18   -2927.8378224359      9.19E-09 Convergence criterion met
 Total energy in the final basis set = -2927.83782244
 Final energy is   -2927.83782243592
 **  OPTIMIZATION CONVERGED  **

                    Orbital Energies (a.u.)
 --------------------------------------------------------------

 Alpha MOs
 -- Occupied --
-14.766 -14.667 -10.536 -10.526 -10.525 -10.490 -10.490 -10.481
-10.481 -10.480 -10.480 -10.478 -10.478 -10.477 -10.475 -10.475
-10.473 -10.473 -10.471 -10.471 -10.470 -10.470 -10.461 -10.457
-10.457 -10.453 -10.453 -10.453 -10.453 -10.453 -10.452 -10.452
-10.452 -10.451 -10.451 -10.451 -10.451 -10.451 -10.450 -10.450
-10.450 -10.446 -10.446 -10.446 -10.446 -10.444 -10.444 -10.444
-10.444 -10.444 -10.443 -10.443 -10.443 -10.442 -10.442 -10.440
-10.440 -10.440 -10.440 -10.439 -10.439 -10.438 -10.437 -10.433
-10.433 -10.430 -10.430 -10.418 -10.418 -10.414 -10.414 -10.412
-10.411 -10.409  -6.907  -6.904  -1.154  -1.077  -1.004  -1.004
 -0.995  -0.993  -0.972  -0.959  -0.955  -0.947  -0.945  -0.935
 -0.924  -0.923  -0.900  -0.898  -0.890  -0.884  -0.882  -0.868
 -0.868  -0.864  -0.854  -0.849  -0.842  -0.841  -0.837  -0.837
 -0.835  -0.835  -0.833  -0.807  -0.802  -0.799  -0.795  -0.791
 -0.789  -0.784  -0.758  -0.756  -0.748  -0.738  -0.721  -0.719
 -0.716  -0.714  -0.708  -0.706  -0.703  -0.701  -0.678  -0.678
 -0.674  -0.669  -0.668  -0.667  -0.660  -0.652  -0.637  -0.636
 -0.636  -0.632  -0.632  -0.623  -0.604  -0.595  -0.586  -0.583
 -0.583  -0.582  -0.581  -0.578  -0.577  -0.571  -0.563  -0.563
 -0.557  -0.553  -0.552  -0.546  -0.541  -0.538  -0.531  -0.530
 -0.524  -0.521  -0.517  -0.515  -0.515  -0.513  -0.510  -0.509
 -0.505  -0.499  -0.494  -0.494  -0.493  -0.492  -0.489  -0.489
 -0.483  -0.480  -0.479  -0.479  -0.478  -0.477  -0.476  -0.475
 -0.474  -0.472  -0.471  -0.468  -0.463  -0.462  -0.460  -0.456
 -0.455  -0.453  -0.452  -0.447  -0.447  -0.445  -0.441  -0.441
 -0.438  -0.433  -0.431  -0.430  -0.428  -0.427  -0.425  -0.425
 -0.423  -0.418  -0.416  -0.414  -0.413  -0.409  -0.406  -0.402
 -0.399  -0.396  -0.394  -0.393  -0.389  -0.389  -0.387  -0.384
 -0.381  -0.378  -0.376  -0.362  -0.361  -0.355  -0.353  -0.339
 -0.336  -0.336  -0.329  -0.325  -0.322  -0.313  -0.312  -0.309
 -0.307  -0.302  -0.299  -0.293  -0.291  -0.289  -0.278  -0.276
 -0.269  -0.268  -0.258  -0.247  -0.245  -0.218  -0.154

 Beta MOs
 -- Occupied --
-14.756 -14.667 -10.536 -10.527 -10.527 -10.490 -10.490 -10.479
-10.479 -10.479 -10.479 -10.478 -10.478 -10.477 -10.473 -10.473
-10.472 -10.472 -10.472 -10.471 -10.471 -10.471 -10.458 -10.458
-10.457 -10.454 -10.454 -10.453 -10.453 -10.452 -10.452 -10.452
-10.451 -10.451 -10.451 -10.450 -10.450 -10.450 -10.450 -10.449
-10.449 -10.446 -10.446 -10.446 -10.446 -10.444 -10.444 -10.443
-10.443 -10.443 -10.443 -10.443 -10.442 -10.442 -10.442 -10.440
-10.440 -10.440 -10.440 -10.439 -10.439 -10.438 -10.437 -10.433
-10.432 -10.430 -10.430 -10.418 -10.418 -10.414 -10.413 -10.411
-10.410 -10.410  -6.904  -6.901  -1.138  -1.077  -1.004  -1.004
 -0.991  -0.991  -0.968  -0.959  -0.954  -0.945  -0.943  -0.935
 -0.923  -0.922  -0.899  -0.894  -0.888  -0.884  -0.881  -0.866
 -0.866  -0.864  -0.854  -0.849  -0.841  -0.840  -0.836  -0.836
 -0.835  -0.834  -0.826  -0.804  -0.801  -0.799  -0.795  -0.787
 -0.786  -0.780  -0.758  -0.756  -0.743  -0.735  -0.720  -0.716
 -0.715  -0.711  -0.707  -0.705  -0.703  -0.701  -0.678  -0.677
 -0.673  -0.667  -0.667  -0.666  -0.657  -0.650  -0.636  -0.636
 -0.634  -0.632  -0.631  -0.620  -0.603  -0.592  -0.583  -0.582
 -0.581  -0.580  -0.579  -0.576  -0.571  -0.567  -0.562  -0.562
 -0.557  -0.550  -0.549  -0.545  -0.540  -0.537  -0.529  -0.529
 -0.523  -0.519  -0.517  -0.515  -0.515  -0.512  -0.509  -0.508
 -0.504  -0.496  -0.493  -0.493  -0.492  -0.489  -0.489  -0.487
 -0.483  -0.480  -0.479  -0.478  -0.476  -0.475  -0.475  -0.474
 -0.472  -0.470  -0.468  -0.463  -0.462  -0.462  -0.457  -0.456
 -0.453  -0.453  -0.452  -0.446  -0.443  -0.442  -0.439  -0.437
 -0.437  -0.431  -0.430  -0.430  -0.427  -0.425  -0.424  -0.423
 -0.420  -0.418  -0.413  -0.412  -0.410  -0.409  -0.404  -0.401
 -0.399  -0.396  -0.393  -0.387  -0.386  -0.386  -0.384  -0.380
 -0.378  -0.376  -0.369  -0.359  -0.354  -0.352  -0.351  -0.338
 -0.330  -0.328  -0.324  -0.322  -0.318  -0.307  -0.303  -0.302
 -0.302  -0.299  -0.295  -0.293  -0.287  -0.287  -0.277  -0.269
 -0.265  -0.250  -0.245  -0.237  -0.218

          Ground-State Mulliken Net Atomic Charges

     Atom                 Charge (a.u.)    Spin (a.u.)
  --------------------------------------------------------
      1 C                    -0.367446      -0.000794
      2 C                     0.031742       0.003133
      3 C                    -0.184288      -0.024090
      4 C                     0.031169       0.003065
      5 C                    -0.366045      -0.000823
      6 C                     0.278820       0.000643
      7 N                    -0.670275       0.000004
      8 C                    -0.761353       0.000569
      9 C                    -0.761946       0.000653
     10 C                     0.305777      -0.000008
     11 C                    -0.301121       0.000025
     12 C                    -0.297201       0.000024
     13 C                     0.297322      -0.000012
     14 C                    -0.240196      -0.000019
     15 C                    -0.268720       0.000028
     16 C                    -0.241994      -0.000019
     17 C                    -0.301534       0.000027
     18 C                    -0.305161       0.000025
     19 C                    -0.240187      -0.000019
     20 C                    -0.270247       0.000027
     21 C                    -0.241470      -0.000018
     22 C                    -0.137156       0.027626
     23 C                    -0.145855       0.057777
     24 B                     0.557578       0.280091
     25 C                    -0.145315       0.060127
     26 C                    -0.138497       0.024964
     27 B                     0.549330       0.325071
     28 C                    -0.410671      -0.054326
     29 C                     0.073476       0.088721
     30 C                     0.056541       0.043880
     31 C                    -0.409844      -0.016675
     32 C                    -0.405658      -0.018910
     33 C                     0.055805       0.046552
     34 C                     0.076898       0.086915
     35 C                    -0.416259      -0.052681
     36 C                    -0.409812       0.084765
     37 C                    -0.231110      -0.052969
     38 C                    -0.363135       0.077231
     39 C                     0.218775      -0.038368
     40 C                    -0.079613       0.023697
     41 C                     0.175559      -0.056649
     42 C                    -0.360659       0.066496
     43 C                    -0.232547      -0.046955
     44 C                    -0.407115       0.071696
     45 C                     0.176712      -0.045996
     46 C                    -0.230611      -0.053067
     47 C                    -0.410828       0.084613
     48 C                     0.174332      -0.056362
     49 C                    -0.079225       0.023832
     50 C                     0.220470      -0.038663
     51 C                    -0.364805       0.077233
     52 C                     0.174774      -0.046950
     53 C                    -0.404686       0.073119
     54 C                    -0.233324      -0.047780
     55 C                    -0.360699       0.068098
     56 C                    -0.357730       0.168915
     57 C                     0.046664      -0.126747
     58 C                    -0.149023       0.334808
     59 C                     0.048363      -0.127588
     60 C                    -0.357370       0.169227
     61 C                     0.340618      -0.005149
     62 N                    -0.573337       0.379656
     63 C                    -0.758734       0.010030
     64 C                    -0.757488       0.010262
     65 C                     0.246648      -0.071783
     66 C                    -0.253163       0.101993
     67 C                    -0.259749       0.098575
     68 C                     0.252887      -0.073075
     69 C                    -0.238491      -0.066940
     70 C                    -0.230777       0.116089
     71 C                    -0.239751      -0.071345
     72 C                    -0.256718       0.103102
     73 C                    -0.258263       0.096564
     74 C                    -0.238727      -0.065562
     75 C                    -0.230391       0.114212
     76 C                    -0.239983      -0.070398
     77 H                     0.240698       0.000345
     78 H                     0.240421       0.000340
     79 H                     0.244696      -0.000699
     80 H                     0.244252      -0.000766
     81 H                     0.241985       0.001463
     82 H                     0.244728      -0.000774
     83 H                     0.242004       0.001449
     84 H                     0.244393      -0.000730
     85 H                     0.260110      -0.000001
     86 H                     0.259770      -0.000001
     87 H                     0.247159       0.000001
     88 H                     0.243736      -0.000001
     89 H                     0.247047       0.000001
     90 H                     0.259863      -0.000001
     91 H                     0.260847      -0.000001
     92 H                     0.246740       0.000001
     93 H                     0.243056      -0.000001
     94 H                     0.246502       0.000001
     95 H                     0.228524       0.002125
     96 H                     0.215962      -0.000909
     97 H                     0.215304      -0.001085
     98 H                     0.226632       0.002044
     99 H                     0.241691      -0.004946
    100 H                     0.248528       0.002547
    101 H                     0.244714      -0.004515
    102 H                     0.244885      -0.003855
    103 H                     0.247232       0.002291
    104 H                     0.236462      -0.004195
    105 H                     0.248636       0.002553
    106 H                     0.242558      -0.004933
    107 H                     0.244701      -0.004514
    108 H                     0.235351      -0.004275
    109 H                     0.246885       0.002330
    110 H                     0.244620      -0.003955
    111 H                     0.291626      -0.008565
    112 H                     0.292259      -0.008528
    113 H                     0.252844       0.001000
    114 H                     0.263554      -0.004784
    115 H                     0.261812      -0.003734
    116 H                     0.262935      -0.003804
    117 H                     0.252660       0.000970
    118 H                     0.261537      -0.004709
    119 H                     0.292107      -0.005221
    120 H                     0.288948      -0.005089
    121 H                     0.272333       0.003451
    122 H                     0.271445      -0.006334
    123 H                     0.273084       0.003857
    124 H                     0.292797      -0.005259
    125 H                     0.288596      -0.004992
    126 H                     0.272215       0.003376
    127 H                     0.271471      -0.006232
    128 H                     0.273132       0.003845
  --------------------------------------------------------
  Sum of atomic charges =    -0.000000

                    Cartesian Multipole Moments
 -----------------------------------------------------------------
    Charge (ESU x 10^10)
                -0.0000
    Dipole Moment (Debye)
         X     -12.8413      Y     -13.0054      Z     -23.6536
       Tot      29.8920
    Quadrupole Moments (Debye-Ang)
        XX    -231.7733     XY     155.5205     YY    -312.9089
        XZ     217.9769     YZ     132.8440     ZZ    -268.0977

 Total job time:  188312.71s(wall), 550747.98s(cpu)
        *  Thank you very much for using Q-Chem.  Have a nice day.  *
