 Q-Chem 5.0, Q-Chem, Inc., Pleasanton, CA (2017)
 Q-Chem 5.0.1 for Intel X86 EM64T Linux

User input:
--------------------------------------------------------------
$rem
threads 8
jobtype opt
method PBEh-3c
basis def2-mSVP
mem_static      1024
mem_total       8000
sym_ignore      true
unrestricted true
scf_algorithm   diis
scf_max_cycles  250
solvent_method  pcm
geom_opt_tol_energy 25
geom_opt_tol_gradient 75
$end

$pcm
theory  iefpcm
$end

$solvent
dielectric      2.03
$end

$molecule
read utLEincoords.mol
$end

--------------------------------------------------------------

   35   -2927.7934073843      9.12E-09 Convergence criterion met
 Total energy in the final basis set = -2927.79340738
   21   -2927.7983222742      9.17E-09 Convergence criterion met
 Total energy in the final basis set = -2927.79832227
   19   -2927.7986304142      8.75E-09 Convergence criterion met
 Total energy in the final basis set = -2927.79863041
   20   -2927.7987039300      7.93E-09 Convergence criterion met
 Total energy in the final basis set = -2927.79870393
   18   -2927.7988328363      9.04E-09 Convergence criterion met
 Total energy in the final basis set = -2927.79883284
   18   -2927.7988605114      8.00E-09 Convergence criterion met
 Total energy in the final basis set = -2927.79886051
   18   -2927.7988541076      8.03E-09 Convergence criterion met
 Total energy in the final basis set = -2927.79885411
   18   -2927.7988133613      8.73E-09 Convergence criterion met
   16   -2927.8082241625      8.22E-09 Convergence criterion met
 Total energy in the final basis set = -2927.80822416
   16   -2927.8082345628      8.17E-09 Convergence criterion met
 Total energy in the final basis set = -2927.80823456
   16   -2927.8082519410      8.15E-09 Convergence criterion met
 Total energy in the final basis set = -2927.80825194
   16   -2927.8082672295      8.17E-09 Convergence criterion met
 Total energy in the final basis set = -2927.80826723
   16   -2927.8082782394      8.21E-09 Convergence criterion met
 Total energy in the final basis set = -2927.80827824
   16   -2927.8082798771      8.33E-09 Convergence criterion met
 Total energy in the final basis set = -2927.80827988

             Standard Nuclear Orientation (Angstroms)
    I     Atom           X                Y                Z
 ----------------------------------------------------------------
    1      C      -4.8451939073    -0.3799541540     4.5072523795
    2      C      -5.4474276057    -0.9512965441     3.3927603798
    3      C      -4.7425464794    -1.0700947571     2.1886553483
    4      C      -3.4306165843    -0.5821751616     2.1276606025
    5      C      -2.8484514622     0.0122472069     3.2406562981
    6      C      -3.5468594601     0.1065669289     4.4376551907
    7      N      -2.9393263085     0.6852471586     5.5755290015
    8      C      -6.8558493560    -1.4700865533     3.4895603219
    9      C      -2.6526734664    -0.7003219331     0.8465641040
   10      C      -1.6829522389     0.2276413374     5.9908633451
   11      C      -0.7609665092     1.1001616843     6.5720347762
   12      C      -4.4566372548     2.5681539671     5.6959176197
   13      C      -3.6692824243     1.6094582740     6.3357788715
   14      C      -5.2190227346     3.4555630206     6.4358046871
   15      C      -5.1987767835     3.4199869396     7.8234135134
   16      C      -4.4090577004     2.4747172343     8.4620883072
   17      C      -3.6571906817     1.5696035004     7.7302448397
   18      C      -1.3237706533    -1.1096711739     5.8119670022
   19      C      -0.0715236533    -1.5559641844     6.1989456744
   20      C       0.8390023849    -0.6898337312     6.7875247066
   21      C       0.4810179212     0.6381423928     6.9744249898
   22      C      -6.7377606554    -1.6595816843    -1.2516321445
   23      C      -6.1642266440    -0.9854209870    -0.1291938712
   24      B      -5.3971131149    -1.7841643741     0.9389156568
   25      C      -5.2635755542    -3.3107463812     0.7882052804
   26      C      -5.8394815685    -3.9802971923    -0.3347397913
   27      B      -6.5928279118    -3.1737856576    -1.3857712301
   28      C      -4.5762034620    -4.0689331177     1.7570105347
   29      C      -4.4576476095    -5.4330096085     1.6320963560
   30      C      -5.0340785123    -6.0962883654     0.5083652667
   31      C      -5.7056637358    -5.3805986467    -0.4480189768
   32      C      -7.4400082316    -0.9110959636    -2.2185460827
   33      C      -7.5745418436     0.4463716448    -2.0897600490
   34      C      -7.0027833634     1.1266861860    -0.9746045519
   35      C      -6.3150163643     0.4120619727    -0.0201011698
   36      C      -3.1133258710    -6.4439757681     3.6463092038
   37      C      -2.6365097088    -7.6745368029     4.1559361295
   38      C      -2.8490460466    -8.8757571116     3.5193743960
   39      C      -3.5719832221    -8.9108214719     2.3023711622
   40      C      -4.0290063854    -7.6848952323     1.8245191687
   41      C      -3.8177422025    -6.4474398244     2.4679850706
   42      C      -3.8814664512   -10.0468187184     1.5145620503
   43      C      -4.5961096595    -9.9017586011     0.3474249189
   44      C      -5.0468357169    -8.6440571769    -0.1150862312
   45      C      -4.7611970483    -7.5269008865     0.6309300123
   46      C      -7.5418510992     4.9226543632    -0.8798950258
   47      C      -7.0515225773     3.6864710145    -0.3967299432
   48      C      -7.3127432930     2.5486896145    -1.1181678044
   49      C      -8.0608432364     2.6762680173    -2.3081726174
   50      C      -8.5583169756     3.8762497782    -2.8071658090
   51      C      -8.2719397693     5.0328163772    -2.0414723268
   52      C      -8.2468840499     1.4272370982    -2.9331788676
   53      C      -8.9608851819     1.3741162756    -4.1044018784
   54      C      -9.4776376495     2.5783838045    -4.6332511621
   55      C      -9.2907520201     3.7953473464    -4.0174520219
   56      C      -9.1834132475    -4.9618376670    -3.6385606531
   57      C      -8.5888976702    -4.3824400751    -2.5459248273
   58      C      -7.2522526606    -3.9052065531    -2.6225964097
   59      C      -6.5333069099    -4.0713284024    -3.8369768688
   60      C      -7.1379044633    -4.6397137597    -4.9297370137
   61      C      -8.4765801809    -5.0841679773    -4.8555192702
   62      N      -9.0841954765    -5.6159802400    -5.9548683457
   63      C      -9.3572302570    -4.2143046126    -1.2727662607
   64      C      -5.1068587655    -3.6248990601    -3.9139038630
   65      C      -8.6699025715    -5.2680920880    -7.2622090619
   66      C      -8.4848326731    -3.9296378015    -7.5998826750
   67      C     -11.2960421367    -6.3458385319    -6.6268191032
   68      C     -10.1624001508    -6.5236641853    -5.8375115417
   69      C     -12.3387198852    -7.2497649237    -6.5310311519
   70      C     -12.2530809276    -8.3284662293    -5.6601260784
   71      C     -11.1173810461    -8.5041527914    -4.8819575464
   72      C     -10.0660750799    -7.6074819939    -4.9684462204
   73      C      -8.4923135968    -6.2705953476    -8.2123738046
   74      C      -8.1088784933    -5.9286295413    -9.4965721247
   75      C      -7.9107327661    -4.5966288630    -9.8375559314
   76      C      -8.1012597920    -3.6012250738    -8.8891144139
   77      H      -5.3951108104    -0.3114594978     5.4390875534
   78      H      -1.8361270240     0.3955157820     3.1809383145
   79      H      -6.8969332772    -2.5459804447     3.3065392323
   80      H      -7.5023467034    -1.0013123625     2.7450382999
   81      H      -7.2879916208    -1.2819936468     4.4723062268
   82      H      -2.5363442593    -1.7458053956     0.5522561140
   83      H      -1.6566501549    -0.2667286011     0.9358364201
   84      H      -3.1651906009    -0.1991724031     0.0231097884
   85      H      -1.0181941821     2.1432213703     6.7040888137
   86      H      -4.4788986773     2.6061475824     4.6142752754
   87      H      -5.8285390779     4.1868147800     5.9202937961
   88      H      -5.7934598054     4.1171364387     8.3985260205
   89      H      -4.3903365035     2.4247883676     9.5433397931
   90      H      -3.0655269760     0.8216321365     8.2420790461
   91      H      -2.0269000203    -1.7998370232     5.3641328731
   92      H       0.1881356002    -2.5960981041     6.0476505532
   93      H       1.8143047313    -1.0441122027     7.0935478798
   94      H       1.1820961882     1.3303745019     7.4229784782
   95      H      -4.1386443117    -3.5615046215     2.6100362505
   96      H      -6.1392409985    -5.8989450068    -1.2995550345
   97      H      -7.8813652456    -1.4154247054    -3.0740716554
   98      H      -5.8797059686     0.9212806429     0.8336895395
   99      H      -2.9168953220    -5.5285076849     4.1899194859
  100      H      -2.0817937417    -7.6669077406     5.0855549167
  101      H      -2.4637607278    -9.7931960446     3.9477631187
  102      H      -3.5559420911   -11.0310035338     1.8296651445
  103      H      -4.8224118482   -10.7816374379    -0.2421645688
  104      H      -5.6033837385    -8.5859495407    -1.0429239476
  105      H      -7.3320790040     5.8172660751    -0.3075538689
  106      H      -6.4841922516     3.6581656721     0.5250282242
  107      H      -8.6261157759     6.0025928111    -2.3690368267
  108      H      -9.1356274862     0.4402234848    -4.6255490992
  109      H     -10.0418683080     2.5394991995    -5.5568078246
  110      H      -9.7063799728     4.6925365302    -4.4599415095
  111      H     -10.2198190775    -5.2708316008    -3.5884633568
  112      H      -6.5761682907    -4.7868568969    -5.8433461954
  113      H     -10.3683202249    -4.6112371648    -1.3554823163
  114      H      -9.4217238797    -3.1615454279    -0.9942278400
  115      H      -8.8536052715    -4.7237145700    -0.4498179680
  116      H      -4.6731408324    -3.8291518779    -4.8919153169
  117      H      -4.5012902539    -4.1239764451    -3.1563931664
  118      H      -5.0285252758    -2.5540669659    -3.7198336683
  119      H      -8.6598190118    -3.1532416398    -6.8664032602
  120      H     -11.3660450958    -5.5009368862    -7.2995961141
  121      H     -13.2245909952    -7.1079255323    -7.1350286576
  122      H     -13.0701508481    -9.0339696572    -5.5913351471
  123      H     -11.0419688348    -9.3507936762    -4.2132874505
  124      H      -9.1693955755    -7.7578735751    -4.3812035105
  125      H      -8.6413041014    -7.3084760052    -7.9445132841
  126      H      -7.9585670408    -6.7062366212   -10.2331734202
  127      H      -7.6129525356    -4.3350718467   -10.8439690068
  128      H      -7.9627414446    -2.5622496434    -9.1551085893
 ----------------------------------------------------------------

   16   -2927.8082810343      8.48E-09 Convergence criterion met
 Total energy in the final basis set = -2927.80828103
 Final energy is   -2927.80828103429
 **  OPTIMIZATION CONVERGED  **

                    Orbital Energies (a.u.)
 --------------------------------------------------------------

 Alpha MOs
 -- Occupied --
-14.772 -14.656 -10.550 -10.537 -10.537 -10.493 -10.493 -10.493
-10.492 -10.487 -10.487 -10.486 -10.486 -10.485 -10.485 -10.485
-10.485 -10.485 -10.484 -10.480 -10.479 -10.471 -10.464 -10.448
-10.448 -10.446 -10.446 -10.445 -10.445 -10.444 -10.444 -10.444
-10.443 -10.443 -10.442 -10.442 -10.442 -10.442 -10.442 -10.441
-10.441 -10.438 -10.437 -10.437 -10.437 -10.437 -10.436 -10.434
-10.433 -10.433 -10.433 -10.432 -10.432 -10.432 -10.432 -10.432
-10.431 -10.431 -10.431 -10.431 -10.430 -10.430 -10.430 -10.426
-10.425 -10.417 -10.417 -10.406 -10.406 -10.406 -10.405 -10.400
-10.400 -10.397  -6.899  -6.893  -1.163  -1.066  -1.006  -1.006
 -0.995  -0.994  -0.984  -0.949  -0.943  -0.937  -0.935  -0.924
 -0.915  -0.915  -0.909  -0.906  -0.894  -0.884  -0.881  -0.880
 -0.875  -0.852  -0.846  -0.843  -0.839  -0.832  -0.831  -0.829
 -0.829  -0.826  -0.825  -0.799  -0.799  -0.795  -0.791  -0.789
 -0.785  -0.779  -0.757  -0.749  -0.746  -0.744  -0.728  -0.721
 -0.713  -0.710  -0.708  -0.699  -0.693  -0.692  -0.681  -0.677
 -0.669  -0.669  -0.664  -0.659  -0.653  -0.647  -0.643  -0.633
 -0.627  -0.625  -0.623  -0.623  -0.605  -0.594  -0.594  -0.591
 -0.587  -0.576  -0.575  -0.572  -0.569  -0.564  -0.563  -0.558
 -0.555  -0.555  -0.550  -0.548  -0.538  -0.536  -0.534  -0.527
 -0.527  -0.523  -0.523  -0.520  -0.509  -0.508  -0.508  -0.505
 -0.502  -0.500  -0.498  -0.493  -0.487  -0.486  -0.484  -0.484
 -0.481  -0.477  -0.474  -0.473  -0.471  -0.471  -0.470  -0.469
 -0.469  -0.465  -0.465  -0.462  -0.461  -0.459  -0.458  -0.455
 -0.454  -0.452  -0.451  -0.445  -0.444  -0.444  -0.441  -0.440
 -0.440  -0.439  -0.435  -0.427  -0.424  -0.421  -0.420  -0.415
 -0.414  -0.412  -0.411  -0.407  -0.405  -0.402  -0.402  -0.400
 -0.395  -0.390  -0.384  -0.384  -0.380  -0.380  -0.379  -0.377
 -0.373  -0.369  -0.366  -0.353  -0.351  -0.350  -0.348  -0.343
 -0.341  -0.338  -0.330  -0.329  -0.318  -0.315  -0.315  -0.302
 -0.296  -0.292  -0.288  -0.283  -0.282  -0.280  -0.277  -0.265
 -0.265  -0.256  -0.248  -0.238  -0.233  -0.206  -0.145

 Beta MOs
 -- Occupied --
-14.763 -14.656 -10.549 -10.539 -10.538 -10.492 -10.492 -10.491
-10.491 -10.488 -10.488 -10.486 -10.486 -10.486 -10.485 -10.485
-10.485 -10.483 -10.483 -10.480 -10.479 -10.466 -10.464 -10.449
-10.448 -10.446 -10.445 -10.445 -10.445 -10.444 -10.444 -10.443
-10.443 -10.443 -10.443 -10.443 -10.442 -10.441 -10.441 -10.441
-10.440 -10.438 -10.437 -10.437 -10.437 -10.437 -10.436 -10.433
-10.433 -10.433 -10.433 -10.432 -10.432 -10.432 -10.431 -10.431
-10.431 -10.431 -10.431 -10.430 -10.430 -10.429 -10.429 -10.427
-10.426 -10.417 -10.417 -10.406 -10.406 -10.405 -10.405 -10.399
-10.399 -10.397  -6.896  -6.891  -1.149  -1.066  -1.005  -1.002
 -0.994  -0.994  -0.979  -0.949  -0.943  -0.936  -0.934  -0.924
 -0.915  -0.914  -0.908  -0.901  -0.893  -0.882  -0.880  -0.879
 -0.875  -0.852  -0.843  -0.839  -0.838  -0.830  -0.830  -0.828
 -0.828  -0.826  -0.825  -0.795  -0.795  -0.793  -0.790  -0.785
 -0.784  -0.777  -0.752  -0.747  -0.746  -0.744  -0.726  -0.719
 -0.711  -0.708  -0.707  -0.698  -0.693  -0.692  -0.679  -0.675
 -0.669  -0.669  -0.663  -0.658  -0.650  -0.645  -0.641  -0.631
 -0.627  -0.624  -0.623  -0.622  -0.603  -0.594  -0.591  -0.583
 -0.579  -0.575  -0.574  -0.572  -0.567  -0.563  -0.561  -0.557
 -0.554  -0.554  -0.548  -0.547  -0.537  -0.536  -0.533  -0.527
 -0.526  -0.523  -0.522  -0.520  -0.508  -0.507  -0.507  -0.501
 -0.500  -0.497  -0.495  -0.491  -0.485  -0.484  -0.483  -0.480
 -0.477  -0.475  -0.473  -0.471  -0.471  -0.470  -0.469  -0.468
 -0.467  -0.464  -0.463  -0.462  -0.460  -0.458  -0.454  -0.453
 -0.452  -0.451  -0.450  -0.445  -0.444  -0.443  -0.441  -0.438
 -0.438  -0.435  -0.433  -0.427  -0.423  -0.421  -0.418  -0.414
 -0.412  -0.410  -0.409  -0.406  -0.403  -0.400  -0.399  -0.393
 -0.390  -0.384  -0.384  -0.380  -0.378  -0.377  -0.377  -0.376
 -0.372  -0.367  -0.365  -0.350  -0.345  -0.344  -0.343  -0.341
 -0.336  -0.332  -0.327  -0.320  -0.314  -0.312  -0.301  -0.296
 -0.292  -0.292  -0.288  -0.283  -0.278  -0.277  -0.265  -0.256
 -0.254  -0.240  -0.235  -0.226  -0.206

          Ground-State Mulliken Net Atomic Charges

     Atom                 Charge (a.u.)    Spin (a.u.)
  --------------------------------------------------------
      1 C                    -0.357159      -0.000773
      2 C                     0.042007       0.003055
      3 C                    -0.190288      -0.022905
      4 C                     0.041725       0.002983
      5 C                    -0.355831      -0.000800
      6 C                     0.274186       0.000679
      7 N                    -0.671329       0.000072
      8 C                    -0.757433       0.000583
      9 C                    -0.758036       0.000669
     10 C                     0.309407      -0.000030
     11 C                    -0.293150       0.000053
     12 C                    -0.286298       0.000053
     13 C                     0.299990      -0.000034
     14 C                    -0.224631      -0.000042
     15 C                    -0.253822       0.000061
     16 C                    -0.226995      -0.000040
     17 C                    -0.293286       0.000054
     18 C                    -0.294350       0.000055
     19 C                    -0.224496      -0.000041
     20 C                    -0.255196       0.000060
     21 C                    -0.226411      -0.000039
     22 C                    -0.129732       0.013611
     23 C                    -0.145782       0.071102
     24 B                     0.590751       0.265141
     25 C                    -0.145425       0.072156
     26 C                    -0.130594       0.011064
     27 B                     0.553281       0.345945
     28 C                    -0.402576      -0.063731
     29 C                     0.087364       0.102473
     30 C                     0.071260       0.026232
     31 C                    -0.405448      -0.001340
     32 C                    -0.400016      -0.004145
     33 C                     0.070234       0.029287
     34 C                     0.090930       0.101893
     35 C                    -0.408339      -0.063178
     36 C                    -0.400562       0.087174
     37 C                    -0.213530      -0.053666
     38 C                    -0.354901       0.079130
     39 C                     0.239529      -0.037259
     40 C                    -0.076885       0.023056
     41 C                     0.189503      -0.059067
     42 C                    -0.351840       0.060617
     43 C                    -0.215254      -0.043446
     44 C                    -0.398910       0.064585
     45 C                     0.190902      -0.040469
     46 C                    -0.212959      -0.054377
     47 C                    -0.401892       0.088084
     48 C                     0.188294      -0.059368
     49 C                    -0.076788       0.023421
     50 C                     0.241257      -0.037988
     51 C                    -0.356746       0.080157
     52 C                     0.189017      -0.041727
     53 C                    -0.396230       0.066698
     54 C                    -0.215930      -0.044726
     55 C                    -0.351954       0.062914
     56 C                    -0.361448       0.145386
     57 C                     0.056190      -0.107810
     58 C                    -0.139832       0.379220
     59 C                     0.057567      -0.108396
     60 C                    -0.360191       0.145791
     61 C                     0.345911       0.047259
     62 N                    -0.587379       0.333434
     63 C                    -0.753339       0.008838
     64 C                    -0.751680       0.009133
     65 C                     0.245825      -0.065799
     66 C                    -0.251690       0.085092
     67 C                    -0.254592       0.080758
     68 C                     0.249538      -0.066223
     69 C                    -0.226897      -0.053902
     70 C                    -0.222581       0.091981
     71 C                    -0.228272      -0.058460
     72 C                    -0.254498       0.085005
     73 C                    -0.254085       0.080231
     74 C                    -0.226910      -0.053571
     75 C                    -0.222466       0.091795
     76 C                    -0.228386      -0.058405
     77 H                     0.231429       0.000331
     78 H                     0.230555       0.000328
     79 H                     0.245643      -0.000661
     80 H                     0.245177      -0.000739
     81 H                     0.231863       0.001420
     82 H                     0.245698      -0.000722
     83 H                     0.231658       0.001411
     84 H                     0.245550      -0.000715
     85 H                     0.251520      -0.000003
     86 H                     0.252873      -0.000003
     87 H                     0.229137       0.000002
     88 H                     0.225386      -0.000003
     89 H                     0.228657       0.000002
     90 H                     0.251811      -0.000003
     91 H                     0.254042      -0.000002
     92 H                     0.228769       0.000003
     93 H                     0.224756      -0.000003
     94 H                     0.228047       0.000002
     95 H                     0.223553       0.002699
     96 H                     0.190250      -0.001949
     97 H                     0.188310      -0.002108
     98 H                     0.221904       0.002664
     99 H                     0.224399      -0.005141
    100 H                     0.229800       0.002608
    101 H                     0.223473      -0.004711
    102 H                     0.223721      -0.003556
    103 H                     0.224645       0.002174
    104 H                     0.208644      -0.003853
    105 H                     0.229887       0.002642
    106 H                     0.225608      -0.005189
    107 H                     0.223444      -0.004772
    108 H                     0.205804      -0.003984
    109 H                     0.223751       0.002236
    110 H                     0.223434      -0.003698
    111 H                     0.279492      -0.007708
    112 H                     0.279407      -0.007700
    113 H                     0.238564       0.001147
    114 H                     0.274784      -0.003951
    115 H                     0.272228      -0.002810
    116 H                     0.238372       0.001098
    117 H                     0.272010      -0.003929
    118 H                     0.273337      -0.002809
    119 H                     0.278954      -0.004445
    120 H                     0.273168      -0.004258
    121 H                     0.258438       0.002806
    122 H                     0.258023      -0.005076
    123 H                     0.260728       0.003283
    124 H                     0.279334      -0.004419
    125 H                     0.272856      -0.004233
    126 H                     0.258211       0.002781
    127 H                     0.258159      -0.005065
    128 H                     0.261325       0.003295
  --------------------------------------------------------
  Sum of atomic charges =    -0.000000

                    Cartesian Multipole Moments
 -----------------------------------------------------------------
    Charge (ESU x 10^10)
                -0.0000
    Dipole Moment (Debye)
         X     -11.2301      Y     -11.3637      Z     -20.6703
       Tot      26.1249
    Quadrupole Moments (Debye-Ang)
        XX    -260.9981     XY     137.4748     YY    -338.1030
        XZ     185.8592     YZ     115.4748     ZZ    -297.1283

 Total job time:  140551.33s(wall), 455056.56s(cpu)
        *  Thank you very much for using Q-Chem.  Have a nice day.  *
