 Q-Chem 5.1, Q-Chem, Inc., Pleasanton, CA (2018)
 Q-Chem 5.1.1 for Intel X86 EM64T Linux

User input:
--------------------------------------------------------------
$rem
threads 8
jobtype opt
method PBEh-3c
basis def2-mSVP
mem_static      1024
mem_total       8000
sym_ignore      true
unrestricted true
scf_algorithm	diis
scf_max_cycles	250
solvent_method  pcm
geom_opt_tol_energy 25
geom_opt_tol_gradient 75
$end

$pcm
theory  iefpcm
$end

$solvent
dielectric      2.38
$end

$molecule
read utleopt_chx.mol
$end
--------------------------------------------------------------

   22   -2927.8118835124      9.75e-09  Convergence criterion met
 Total energy in the final basis set =    -2927.8118835124
   17   -2927.8121332862      7.66e-09  Convergence criterion met
 Total energy in the final basis set =    -2927.8121332862
   17   -2927.8117828907      8.13e-09  Convergence criterion met
 Total energy in the final basis set =    -2927.8117828907
   17   -2927.8115456970      6.83e-09  Convergence criterion met
 Total energy in the final basis set =    -2927.8115456970
   17   -2927.8121749634      6.68e-09  Convergence criterion met
 Total energy in the final basis set =    -2927.8121749634
   17   -2927.8121355080      6.12e-09  Convergence criterion met
 Total energy in the final basis set =    -2927.8121355080
   17   -2927.8121554347      5.91e-09  Convergence criterion met
 Total energy in the final basis set =    -2927.8121554347
   17   -2927.8121031687      5.99e-09  Convergence criterion met
 Total energy in the final basis set =    -2927.8121031687
   17   -2927.8121894963      5.93e-09  Convergence criterion met
 Total energy in the final basis set =    -2927.8121894963
   17   -2927.8121748338      5.89e-09  Convergence criterion met
 Total energy in the final basis set =    -2927.8121748338
   17   -2927.8121716818      5.95e-09  Convergence criterion met
 Total energy in the final basis set =    -2927.8121716818
   17   -2927.8121685643      5.95e-09  Convergence criterion met
 Total energy in the final basis set =    -2927.8121685643

             Standard Nuclear Orientation (Angstroms)
    I     Atom           X                Y                Z
 ----------------------------------------------------------------
    1      N      -0.0194604348    -0.2071905007     0.0384235862
    2      C       0.0228442769     0.0330824405     1.3806447842
    3      C       1.2581722299     0.0988024534     2.0630212669
    4      H       2.1814369441    -0.0534542399     1.5189677655
    5      C       1.2841777022     0.2711504831     3.4247947787
    6      C      -1.1818946060     0.1997698677     2.0991603090
    7      H      -2.1235909077     0.2142910375     1.5658477939
    8      C      -1.1620686990     0.3811163614     3.4580120555
    9      C      -1.1532239797    -0.8121612261    -0.5541030029
   10      C      -1.6988665404    -1.9630610177     0.0098983563
   11      H      -1.2540660633    -2.4029204574     0.8934349879
   12      C      -2.8032576760    -2.5520050153    -0.5815069104
   13      H      -3.2251161404    -3.4483338128    -0.1474846349
   14      C      -3.3575934476    -2.0036527368    -1.7296977875
   15      H      -4.2207204494    -2.4674937747    -2.1879410569
   16      C      -2.8010624518    -0.8626361228    -2.2933362641
   17      H      -3.2334786812    -0.4316806282    -3.1861398218
   18      C      -1.6965446408    -0.2644355895    -1.7134041933
   19      H      -1.2685102584     0.6296960459    -2.1480672105
   20      C       1.0580693676     0.1227423241    -0.8148183743
   21      C       1.4895479360    -0.8069618361    -1.7577277943
   22      H       1.0275319748    -1.7842572211    -1.8109265359
   23      C       2.5240451872    -0.4745836441    -2.6131701830
   24      H       2.8689330297    -1.1981707234    -3.3392461781
   25      C       3.1206983189     0.7776631952    -2.5369540516
   26      H       3.9269132929     1.0336195923    -3.2110854110
   27      C       2.6791623330     1.7026239309    -1.6008573826
   28      H       3.1318589300     2.6833222375    -1.5494484032
   29      C       1.6448992505     1.3828338953    -0.7377354133
   30      H       1.2801659268     2.1115548773    -0.0253324277
   31      C       0.0728689320     0.3851975727     4.1577959526
   32      C      -2.4420502539     0.5624044893     4.2135320019
   33      H      -3.3058453833     0.5587488598     3.5496597424
   34      H      -2.4383171084     1.4999113557     4.7706790752
   35      H      -2.5710019220    -0.2350471514     4.9474075800
   36      C       2.5868466114     0.2844341335     4.1609424334
   37      H       3.4368898802     0.2290161637     3.4821003973
   38      H       2.6464959609    -0.5549213373     4.8556176744
   39      H       2.6818812675     1.1910666621     4.7602365377
   40      B       0.0811179044     0.4263254295     5.7338523145
   41      C       0.0424748310    -0.9041885762     6.4805791461
   42      C       0.0085248687    -2.1284676164     5.7821518536
   43      H       0.0096750749    -2.1355742315     4.6958045230
   44      C      -0.0302729300    -3.3173655959     6.4604246864
   45      C      -0.0334932954    -3.3396428167     7.8871868785
   46      C      -0.0022846597    -2.1549898867     8.5855817323
   47      H      -0.0059850889    -2.1626009544     9.6711163997
   48      C       0.0318612597    -0.9181113585     7.9085276089
   49      C      -0.0733758425    -4.6954438222     5.9795768078
   50      C      -0.0905880046    -5.2990498696     4.7454635959
   51      H      -0.0681610611    -4.7227949301     3.8282140864
   52      C      -0.1011383755    -5.5112048069     7.1269338957
   53      C      -0.1459323743    -6.9039848020     7.0899783225
   54      C      -0.0777229123    -4.7411617195     8.3091146918
   55      C      -0.1001421447    -5.4089028280     9.5093897875
   56      H      -0.0841388904    -4.8814789309    10.4548995223
   57      C      -0.1364685414    -6.7105642576     4.6791882194
   58      H      -0.1494684053    -7.1839130273     3.7051839929
   59      C      -0.1637955435    -7.5009810446     5.8054880337
   60      H      -0.1983415038    -8.5796746917     5.7096169549
   61      C      -0.1453994102    -6.8233928026     9.5028938936
   62      H      -0.1629722638    -7.3411780400    10.4535902411
   63      C      -0.1680743495    -7.5628522984     8.3427738858
   64      H      -0.2026164964    -8.6447946828     8.3876475153
   65      C       0.0933120070     1.7494419338     6.4880258193
   66      C       0.1116268153     2.9817276242     5.8016410914
   67      H       0.1300273715     2.9931012733     4.7150073715
   68      C       0.1030682999     4.1656735815     6.4929181330
   69      C       0.0785352135     4.1656645240     7.9183734035
   70      C       0.0622798633     2.9724506264     8.6041809578
   71      H       0.0408617772     2.9696715888     9.6892172528
   72      C       0.0688624322     1.7419618467     7.9162826436
   73      C       0.1096431150     5.5509037441     6.0353771550
   74      C       0.1268671343     6.1674792363     4.8095719217
   75      H       0.1411293874     5.6014333317     3.8858007281
   76      C       0.0898026876     6.3497460697     7.1950840967
   77      C       0.0868574961     7.7402868582     7.1821154673
   78      C       0.0711898489     5.5566705543     8.3623139722
   79      C       0.0499308440     6.1938516232     9.5767480811
   80      H       0.0356744135     5.6425828586    10.5088648483
   81      C       0.1245673311     7.5798983371     4.7663442573
   82      H       0.1378204507     8.0681846015     3.7999069750
   83      C       0.1054978180     8.3537601977     5.9048554149
   84      H       0.1042007074     9.4337898988     5.8223665763
   85      C       0.0472383667     7.6083038619     9.5960634497
   86      H       0.0308548009     8.1088279851    10.5558283836
   87      C       0.0645741958     8.3707385426     8.4500118282
   88      H       0.0611987754     9.4516079747     8.5189101100
   89      B       0.0398392478     0.4062742687     8.6851665423
   90      C      -0.0088325587     0.4219432302    10.2619675008
   91      C      -1.2396400715     0.4145426157    10.9302996299
   92      C      -1.2838731993     0.5096097032    12.3150803288
   93      H      -2.2404299175     0.5056605613    12.8253377597
   94      C      -0.1154855120     0.6397889288    13.0546434235
   95      C       1.1103348435     0.6206873971    12.4004881953
   96      H       2.0260975140     0.7141765050    12.9730746236
   97      C       1.1679506883     0.4973292186    11.0169550077
   98      N      -0.1855640547     0.8139772000    14.4555892649
   99      C       0.6126351518     0.0297425550    15.2953774236
  100      C       1.1761639144     0.5640946439    16.4555814490
  101      H       0.9978926903     1.6002388792    16.7133695396
  102      C       1.9675577500    -0.2238154188    17.2752069178
  103      H       2.3959913813     0.2091987768    18.1702251617
  104      C       2.2315899899    -1.5465886258    16.9480347200
  105      H       2.8583021601    -2.1553430487    17.5860947616
  106      C       1.6818852470    -2.0761597431    15.7887230282
  107      H       1.8732066466    -3.1070632781    15.5189460119
  108      C       0.8730224098    -1.3034214750    14.9727944081
  109      H       0.4418123367    -1.7330717522    14.0777655365
  110      C      -1.0839843675     1.7583041059    14.9710366349
  111      C      -1.8240289331     1.4943610635    16.1241630831
  112      H      -1.7026025695     0.5496758671    16.6388928369
  113      C      -2.7254987319     2.4296788139    16.6063650469
  114      H      -3.2921544015     2.2045835853    17.5010117115
  115      C      -2.9242363482     3.6315674463    15.9416949722
  116      H      -3.6383839444     4.3535745682    16.3147895422
  117      C      -2.1973833914     3.8914994236    14.7880420932
  118      H      -2.3380346653     4.8238846211    14.2561144720
  119      C      -1.2793671553     2.9722617362    14.3096834001
  120      H      -0.7180944196     3.1886293470    13.4097806639
  121      C       2.4994382836     0.4742227443    10.3192056199
  122      H       3.3288258922     0.5318049728    11.0241339567
  123      H       2.5960122509     1.3069678943     9.6194969737
  124      H       2.6197564067    -0.4403589375     9.7347329663
  125      C      -2.5181312831     0.3023723277    10.1461511494
  126      H      -3.3937006455     0.3302651517    10.7950060200
  127      H      -2.6125551129     1.1160164119     9.4238431681
  128      H      -2.5531660206    -0.6276648208     9.5752916941
 ----------------------------------------------------------------

   17   -2927.8121686087      5.92e-09  Convergence criterion met
 Total energy in the final basis set =    -2927.8121686087
 Final energy is   -2927.81216860873
 **  OPTIMIZATION CONVERGED  **

                    Orbital Energies (a.u.)
 --------------------------------------------------------------

 Alpha MOs
 -- Occupied --
-14.770 -14.658 -10.548 -10.535 -10.535 -10.491 -10.491 -10.490
-10.490 -10.486 -10.485 -10.484 -10.483 -10.483 -10.483 -10.482
-10.482 -10.482 -10.481 -10.481 -10.481 -10.469 -10.466 -10.450
-10.449 -10.448 -10.446 -10.446 -10.445 -10.445 -10.445 -10.444
-10.444 -10.444 -10.444 -10.443 -10.443 -10.443 -10.443 -10.443
-10.442 -10.439 -10.439 -10.438 -10.438 -10.436 -10.435 -10.435
-10.435 -10.435 -10.434 -10.434 -10.434 -10.433 -10.433 -10.433
-10.433 -10.432 -10.432 -10.432 -10.432 -10.432 -10.430 -10.428
-10.427 -10.420 -10.419 -10.408 -10.408 -10.406 -10.406 -10.402
-10.401 -10.398  -6.899  -6.894  -1.161  -1.068  -1.004  -1.003
 -0.996  -0.996  -0.982  -0.950  -0.945  -0.939  -0.937  -0.926
 -0.916  -0.916  -0.908  -0.904  -0.892  -0.885  -0.879  -0.878
 -0.876  -0.854  -0.845  -0.843  -0.841  -0.833  -0.833  -0.830
 -0.830  -0.827  -0.826  -0.800  -0.797  -0.796  -0.792  -0.788
 -0.786  -0.781  -0.755  -0.748  -0.747  -0.746  -0.725  -0.718
 -0.714  -0.711  -0.709  -0.700  -0.695  -0.694  -0.679  -0.676
 -0.671  -0.670  -0.665  -0.660  -0.654  -0.645  -0.644  -0.632
 -0.629  -0.626  -0.625  -0.624  -0.603  -0.596  -0.592  -0.588
 -0.586  -0.577  -0.576  -0.574  -0.570  -0.565  -0.561  -0.558
 -0.556  -0.554  -0.550  -0.549  -0.538  -0.536  -0.532  -0.529
 -0.525  -0.524  -0.522  -0.521  -0.510  -0.509  -0.509  -0.504
 -0.503  -0.499  -0.499  -0.492  -0.488  -0.485  -0.485  -0.485
 -0.482  -0.476  -0.475  -0.472  -0.472  -0.471  -0.470  -0.470
 -0.469  -0.467  -0.466  -0.464  -0.462  -0.457  -0.456  -0.456
 -0.454  -0.452  -0.451  -0.447  -0.446  -0.444  -0.443  -0.439
 -0.437  -0.437  -0.435  -0.429  -0.425  -0.422  -0.421  -0.416
 -0.415  -0.412  -0.412  -0.408  -0.407  -0.404  -0.401  -0.400
 -0.396  -0.391  -0.386  -0.385  -0.381  -0.381  -0.380  -0.378
 -0.374  -0.371  -0.368  -0.355  -0.352  -0.350  -0.346  -0.344
 -0.339  -0.337  -0.330  -0.329  -0.317  -0.316  -0.315  -0.304
 -0.297  -0.293  -0.290  -0.284  -0.283  -0.281  -0.275  -0.267
 -0.266  -0.258  -0.249  -0.239  -0.235  -0.208  -0.146

 Beta MOs
 -- Occupied --
-14.761 -14.658 -10.547 -10.536 -10.536 -10.489 -10.489 -10.489
-10.489 -10.487 -10.486 -10.483 -10.483 -10.483 -10.482 -10.482
-10.482 -10.481 -10.481 -10.481 -10.480 -10.466 -10.464 -10.450
-10.449 -10.447 -10.447 -10.446 -10.446 -10.445 -10.445 -10.445
-10.444 -10.444 -10.444 -10.444 -10.443 -10.442 -10.442 -10.442
-10.442 -10.439 -10.439 -10.438 -10.438 -10.436 -10.435 -10.435
-10.435 -10.434 -10.434 -10.434 -10.433 -10.433 -10.433 -10.433
-10.432 -10.432 -10.432 -10.432 -10.431 -10.431 -10.430 -10.429
-10.428 -10.420 -10.419 -10.408 -10.408 -10.406 -10.406 -10.401
-10.400 -10.398  -6.896  -6.892  -1.146  -1.068  -1.002  -1.000
 -0.996  -0.995  -0.977  -0.950  -0.945  -0.937  -0.935  -0.926
 -0.916  -0.915  -0.907  -0.899  -0.890  -0.883  -0.877  -0.876
 -0.876  -0.854  -0.845  -0.841  -0.836  -0.832  -0.831  -0.829
 -0.829  -0.827  -0.826  -0.797  -0.794  -0.793  -0.791  -0.786
 -0.783  -0.779  -0.750  -0.748  -0.746  -0.744  -0.723  -0.717
 -0.713  -0.709  -0.708  -0.700  -0.695  -0.694  -0.677  -0.674
 -0.670  -0.670  -0.664  -0.660  -0.651  -0.643  -0.642  -0.630
 -0.628  -0.626  -0.624  -0.624  -0.601  -0.596  -0.589  -0.583
 -0.576  -0.576  -0.575  -0.573  -0.568  -0.564  -0.559  -0.557
 -0.555  -0.552  -0.549  -0.547  -0.537  -0.535  -0.530  -0.528
 -0.523  -0.522  -0.521  -0.520  -0.509  -0.509  -0.508  -0.501
 -0.500  -0.498  -0.495  -0.491  -0.486  -0.485  -0.484  -0.481
 -0.476  -0.475  -0.473  -0.472  -0.471  -0.471  -0.469  -0.469
 -0.466  -0.465  -0.465  -0.463  -0.461  -0.456  -0.455  -0.454
 -0.451  -0.451  -0.448  -0.446  -0.446  -0.443  -0.443  -0.437
 -0.436  -0.434  -0.433  -0.429  -0.424  -0.422  -0.420  -0.416
 -0.412  -0.411  -0.410  -0.406  -0.404  -0.401  -0.400  -0.394
 -0.391  -0.386  -0.385  -0.381  -0.378  -0.378  -0.378  -0.377
 -0.373  -0.369  -0.367  -0.351  -0.345  -0.345  -0.343  -0.342
 -0.334  -0.330  -0.329  -0.321  -0.314  -0.310  -0.300  -0.297
 -0.293  -0.293  -0.290  -0.284  -0.279  -0.279  -0.267  -0.258
 -0.255  -0.242  -0.236  -0.228  -0.208

          Ground-State Mulliken Net Atomic Charges

     Atom                 Charge (a.u.)    Spin (a.u.)
  --------------------------------------------------------
      1 N                    -0.585477       0.338479
      2 C                     0.345397       0.041631
      3 C                    -0.358153       0.147152
      4 H                     0.280845      -0.007783
      5 C                     0.058148      -0.108005
      6 C                    -0.363770       0.151976
      7 H                     0.282915      -0.007936
      8 C                     0.057482      -0.113992
      9 C                     0.240326      -0.065331
     10 C                    -0.250617       0.085007
     11 H                     0.280638      -0.004410
     12 C                    -0.229979      -0.058330
     13 H                     0.263642       0.003280
     14 C                    -0.223676       0.091725
     15 H                     0.260156      -0.005055
     16 C                    -0.229565      -0.053218
     17 H                     0.260226       0.002786
     18 C                    -0.252274       0.079954
     19 H                     0.274132      -0.004236
     20 C                     0.254014      -0.067279
     21 C                    -0.256149       0.082562
     22 H                     0.275219      -0.004341
     23 C                    -0.228783      -0.055289
     24 H                     0.260504       0.002876
     25 C                    -0.224044       0.094177
     26 H                     0.259847      -0.005191
     27 C                    -0.230572      -0.059683
     28 H                     0.262285       0.003346
     29 C                    -0.256696       0.086783
     30 H                     0.281113      -0.004512
     31 C                    -0.142852       0.376952
     32 C                    -0.754517       0.009463
     33 H                     0.240880       0.001136
     34 H                     0.270800      -0.004138
     35 H                     0.273686      -0.003092
     36 C                    -0.753772       0.008797
     37 H                     0.240671       0.001119
     38 H                     0.273759      -0.003834
     39 H                     0.270060      -0.002882
     40 B                     0.552013       0.341693
     41 C                    -0.129022       0.018270
     42 C                    -0.397841      -0.007667
     43 H                     0.191608      -0.002143
     44 C                     0.068627       0.032556
     45 C                     0.084763       0.100546
     46 C                    -0.408804      -0.062729
     47 H                     0.222878       0.002623
     48 C                    -0.146391       0.070416
     49 C                     0.188785      -0.042834
     50 C                    -0.399488       0.068513
     51 H                     0.208200      -0.004090
     52 C                    -0.077305       0.023777
     53 C                     0.235990      -0.038582
     54 C                     0.188247      -0.059282
     55 C                    -0.404353       0.088372
     56 H                     0.227996      -0.005201
     57 C                    -0.218120      -0.045628
     58 H                     0.226773       0.002272
     59 C                    -0.352863       0.064246
     60 H                     0.226740      -0.003768
     61 C                    -0.215405      -0.054548
     62 H                     0.232716       0.002645
     63 C                    -0.356437       0.080200
     64 H                     0.226598      -0.004759
     65 C                    -0.130469       0.011665
     66 C                    -0.408403      -0.002904
     67 H                     0.194408      -0.001584
     68 C                     0.071467       0.027928
     69 C                     0.087420       0.099881
     70 C                    -0.403963      -0.062159
     71 H                     0.223831       0.002621
     72 C                    -0.144444       0.069954
     73 C                     0.184766      -0.040711
     74 C                    -0.398678       0.064786
     75 H                     0.213810      -0.003848
     76 C                    -0.076028       0.022834
     77 C                     0.239872      -0.037014
     78 C                     0.185937      -0.058297
     79 C                    -0.401727       0.086238
     80 H                     0.226927      -0.005074
     81 C                    -0.218666      -0.043477
     82 H                     0.228247       0.002167
     83 C                    -0.354119       0.061013
     84 H                     0.226577      -0.003578
     85 C                    -0.216258      -0.053304
     86 H                     0.232302       0.002586
     87 C                    -0.357827       0.078556
     88 H                     0.226404      -0.004667
     89 B                     0.585811       0.266548
     90 C                    -0.188921      -0.023027
     91 C                     0.041359       0.003050
     92 C                    -0.361267      -0.000811
     93 H                     0.232917       0.000335
     94 C                     0.276389       0.000709
     95 C                    -0.359183      -0.000851
     96 H                     0.232363       0.000340
     97 C                     0.041357       0.003133
     98 N                    -0.672181       0.000049
     99 C                     0.310277      -0.000025
    100 C                    -0.296474       0.000044
    101 H                     0.252934      -0.000002
    102 C                    -0.228426      -0.000033
    103 H                     0.231005       0.000002
    104 C                    -0.257731       0.000049
    105 H                     0.227559      -0.000003
    106 C                    -0.227023      -0.000034
    107 H                     0.231505       0.000002
    108 C                    -0.295637       0.000044
    109 H                     0.254965      -0.000002
    110 C                     0.300196      -0.000025
    111 C                    -0.293309       0.000045
    112 H                     0.252876      -0.000002
    113 C                    -0.229267      -0.000034
    114 H                     0.231161       0.000002
    115 C                    -0.256549       0.000050
    116 H                     0.228035      -0.000003
    117 C                    -0.226933      -0.000036
    118 H                     0.231960       0.000002
    119 C                    -0.288750       0.000045
    120 H                     0.254394      -0.000002
    121 C                    -0.758646       0.000681
    122 H                     0.233013       0.001423
    123 H                     0.247156      -0.000756
    124 H                     0.244218      -0.000667
    125 C                    -0.759328       0.000621
    126 H                     0.233344       0.001421
    127 H                     0.246796      -0.000849
    128 H                     0.244892      -0.000606
  --------------------------------------------------------
  Sum of atomic charges =    -0.000000

                    Cartesian Multipole Moments
 -----------------------------------------------------------------
    Charge (ESU x 10^10)
                -0.0000
    Dipole Moment (Debye)
         X      -0.2872      Y      -2.0940      Z     -26.3562
       Tot      26.4408
    Quadrupole Moments (Debye-Ang)
        XX    -421.2053     XY       6.5825     YY    -432.6416
        XZ      -3.0395     YZ     -10.8354     ZZ    -620.0845

 Total job time:  44609.67s(wall), 314546.02s(cpu)
        *  Thank you very much for using Q-Chem.  Have a nice day.  *
