                         Program Version 4.0.1 -  RELEASE  -
|  1> %maxcore 1700
|  2> %pal nprocs 8 end
|  3> !PBEh-3c TIGHTOPT RIJCOSX
|  4>
|  5> *xyz 0 3
|  6> C         0.1259330406   -4.5856407007    1.0666232976
|  7> C         0.0042700506   -4.4430353632    2.5853123735
|  8> C         1.5854549421   -4.1736596265    0.8712394581
|  9> C         2.2917826359   -4.1380065184   -0.3139290275
| 10> H         1.8175544917   -4.3980853921   -1.2526397491
| 11> C         3.6301865853   -3.7679806962   -0.2776947208
| 12> H         4.2013571834   -3.7302947589   -1.1958721989
| 13> C         4.2415515143   -3.4488987935    0.9300099326
| 14> H         5.2862599469   -3.1684483766    0.9418017932
| 15> C         3.5289743835   -3.4893774555    2.1194113027
| 16> H         4.0155700776   -3.2477721231    3.0554001202
| 17> C         2.1909662447   -3.8521846880    2.0835528102
| 18> C        -1.1046767133   -4.6826633207    3.3699493496
| 19> H        -2.0350022192   -5.0238586746    2.9329118344
| 20> C        -1.0085439523   -4.4777285629    4.7398934136
| 21> H        -1.8670717723   -4.6613228642    5.3719033196
| 22> C         0.1831588990   -4.0391147503    5.3053972217
| 23> H         0.2419061104   -3.8843245150    6.3743221968
| 24> C         1.2973213359   -3.7996709298    4.5147489287
| 25> H         2.2225509948   -3.4611180066    4.9629447745
| 26> C         1.2017454528   -4.0029771858    3.1471645391
| 27> C        -2.1162244323   -3.7716021406    0.0064241153
| 28> C        -2.9067215009   -2.7016639022   -0.4007682177
| 29> H        -3.9107378075   -2.8960224640   -0.7550073323
| 30> C        -2.4516072589   -1.3953468799   -0.3790529077
| 31> C        -3.3057151604   -0.3402336095   -0.8139675622
| 32> N        -4.0175422979    0.4903722477   -1.1716617515
| 33> C        -0.8121876488   -3.5356785700    0.4566299005
| 34> C        -0.3600504550   -2.2162182067    0.4709948028
| 35> H         0.6400473034   -1.9937152962    0.8130460102
| 36> C        -1.1493619097   -1.1535076527    0.0626404758
| 37> C        -0.6212140124    0.1704374324    0.0956618228
| 38> N        -0.1839688482    1.2344759592    0.1248001860
| 39> H         5.6585794489   -6.2629635507    0.2282109434
| 40> H         7.3522424556   -7.8003251968    1.2081941998
| 41> C         5.3551095127   -7.1768010360    0.7221651881
| 42> C         6.2972003589   -8.0316990766    1.2660241943
| 43> C         4.0058130303   -7.4679938766    0.8193169910
| 44> H         3.2928481777   -6.7730182842    0.3995660474
| 45> C         5.8743709085   -9.2063501358    1.8692017256
| 46> H         6.6192382993   -9.8839079118    2.2629713620
| 47> C         3.5837623954   -8.6315055146    1.4608270893
| 48> C         4.5302602539   -9.5410500360    1.9521786941
| 49> N         2.2262839709   -8.9328679807    1.6358187693
| 50> C         2.7551345767  -10.6683765003    3.2150967108
| 51> C         1.8407268205   -9.7355689591    2.7129162094
| 52> H         3.0893214195  -12.1296353954    4.7427683933
| 53> C         2.3932653626  -11.4135446904    4.3281364628
| 54> C         0.5756919222   -9.6155009909    3.2864154734
| 55> C         1.1425168011  -11.2869575469    4.9135771785
| 56> C         0.2302783761  -10.3959996698    4.3759339661
| 57> H        -0.1392344735   -8.9068864660    2.8918918306
| 58> H         0.8825620340  -11.8896409172    5.7733079585
| 59> H        -0.7551495669  -10.2921264179    4.8110190746
| 60> C         4.0327011018  -10.8926743604    2.4320444594
| 61> C         5.0806186676  -11.6489345193    3.2412403098
| 62> C         3.6829814061  -11.7441296591    1.1924053189
| 63> C         1.2373184061   -8.1779060967    0.9600833316
| 64> C         0.5232951342   -8.7469492730   -0.0834753805
| 65> C        -0.4402690186   -7.9902377577   -0.7134082454
| 66> C        -0.6892224098   -6.6559555835   -0.3769866267
| 67> C         0.0594605082   -6.0672731261    0.6440311619
| 68> C         0.9750007401   -6.8743854386    1.3244019515
| 69> H         1.5405370752   -6.4678495454    2.1524140667
| 70> H         0.7117665104   -9.7706885717   -0.3789908833
| 71> H        -1.0284081051   -8.4407387958   -1.5038823072
| 72> C        -1.8166428242   -5.9767694184   -1.0999995025
| 73> C        -2.6864834312   -5.1468920033   -0.1610290282
| 74> H        -2.4304083557   -6.7459481258   -1.5718684105
| 75> H        -1.4528265221   -5.3452256949   -1.9160616376
| 76> H        -2.7891731483   -5.6653547971    0.7958175961
| 77> H        -3.6946247462   -5.0622119618   -0.5688497709
| 78> H         2.9354737445  -11.2595017592    0.5652631398
| 79> H         3.2838587832  -12.7125856367    1.4992041288
| 80> H         4.5716699564  -11.9136937794    0.5820210352
| 81> H         5.3650581554  -11.1119051506    4.1467600354
| 82> H         5.9786656018  -11.8256193215    2.6498963293
| 83> H         4.7123354823  -12.6336330850    3.5289799549
| 84> *
| 85>
| 86>
| 87>
| 88>                          ****END OF INPUT****
 Total Charge           Charge          ....    0
 Multiplicity           Mult            ....    3
 Number of Electrons    NEL             ....  316
Dispersion correction           -0.078674377
FINAL SINGLE POINT ENERGY     -1855.403956311821
Dispersion correction            ... done
Dispersion correction           -0.078400524
FINAL SINGLE POINT ENERGY     -1855.419849901235
Dispersion correction            ... done
Dispersion correction           -0.078709509
FINAL SINGLE POINT ENERGY     -1855.422515321550
Dispersion correction            ... done
FINAL SINGLE POINT ENERGY     -1855.423025109026
FINAL SINGLE POINT ENERGY     -1855.423659059934
FINAL SINGLE POINT ENERGY     -1855.424204584960
FINAL SINGLE POINT ENERGY     -1855.424550955367
FINAL SINGLE POINT ENERGY     -1855.424771408765
FINAL SINGLE POINT ENERGY     -1855.424900449510
FINAL SINGLE POINT ENERGY     -1855.424977569918
FINAL SINGLE POINT ENERGY     -1855.425016026638
FINAL SINGLE POINT ENERGY     -1855.425029414181
FINAL SINGLE POINT ENERGY     -1855.425032865361
Dispersion correction            ... done
Dispersion correction           -0.078423114
FINAL SINGLE POINT ENERGY     -1855.425033896979
Dispersion correction            ... done
Dispersion correction           -0.078423724
FINAL SINGLE POINT ENERGY     -1855.425034476400
Dispersion correction            ... done
                    ***********************HURRAY********************

CARTESIAN COORDINATES (ANGSTROEM)
---------------------------------
  C      0.238223   -4.587279    0.925536
  C      0.069782   -4.391044    2.433682
  C      1.678220   -4.130160    0.735568
  C      2.423233   -4.150782   -0.426932
  H      1.996124   -4.512717   -1.354256
  C      3.739672   -3.707586   -0.379384
  H      4.342365   -3.713178   -1.277911
  C      4.292519   -3.260043    0.816880
  H      5.320163   -2.922321    0.836518
  C      3.543718   -3.248589    1.984435
  H      3.983878   -2.908940    2.913229
  C      2.228665   -3.688697    1.937265
  C     -1.030238   -4.667133    3.223573
  H     -1.925026   -5.113403    2.809688
  C     -0.968896   -4.370483    4.580004
  H     -1.819314   -4.583532    5.213671
  C      0.175693   -3.807141    5.131689
  H      0.204812   -3.583839    6.189708
  C      1.283181   -3.536002    4.340122
  H      2.175941   -3.107047    4.777146
  C      1.224695   -3.829700    2.987355
  C     -2.189474   -3.877447    0.179694
  C     -3.087678   -2.853494    0.213730
  H     -4.147606   -3.068654    0.149673
  C     -2.680301   -1.508661    0.248166
  C     -3.598006   -0.472253    0.380576
  N     -4.371394    0.388187    0.489450
  C     -0.722942   -3.584549    0.316064
  C     -0.316235   -2.266516    0.138008
  H      0.737161   -2.024619    0.106334
  C     -1.219267   -1.224494    0.055816
  C     -0.786220    0.089708   -0.165282
  N     -0.430815    1.177257   -0.346384
  H      5.803354   -6.390871    0.342346
  H      7.406534   -7.924912    1.466994
  C      5.455477   -7.292874    0.828635
  C      6.347760   -8.145552    1.453673
  C      4.099398   -7.569834    0.835750
  H      3.428790   -6.875115    0.350763
  C      5.869559   -9.303039    2.048635
  H      6.577723   -9.976973    2.510649
  C      3.617615   -8.715546    1.469792
  C      4.518497   -9.622824    2.046226
  N      2.246693   -8.994137    1.555962
  C      2.643127  -10.710497    3.200635
  C      1.778347   -9.775910    2.618457
  H      2.852628  -12.140570    4.778851
  C      2.195853  -11.426629    4.302514
  C      0.482122   -9.623400    3.110902
  C      0.913334  -11.268311    4.805241
  C      0.053982  -10.373288    4.192516
  H     -0.194853   -8.911358    2.660884
  H      0.589854  -11.846850    5.659956
  H     -0.954503  -10.241104    4.561803
  C      3.980474  -10.958347    2.528851
  C      4.962075  -11.686477    3.441457
  C      3.735972  -11.845059    1.289139
  C      1.315413   -8.191836    0.850526
  C      0.616965   -8.728297   -0.221039
  C     -0.316199   -7.947439   -0.874031
  C     -0.543913   -6.616541   -0.521049
  C      0.195858   -6.063462    0.523568
  C      1.082229   -6.881431    1.223040
  H      1.632414   -6.482418    2.067046
  H      0.792241   -9.753452   -0.519380
  H     -0.891964   -8.377316   -1.684587
  C     -1.653072   -5.868976   -1.204322
  C     -2.616279   -5.259377   -0.174549
  H     -2.201361   -6.560069   -1.845847
  H     -1.268039   -5.087829   -1.867046
  H     -2.642077   -5.912629    0.704866
  H     -3.635291   -5.228969   -0.562982
  H      3.057400  -11.370046    0.580875
  H      3.298828  -12.800630    1.584152
  H      4.677344  -12.040985    0.772287
  H      5.193549  -11.116044    4.341481
  H      5.894370  -11.896226    2.918079
  H      4.566609  -12.656048    3.742592

 Multiplicity           Mult            ....    3
 Number of Electrons    NEL             ....  316
 Basis Dimension        Dim             ....  767

ORBITAL ENERGIES
----------------
                 SPIN UP ORBITALS
  NO   OCC          E(Eh)            E(eV)
   0   1.0000     -14.681098      -399.4930
   1   1.0000     -14.659051      -398.8931
   2   1.0000     -14.655228      -398.7890
   3   1.0000     -10.524990      -286.3995
   4   1.0000     -10.522618      -286.3350
   5   1.0000     -10.515843      -286.1506
   6   1.0000     -10.511970      -286.0452
   7   1.0000     -10.508057      -285.9388
   8   1.0000     -10.499941      -285.7179
   9   1.0000     -10.494028      -285.5570
  10   1.0000     -10.492547      -285.5167
  11   1.0000     -10.492286      -285.5096
  12   1.0000     -10.492002      -285.5019
  13   1.0000     -10.488025      -285.3937
  14   1.0000     -10.486838      -285.3614
  15   1.0000     -10.486551      -285.3536
  16   1.0000     -10.481603      -285.2189
  17   1.0000     -10.481303      -285.2107
  18   1.0000     -10.478123      -285.1242
  19   1.0000     -10.476979      -285.0931
  20   1.0000     -10.475599      -285.0555
  21   1.0000     -10.475177      -285.0441
  22   1.0000     -10.472948      -284.9834
  23   1.0000     -10.470126      -284.9066
  24   1.0000     -10.469980      -284.9026
  25   1.0000     -10.469904      -284.9006
  26   1.0000     -10.469315      -284.8845
  27   1.0000     -10.468322      -284.8575
  28   1.0000     -10.467421      -284.8330
  29   1.0000     -10.467378      -284.8318
  30   1.0000     -10.466985      -284.8211
  31   1.0000     -10.465761      -284.7878
  32   1.0000     -10.465196      -284.7724
  33   1.0000     -10.465180      -284.7720
  34   1.0000     -10.465142      -284.7710
  35   1.0000     -10.452584      -284.4293
  36   1.0000     -10.452237      -284.4198
  37   1.0000     -10.445211      -284.2286
  38   1.0000     -10.445037      -284.2239
  39   1.0000     -10.444103      -284.1985
  40   1.0000     -10.443417      -284.1798
  41   1.0000     -10.443084      -284.1708
  42   1.0000     -10.440932      -284.1122
  43   1.0000     -10.438607      -284.0489
  44   1.0000     -10.437339      -284.0144
  45   1.0000     -10.431350      -283.8515
  46   1.0000     -10.427083      -283.7354
  47   1.0000      -1.092382       -29.7252
  48   1.0000      -1.041535       -28.3416
  49   1.0000      -1.030504       -28.0414
  50   1.0000      -1.020024       -27.7563
  51   1.0000      -1.001286       -27.2464
  52   1.0000      -0.988795       -26.9065
  53   1.0000      -0.970275       -26.4025
  54   1.0000      -0.961420       -26.1616
  55   1.0000      -0.958301       -26.0767
  56   1.0000      -0.939106       -25.5544
  57   1.0000      -0.936246       -25.4765
  58   1.0000      -0.911410       -24.8007
  59   1.0000      -0.901255       -24.5244
  60   1.0000      -0.892195       -24.2779
  61   1.0000      -0.885349       -24.0916
  62   1.0000      -0.859935       -23.4000
  63   1.0000      -0.858238       -23.3538
  64   1.0000      -0.849226       -23.1086
  65   1.0000      -0.847757       -23.0686
  66   1.0000      -0.834766       -22.7151
  67   1.0000      -0.827233       -22.5101
  68   1.0000      -0.819636       -22.3034
  69   1.0000      -0.813729       -22.1427
  70   1.0000      -0.795362       -21.6429
  71   1.0000      -0.779250       -21.2045
  72   1.0000      -0.772788       -21.0286
  73   1.0000      -0.745968       -20.2988
  74   1.0000      -0.732243       -19.9253
  75   1.0000      -0.724996       -19.7282
  76   1.0000      -0.716030       -19.4842
  77   1.0000      -0.711351       -19.3568
  78   1.0000      -0.703090       -19.1321
  79   1.0000      -0.691801       -18.8249
  80   1.0000      -0.683557       -18.6005
  81   1.0000      -0.677576       -18.4378
  82   1.0000      -0.673932       -18.3386
  83   1.0000      -0.672078       -18.2882
  84   1.0000      -0.663355       -18.0508
  85   1.0000      -0.643221       -17.5029
  86   1.0000      -0.619893       -16.8681
  87   1.0000      -0.616100       -16.7649
  88   1.0000      -0.613019       -16.6811
  89   1.0000      -0.612037       -16.6544
  90   1.0000      -0.596263       -16.2251
  91   1.0000      -0.586908       -15.9706
  92   1.0000      -0.584061       -15.8931
  93   1.0000      -0.570429       -15.5222
  94   1.0000      -0.567613       -15.4455
  95   1.0000      -0.563220       -15.3260
  96   1.0000      -0.543820       -14.7981
  97   1.0000      -0.540186       -14.6992
  98   1.0000      -0.537469       -14.6253
  99   1.0000      -0.535976       -14.5847
 100   1.0000      -0.534523       -14.5451
 101   1.0000      -0.529841       -14.4177
 102   1.0000      -0.524558       -14.2740
 103   1.0000      -0.521611       -14.1938
 104   1.0000      -0.520203       -14.1554
 105   1.0000      -0.513560       -13.9747
 106   1.0000      -0.510914       -13.9027
 107   1.0000      -0.504547       -13.7294
 108   1.0000      -0.504313       -13.7231
 109   1.0000      -0.501927       -13.6581
 110   1.0000      -0.499476       -13.5914
 111   1.0000      -0.495778       -13.4908
 112   1.0000      -0.492218       -13.3939
 113   1.0000      -0.490399       -13.3444
 114   1.0000      -0.488359       -13.2889
 115   1.0000      -0.485018       -13.1980
 116   1.0000      -0.477279       -12.9874
 117   1.0000      -0.473700       -12.8900
 118   1.0000      -0.462608       -12.5882
 119   1.0000      -0.452315       -12.3081
 120   1.0000      -0.448172       -12.1954
 121   1.0000      -0.444686       -12.1005
 122   1.0000      -0.442426       -12.0390
 123   1.0000      -0.441713       -12.0196
 124   1.0000      -0.439681       -11.9643
 125   1.0000      -0.438805       -11.9405
 126   1.0000      -0.437495       -11.9049
 127   1.0000      -0.436371       -11.8743
 128   1.0000      -0.431663       -11.7462
 129   1.0000      -0.430060       -11.7025
 130   1.0000      -0.428426       -11.6581
 131   1.0000      -0.422793       -11.5048
 132   1.0000      -0.421332       -11.4650
 133   1.0000      -0.419075       -11.4036
 134   1.0000      -0.416608       -11.3365
 135   1.0000      -0.415341       -11.3020
 136   1.0000      -0.413455       -11.2507
 137   1.0000      -0.404192       -10.9986
 138   1.0000      -0.401475       -10.9247
 139   1.0000      -0.399111       -10.8604
 140   1.0000      -0.396541       -10.7904
 141   1.0000      -0.393454       -10.7064
 142   1.0000      -0.391338       -10.6488
 143   1.0000      -0.379157       -10.3174
 144   1.0000      -0.374418       -10.1884
 145   1.0000      -0.365288        -9.9400
 146   1.0000      -0.353820        -9.6279
 147   1.0000      -0.346873        -9.4389
 148   1.0000      -0.339286        -9.2324
 149   1.0000      -0.323118        -8.7925
 150   1.0000      -0.310609        -8.4521
 151   1.0000      -0.305497        -8.3130
 152   1.0000      -0.300974        -8.1899
 153   1.0000      -0.292204        -7.9513
 154   1.0000      -0.287963        -7.8359
 155   1.0000      -0.281735        -7.6664
 156   1.0000      -0.273293        -7.4367
 157   1.0000      -0.231327        -6.2947
 158   1.0000      -0.205663        -5.5964
 159   0.0000      -0.039571        -1.0768
 160   0.0000      -0.024208        -0.6587
 161   0.0000      -0.016938        -0.4609
 162   0.0000      -0.011877        -0.3232
 163   0.0000      -0.006544        -0.1781

                 SPIN DOWN ORBITALS
  NO   OCC          E(Eh)            E(eV)
   0   1.0000     -14.681094      -399.4929
   1   1.0000     -14.651108      -398.6769
   2   1.0000     -14.649078      -398.6217
   3   1.0000     -10.514933      -286.1259
   4   1.0000     -10.514379      -286.1108
   5   1.0000     -10.512578      -286.0618
   6   1.0000     -10.505901      -285.8801
   7   1.0000     -10.500674      -285.7379
   8   1.0000     -10.499913      -285.7172
   9   1.0000     -10.497588      -285.6539
  10   1.0000     -10.495459      -285.5960
  11   1.0000     -10.492343      -285.5112
  12   1.0000     -10.492286      -285.5096
  13   1.0000     -10.492002      -285.5019
  14   1.0000     -10.490624      -285.4644
  15   1.0000     -10.486200      -285.3440
  16   1.0000     -10.481352      -285.2121
  17   1.0000     -10.480730      -285.1952
  18   1.0000     -10.477861      -285.1171
  19   1.0000     -10.477490      -285.1070
  20   1.0000     -10.475642      -285.0567
  21   1.0000     -10.474808      -285.0340
  22   1.0000     -10.472402      -284.9685
  23   1.0000     -10.470126      -284.9066
  24   1.0000     -10.470037      -284.9042
  25   1.0000     -10.469477      -284.8890
  26   1.0000     -10.469267      -284.8832
  27   1.0000     -10.468273      -284.8562
  28   1.0000     -10.467605      -284.8380
  29   1.0000     -10.467454      -284.8339
  30   1.0000     -10.466948      -284.8201
  31   1.0000     -10.465744      -284.7874
  32   1.0000     -10.465232      -284.7735
  33   1.0000     -10.465202      -284.7726
  34   1.0000     -10.464979      -284.7666
  35   1.0000     -10.452583      -284.4292
  36   1.0000     -10.452236      -284.4198
  37   1.0000     -10.445212      -284.2287
  38   1.0000     -10.445038      -284.2239
  39   1.0000     -10.444103      -284.1985
  40   1.0000     -10.443418      -284.1798
  41   1.0000     -10.443083      -284.1707
  42   1.0000     -10.440932      -284.1122
  43   1.0000     -10.438607      -284.0489
  44   1.0000     -10.437339      -284.0144
  45   1.0000     -10.431350      -283.8515
  46   1.0000     -10.427083      -283.7354
  47   1.0000      -1.092364       -29.7247
  48   1.0000      -1.034568       -28.1520
  49   1.0000      -1.019901       -27.7529
  50   1.0000      -1.007676       -27.4202
  51   1.0000      -0.992336       -27.0028
  52   1.0000      -0.983480       -26.7619
  53   1.0000      -0.969754       -26.3884
  54   1.0000      -0.960088       -26.1253
  55   1.0000      -0.958285       -26.0763
  56   1.0000      -0.934229       -25.4217
  57   1.0000      -0.926645       -25.2153
  58   1.0000      -0.911361       -24.7994
  59   1.0000      -0.896394       -24.3921
  60   1.0000      -0.888765       -24.1845
  61   1.0000      -0.874244       -23.7894
  62   1.0000      -0.859058       -23.3761
  63   1.0000      -0.857644       -23.3377
  64   1.0000      -0.849191       -23.1076
  65   1.0000      -0.842682       -22.9305
  66   1.0000      -0.834765       -22.7151
  67   1.0000      -0.826780       -22.4978
  68   1.0000      -0.819612       -22.3028
  69   1.0000      -0.808384       -21.9972
  70   1.0000      -0.793148       -21.5827
  71   1.0000      -0.773053       -21.0358
  72   1.0000      -0.770907       -20.9775
  73   1.0000      -0.743442       -20.2301
  74   1.0000      -0.729836       -19.8598
  75   1.0000      -0.722310       -19.6551
  76   1.0000      -0.715409       -19.4673
  77   1.0000      -0.709335       -19.3020
  78   1.0000      -0.702867       -19.1260
  79   1.0000      -0.690923       -18.8010
  80   1.0000      -0.682214       -18.5640
  81   1.0000      -0.676347       -18.4043
  82   1.0000      -0.673257       -18.3202
  83   1.0000      -0.672051       -18.2874
  84   1.0000      -0.661087       -17.9891
  85   1.0000      -0.638720       -17.3804
  86   1.0000      -0.619511       -16.8577
  87   1.0000      -0.613044       -16.6818
  88   1.0000      -0.612894       -16.6777
  89   1.0000      -0.611300       -16.6343
  90   1.0000      -0.593086       -16.1387
  91   1.0000      -0.583596       -15.8805
  92   1.0000      -0.581059       -15.8114
  93   1.0000      -0.568312       -15.4645
  94   1.0000      -0.564582       -15.3630
  95   1.0000      -0.562074       -15.2948
  96   1.0000      -0.540670       -14.7124
  97   1.0000      -0.540102       -14.6969
  98   1.0000      -0.534679       -14.5493
  99   1.0000      -0.534022       -14.5315
 100   1.0000      -0.531800       -14.4710
 101   1.0000      -0.527057       -14.3419
 102   1.0000      -0.523500       -14.2452
 103   1.0000      -0.521532       -14.1916
 104   1.0000      -0.517460       -14.0808
 105   1.0000      -0.510421       -13.8893
 106   1.0000      -0.510179       -13.8827
 107   1.0000      -0.504337       -13.7237
 108   1.0000      -0.503498       -13.7009
 109   1.0000      -0.500676       -13.6241
 110   1.0000      -0.496135       -13.5005
 111   1.0000      -0.492271       -13.3954
 112   1.0000      -0.490248       -13.3403
 113   1.0000      -0.488581       -13.2950
 114   1.0000      -0.483044       -13.1443
 115   1.0000      -0.476353       -12.9622
 116   1.0000      -0.473267       -12.8783
 117   1.0000      -0.460847       -12.5403
 118   1.0000      -0.455015       -12.3816
 119   1.0000      -0.448885       -12.2148
 120   1.0000      -0.445871       -12.1328
 121   1.0000      -0.444067       -12.0837
 122   1.0000      -0.439440       -11.9578
 123   1.0000      -0.438587       -11.9345
 124   1.0000      -0.435141       -11.8408
 125   1.0000      -0.432692       -11.7741
 126   1.0000      -0.429903       -11.6983
 127   1.0000      -0.428849       -11.6696
 128   1.0000      -0.428116       -11.6496
 129   1.0000      -0.424495       -11.5511
 130   1.0000      -0.421947       -11.4818
 131   1.0000      -0.420276       -11.4363
 132   1.0000      -0.416818       -11.3422
 133   1.0000      -0.416047       -11.3212
 134   1.0000      -0.414839       -11.2883
 135   1.0000      -0.409217       -11.1354
 136   1.0000      -0.408013       -11.1026
 137   1.0000      -0.403503       -10.9799
 138   1.0000      -0.399014       -10.8577
 139   1.0000      -0.397165       -10.8074
 140   1.0000      -0.390236       -10.6189
 141   1.0000      -0.385964       -10.5026
 142   1.0000      -0.379242       -10.3197
 143   1.0000      -0.374455       -10.1894
 144   1.0000      -0.369404       -10.0520
 145   1.0000      -0.363910        -9.9025
 146   1.0000      -0.350508        -9.5378
 147   1.0000      -0.329948        -8.9783
 148   1.0000      -0.321412        -8.7461
 149   1.0000      -0.310095        -8.4381
 150   1.0000      -0.305609        -8.3160
 151   1.0000      -0.300716        -8.1829
 152   1.0000      -0.292104        -7.9485
 153   1.0000      -0.287961        -7.8358
 154   1.0000      -0.281733        -7.6663
 155   1.0000      -0.273035        -7.4297
 156   1.0000      -0.231298        -6.2939
 157   0.0000      -0.165704        -4.5090
 158   0.0000      -0.044159        -1.2016
 159   0.0000      -0.037219        -1.0128
 160   0.0000      -0.015786        -0.4295
 161   0.0000      -0.013903        -0.3783

MULLIKEN ATOMIC CHARGES AND SPIN POPULATIONS
--------------------------------------------
   0 C :   -0.408653   -0.058552
   1 C :    0.153125    0.017583
   2 C :    0.045616    0.013847
   3 C :   -0.257331   -0.003649
   4 H :    0.230221    0.000230
   5 C :   -0.238795    0.004326
   6 H :    0.230950   -0.000173
   7 C :   -0.209938   -0.003417
   8 H :    0.230554    0.000183
   9 C :   -0.325020    0.003730
  10 H :    0.215847   -0.000186
  11 C :    0.163645   -0.007104
  12 C :   -0.278828    0.028389
  13 H :    0.217394   -0.001914
  14 C :   -0.219347   -0.022017
  15 H :    0.228346    0.001211
  16 C :   -0.214256    0.033670
  17 H :    0.230349   -0.001933
  18 C :   -0.318364   -0.018893
  19 H :    0.214674    0.001457
  20 C :    0.139935    0.026608
  21 C :    0.143765    0.487213
  22 C :   -0.297329   -0.291215
  23 H :    0.242878    0.015304
  24 C :    0.055419    0.646575
  25 C :   -0.000009   -0.229365
  26 N :   -0.162165    0.364103
  27 C :    0.118463    0.658127
  28 C :   -0.256181   -0.327671
  29 H :    0.276069    0.017416
  30 C :    0.062739    0.527878
  31 C :   -0.001112   -0.186938
  32 N :   -0.162221    0.282212
  33 H :    0.213268    0.000004
  34 H :    0.210465   -0.000003
  35 C :   -0.232545   -0.000034
  36 C :   -0.219139    0.000056
  37 C :   -0.298140    0.000033
  38 H :    0.262028   -0.000001
  39 C :   -0.323028   -0.000027
  40 H :    0.212892    0.000002
  41 C :    0.314537   -0.000016
  42 C :    0.157919    0.000046
  43 N :   -0.707416    0.000110
  44 C :    0.170256    0.000049
  45 C :    0.310985   -0.000015
  46 H :    0.212538    0.000002
  47 C :   -0.324693   -0.000030
  48 C :   -0.282551    0.000050
  49 C :   -0.217457    0.000040
  50 C :   -0.233942   -0.000029
  51 H :    0.239283    0.000006
  52 H :    0.212063   -0.000002
  53 H :    0.213858    0.000001
  54 C :   -0.230956   -0.000008
  55 C :   -0.664347    0.000001
  56 C :   -0.592950    0.000007
  57 C :    0.212289    0.001540
  58 C :   -0.229195   -0.001848
  59 C :   -0.302817    0.001716
  60 C :    0.073894   -0.003265
  61 C :    0.218269    0.016459
  62 C :   -0.284192   -0.002241
  63 H :    0.276928    0.000117
  64 H :    0.235083    0.000119
  65 H :    0.218579    0.000014
  66 C :   -0.538619    0.017743
  67 C :   -0.523694   -0.042392
  68 H :    0.255482    0.003087
  69 H :    0.255557   -0.001934
  70 H :    0.256141    0.030357
  71 H :    0.255481    0.003250
  72 H :    0.231645   -0.000001
  73 H :    0.219870    0.000000
  74 H :    0.220650   -0.000000
  75 H :    0.239536    0.000000
  76 H :    0.227922   -0.000000
  77 H :    0.227829   -0.000000
Sum of atomic charges         :   -0.0000000

LOEWDIN ATOMIC CHARGES AND SPIN POPULATIONS
-------------------------------------------
   0 C :   -0.034163   -0.005595
   1 C :   -0.006076    0.024123
   2 C :   -0.022311    0.011196
   3 C :   -0.124283   -0.002637
   4 H :    0.145233    0.000150
   5 C :   -0.130312    0.003255
   6 H :    0.141404   -0.000057
   7 C :   -0.124103   -0.002389
   8 H :    0.141407    0.000084
   9 C :   -0.117756    0.002648
  10 H :    0.141849   -0.000094
  11 C :   -0.030538   -0.003152
  12 C :   -0.121750    0.023567
  13 H :    0.139085   -0.000493
  14 C :   -0.124630   -0.014316
  15 H :    0.140929    0.000588
  16 C :   -0.121389    0.025795
  17 H :    0.141558   -0.000899
  18 C :   -0.119387   -0.011992
  19 H :    0.141225    0.000745
  20 C :   -0.029692    0.020438
  21 C :   -0.006965    0.400164
  22 C :   -0.112904   -0.159740
  23 H :    0.154721    0.007600
  24 C :   -0.046885    0.507081
  25 C :   -0.023975   -0.115124
  26 N :   -0.055202    0.322814
  27 C :    0.017324    0.520815
  28 C :   -0.087832   -0.184202
  29 H :    0.170690    0.008063
  30 C :   -0.056957    0.416815
  31 C :   -0.018306   -0.095047
  32 N :   -0.057706    0.249364
  33 H :    0.134506    0.000002
  34 H :    0.133300   -0.000002
  35 C :   -0.126804   -0.000022
  36 C :   -0.157567    0.000044
  37 C :   -0.163732    0.000020
  38 H :    0.149666   -0.000003
  39 C :   -0.127849   -0.000016
  40 H :    0.136290    0.000001
  41 C :    0.048195    0.000003
  42 C :   -0.044364    0.000034
  43 N :   -0.078296    0.000143
  44 C :   -0.043824    0.000035
  45 C :    0.047098    0.000005
  46 H :    0.136362    0.000001
  47 C :   -0.127322   -0.000019
  48 C :   -0.163021    0.000045
  49 C :   -0.156030    0.000031
  50 C :   -0.128769   -0.000018
  51 H :    0.146009    0.000003
  52 H :    0.133985   -0.000001
  53 H :    0.134448    0.000001
  54 C :   -0.071484   -0.000001
  55 C :   -0.340025    0.000001
  56 C :   -0.328171    0.000006
  57 C :    0.011082    0.000981
  58 C :   -0.115579   -0.001381
  59 C :   -0.131306    0.001502
  60 C :   -0.047817   -0.001281
  61 C :   -0.025744    0.011094
  62 C :   -0.103954   -0.001637
  63 H :    0.162623    0.000091
  64 H :    0.148859    0.000065
  65 H :    0.138418    0.000061
  66 C :   -0.218594    0.018111
  67 C :   -0.219873   -0.007275
  68 H :    0.141769    0.002175
  69 H :    0.144846   -0.000502
  70 H :    0.143561    0.025310
  71 H :    0.142472    0.002824
  72 H :    0.130739   -0.000000
  73 H :    0.128890    0.000000
  74 H :    0.129366   -0.000000
  75 H :    0.136076    0.000000
  76 H :    0.129707   -0.000000
  77 H :    0.129553   -0.000000

  Mayer bond orders larger than 0.1
B(  0-C ,  1-C ) :   0.9415 B(  0-C ,  2-C ) :   0.9752 B(  0-C , 27-C ) :   0.9822
B(  0-C , 61-C ) :   0.9387 B(  1-C , 12-C ) :   1.3869 B(  1-C , 20-C ) :   1.3369
B(  2-C ,  3-C ) :   1.4013 B(  2-C , 11-C ) :   1.3425 B(  3-C ,  4-H ) :   0.9197
B(  3-C ,  5-C ) :   1.4176 B(  5-C ,  6-H ) :   0.9156 B(  5-C ,  7-C ) :   1.4111
B(  7-C ,  8-H ) :   0.9166 B(  7-C ,  9-C ) :   1.4312 B(  9-C , 10-H ) :   0.9294
B(  9-C , 11-C ) :   1.3289 B( 11-C , 20-C ) :   1.0025 B( 12-C , 13-H ) :   0.9203
B( 12-C , 14-C ) :   1.4183 B( 14-C , 15-H ) :   0.9163 B( 14-C , 16-C ) :   1.4206
B( 16-C , 17-H ) :   0.9161 B( 16-C , 18-C ) :   1.4220 B( 18-C , 19-H ) :   0.9296
B( 18-C , 20-C ) :   1.3411 B( 21-C , 22-C ) :   1.5253 B( 21-C , 27-C ) :   0.9817
B( 21-C , 67-C ) :   0.9563 B( 22-C , 23-H ) :   0.9137 B( 22-C , 24-C ) :   1.2499
B( 24-C , 25-C ) :   1.1007 B( 24-C , 30-C ) :   0.9633 B( 25-C , 26-N ) :   2.9896
B( 27-C , 28-C ) :   1.3653 B( 28-C , 29-H ) :   0.8947 B( 28-C , 30-C ) :   1.3746
B( 30-C , 31-C ) :   1.0681 B( 31-C , 32-N ) :   3.0394 B( 33-H , 35-C ) :   0.9183
B( 34-H , 36-C ) :   0.9211 B( 35-C , 36-C ) :   1.4285 B( 35-C , 37-C ) :   1.4493
B( 36-C , 39-C ) :   1.4162 B( 37-C , 38-H ) :   0.8906 B( 37-C , 41-C ) :   1.3505
B( 39-C , 40-H ) :   0.9176 B( 39-C , 42-C ) :   1.4241 B( 41-C , 42-C ) :   1.3179
B( 41-C , 43-N ) :   0.9926 B( 42-C , 54-C ) :   0.9359 B( 43-N , 45-C ) :   0.9932
B( 43-N , 57-C ) :   0.9223 B( 44-C , 45-C ) :   1.3189 B( 44-C , 47-C ) :   1.4205
B( 44-C , 54-C ) :   0.9335 B( 45-C , 48-C ) :   1.3568 B( 46-H , 47-C ) :   0.9179
B( 47-C , 49-C ) :   1.4169 B( 48-C , 50-C ) :   1.4402 B( 48-C , 51-H ) :   0.9020
B( 49-C , 50-C ) :   1.4298 B( 49-C , 52-H ) :   0.9207 B( 50-C , 53-H ) :   0.9204
B( 54-C , 55-C ) :   1.0253 B( 54-C , 56-C ) :   0.9840 B( 55-C , 75-H ) :   0.9212
B( 55-C , 76-H ) :   0.9135 B( 55-C , 77-H ) :   0.9134 B( 56-C , 72-H ) :   0.9178
B( 56-C , 73-H ) :   0.9224 B( 56-C , 74-H ) :   0.9223 B( 57-C , 58-C ) :   1.4109
B( 57-C , 62-C ) :   1.4356 B( 58-C , 59-C ) :   1.4191 B( 58-C , 64-H ) :   0.9119
B( 59-C , 60-C ) :   1.3908 B( 59-C , 65-H ) :   0.9166 B( 60-C , 61-C ) :   1.3956
B( 60-C , 66-C ) :   0.9356 B( 61-C , 62-C ) :   1.3281 B( 62-C , 63-H ) :   0.8913
B( 66-C , 67-C ) :   0.9318 B( 66-C , 68-H ) :   0.9207 B( 66-C , 69-H ) :   0.9021
B( 67-C , 70-H ) :   0.8868 B( 67-C , 71-H ) :   0.9183

Dispersion correction           -0.078424879
FINAL SINGLE POINT ENERGY     -1855.425034788048

DIPOLE MOMENT
-------------
                                X             Y             Z
Electronic contribution:    -18.96883      38.42055      -6.61191
Nuclear contribution   :     19.70058     -41.42710       6.76748
                        -----------------------------------------
Total Dipole Moment    :      0.73176      -3.00654       0.15557
                        -----------------------------------------
Magnitude (a.u.)       :      3.09822
Magnitude (Debye)      :      7.87505

                             ****ORCA TERMINATED NORMALLY****
TOTAL RUN TIME: 0 days 3 hours 15 minutes 32 seconds 16 msec
