                         Program Version 4.0.1 -  RELEASE  -
|  1> %maxcore 1700
|  2> %pal nprocs 8 end
|  3> !PBEh-3c TIGHTOPT RIJCOSX
|  4>
|  5> %tddft
|  6> 	nroots	3
|  7> 	maxdim	30
|  8> 	iroot	1
|  9> end
| 10>
| 11> *xyz 0 1
| 12> C         0.1259330406   -4.5856407007    1.0666232976
| 13> C         0.0042700506   -4.4430353632    2.5853123735
| 14> C         1.5854549421   -4.1736596265    0.8712394581
| 15> C         2.2917826359   -4.1380065184   -0.3139290275
| 16> H         1.8175544917   -4.3980853921   -1.2526397491
| 17> C         3.6301865853   -3.7679806962   -0.2776947208
| 18> H         4.2013571834   -3.7302947589   -1.1958721989
| 19> C         4.2415515143   -3.4488987935    0.9300099326
| 20> H         5.2862599469   -3.1684483766    0.9418017932
| 21> C         3.5289743835   -3.4893774555    2.1194113027
| 22> H         4.0155700776   -3.2477721231    3.0554001202
| 23> C         2.1909662447   -3.8521846880    2.0835528102
| 24> C        -1.1046767133   -4.6826633207    3.3699493496
| 25> H        -2.0350022192   -5.0238586746    2.9329118344
| 26> C        -1.0085439523   -4.4777285629    4.7398934136
| 27> H        -1.8670717723   -4.6613228642    5.3719033196
| 28> C         0.1831588990   -4.0391147503    5.3053972217
| 29> H         0.2419061104   -3.8843245150    6.3743221968
| 30> C         1.2973213359   -3.7996709298    4.5147489287
| 31> H         2.2225509948   -3.4611180066    4.9629447745
| 32> C         1.2017454528   -4.0029771858    3.1471645391
| 33> C        -2.1162244323   -3.7716021406    0.0064241153
| 34> C        -2.9067215009   -2.7016639022   -0.4007682177
| 35> H        -3.9107378075   -2.8960224640   -0.7550073323
| 36> C        -2.4516072589   -1.3953468799   -0.3790529077
| 37> C        -3.3057151604   -0.3402336095   -0.8139675622
| 38> N        -4.0175422979    0.4903722477   -1.1716617515
| 39> C        -0.8121876488   -3.5356785700    0.4566299005
| 40> C        -0.3600504550   -2.2162182067    0.4709948028
| 41> H         0.6400473034   -1.9937152962    0.8130460102
| 42> C        -1.1493619097   -1.1535076527    0.0626404758
| 43> C        -0.6212140124    0.1704374324    0.0956618228
| 44> N        -0.1839688482    1.2344759592    0.1248001860
| 45> H         5.6585794489   -6.2629635507    0.2282109434
| 46> H         7.3522424556   -7.8003251968    1.2081941998
| 47> C         5.3551095127   -7.1768010360    0.7221651881
| 48> C         6.2972003589   -8.0316990766    1.2660241943
| 49> C         4.0058130303   -7.4679938766    0.8193169910
| 50> H         3.2928481777   -6.7730182842    0.3995660474
| 51> C         5.8743709085   -9.2063501358    1.8692017256
| 52> H         6.6192382993   -9.8839079118    2.2629713620
| 53> C         3.5837623954   -8.6315055146    1.4608270893
| 54> C         4.5302602539   -9.5410500360    1.9521786941
| 55> N         2.2262839709   -8.9328679807    1.6358187693
| 56> C         2.7551345767  -10.6683765003    3.2150967108
| 57> C         1.8407268205   -9.7355689591    2.7129162094
| 58> H         3.0893214195  -12.1296353954    4.7427683933
| 59> C         2.3932653626  -11.4135446904    4.3281364628
| 60> C         0.5756919222   -9.6155009909    3.2864154734
| 61> C         1.1425168011  -11.2869575469    4.9135771785
| 62> C         0.2302783761  -10.3959996698    4.3759339661
| 63> H        -0.1392344735   -8.9068864660    2.8918918306
| 64> H         0.8825620340  -11.8896409172    5.7733079585
| 65> H        -0.7551495669  -10.2921264179    4.8110190746
| 66> C         4.0327011018  -10.8926743604    2.4320444594
| 67> C         5.0806186676  -11.6489345193    3.2412403098
| 68> C         3.6829814061  -11.7441296591    1.1924053189
| 69> C         1.2373184061   -8.1779060967    0.9600833316
| 70> C         0.5232951342   -8.7469492730   -0.0834753805
| 71> C        -0.4402690186   -7.9902377577   -0.7134082454
| 72> C        -0.6892224098   -6.6559555835   -0.3769866267
| 73> C         0.0594605082   -6.0672731261    0.6440311619
| 74> C         0.9750007401   -6.8743854386    1.3244019515
| 75> H         1.5405370752   -6.4678495454    2.1524140667
| 76> H         0.7117665104   -9.7706885717   -0.3789908833
| 77> H        -1.0284081051   -8.4407387958   -1.5038823072
| 78> C        -1.8166428242   -5.9767694184   -1.0999995025
| 79> C        -2.6864834312   -5.1468920033   -0.1610290282
| 80> H        -2.4304083557   -6.7459481258   -1.5718684105
| 81> H        -1.4528265221   -5.3452256949   -1.9160616376
| 82> H        -2.7891731483   -5.6653547971    0.7958175961
| 83> H        -3.6946247462   -5.0622119618   -0.5688497709
| 84> H         2.9354737445  -11.2595017592    0.5652631398
| 85> H         3.2838587832  -12.7125856367    1.4992041288
| 86> H         4.5716699564  -11.9136937794    0.5820210352
| 87> H         5.3650581554  -11.1119051506    4.1467600354
| 88> H         5.9786656018  -11.8256193215    2.6498963293
| 89> H         4.7123354823  -12.6336330850    3.5289799549
| 90> *
| 91>
| 92>
| 93>
| 94>                          ****END OF INPUT****
 Total Charge           Charge          ....    0
 Multiplicity           Mult            ....    1
 Number of Electrons    NEL             ....  316
Dispersion correction           -0.078674377
FINAL SINGLE POINT ENERGY     -1855.532760244083
Dispersion correction                    ... done
Dispersion correction           -0.079224445
FINAL SINGLE POINT ENERGY     -1855.527457688163
Dispersion correction                    ... done
Dispersion correction           -0.078677832
FINAL SINGLE POINT ENERGY     -1855.521589328840
Dispersion correction                    ... done
FINAL SINGLE POINT ENERGY     -1855.518101182180
FINAL SINGLE POINT ENERGY     -1855.518948273951
FINAL SINGLE POINT ENERGY     -1855.519228159412
FINAL SINGLE POINT ENERGY     -1855.518956127557
FINAL SINGLE POINT ENERGY     -1855.518789583035
FINAL SINGLE POINT ENERGY     -1855.518652868625
FINAL SINGLE POINT ENERGY     -1855.518661303734
FINAL SINGLE POINT ENERGY     -1855.518710914914
FINAL SINGLE POINT ENERGY     -1855.518744779452
FINAL SINGLE POINT ENERGY     -1855.518727834229
Dispersion correction                    ... done
Dispersion correction           -0.078865763
FINAL SINGLE POINT ENERGY     -1855.518696163400
Dispersion correction                    ... done
Dispersion correction           -0.078864690
FINAL SINGLE POINT ENERGY     -1855.518674341169
Dispersion correction                    ... done
                    ***********************HURRAY********************

CARTESIAN COORDINATES (ANGSTROEM)
---------------------------------
  C      0.162248   -4.536790    1.058439
  C      0.056400   -4.407354    2.573817
  C      1.628696   -4.175493    0.854451
  C      2.326008   -4.124137   -0.335147
  H      1.820106   -4.318749   -1.271635
  C      3.667774   -3.767025   -0.309792
  H      4.219114   -3.685781   -1.236823
  C      4.297029   -3.475517    0.895303
  H      5.336906   -3.178365    0.898034
  C      3.596929   -3.533237    2.090212
  H      4.087322   -3.288596    3.022984
  C      2.255238   -3.882841    2.064101
  C     -1.056667   -4.579263    3.372541
  H     -2.009720   -4.848398    2.938707
  C     -0.942018   -4.358418    4.737718
  H     -1.810166   -4.474003    5.371894
  C      0.268808   -3.970511    5.297992
  H      0.334346   -3.791703    6.362087
  C      1.386671   -3.791008    4.498001
  H      2.324836   -3.470915    4.931982
  C      1.272626   -4.010115    3.135456
  C     -2.150800   -3.725083    0.175115
  C     -2.953722   -2.662024   -0.129160
  H     -4.002734   -2.842634   -0.327842
  C     -2.489633   -1.339309   -0.241979
  C     -3.385422   -0.310580   -0.550165
  N     -4.151071    0.523391   -0.811682
  C     -0.745476   -3.510985    0.395408
  C     -0.273239   -2.221124    0.265684
  H      0.771934   -2.012934    0.443202
  C     -1.074497   -1.130325   -0.065095
  C     -0.469638    0.130712   -0.208213
  N      0.053893    1.159179   -0.318842
  H      5.478939   -6.314471   -0.015795
  H      7.230030   -7.755145    1.009549
  C      5.210498   -7.202749    0.534564
  C      6.185151   -8.007846    1.112184
  C      3.886594   -7.525479    0.675533
  H      3.135389   -6.892230    0.233408
  C      5.821780   -9.148714    1.813353
  H      6.600812   -9.771362    2.223925
  C      3.514628   -8.653713    1.431544
  C      4.498829   -9.501862    1.988056
  N      2.187208   -8.919638    1.651310
  C      2.689939  -10.766436    3.117794
  C      1.768291   -9.856176    2.562652
  H      2.891705  -12.381621    4.496654
  C      2.217447  -11.665139    4.054807
  C      0.420044   -9.864218    2.963892
  C      0.888566  -11.674710    4.449616
  C     -0.010504  -10.768042    3.899914
  H     -0.260132   -9.138088    2.549983
  H      0.557381  -12.386013    5.191531
  H     -1.042576  -10.761126    4.215542
  C      4.104511  -10.818618    2.605655
  C      5.080208  -11.252850    3.691985
  C      4.127877  -11.860825    1.467336
  C      1.189479   -8.143655    0.970848
  C      0.444692   -8.730526   -0.036123
  C     -0.522711   -7.957613   -0.637023
  C     -0.738276   -6.616838   -0.301097
  C      0.073350   -6.021978    0.667623
  C      0.994885   -6.833989    1.328362
  H      1.593604   -6.412744    2.124524
  H      0.605364   -9.760462   -0.322008
  H     -1.148149   -8.400529   -1.400068
  C     -1.893344   -5.919211   -0.946980
  C     -2.700533   -5.106724    0.060533
  H     -2.519484   -6.675779   -1.422170
  H     -1.545993   -5.251784   -1.737857
  H     -2.710091   -5.646743    1.014936
  H     -3.738573   -5.047825   -0.266711
  H      3.443790  -11.585365    0.664939
  H      3.832058  -12.836473    1.852404
  H      5.132691  -11.931959    1.051790
  H      5.093899  -10.545227    4.519475
  H      6.087733  -11.346088    3.294225
  H      4.820376  -12.236129    4.076376

 Multiplicity           Mult            ....    1
 Number of Electrons    NEL             ....  316
 Basis Dimension        Dim             ....  767

ORBITAL ENERGIES
----------------

  NO   OCC          E(Eh)            E(eV)
   0   2.0000     -14.680266      -399.4704
   1   2.0000     -14.663124      -399.0039
   2   2.0000     -14.659450      -398.9039
   3   2.0000     -10.529599      -286.5249
   4   2.0000     -10.527247      -286.4609
   5   2.0000     -10.512367      -286.0560
   6   2.0000     -10.510241      -285.9982
   7   2.0000     -10.504837      -285.8511
   8   2.0000     -10.504120      -285.8316
   9   2.0000     -10.501614      -285.7634
  10   2.0000     -10.498774      -285.6862
  11   2.0000     -10.495792      -285.6050
  12   2.0000     -10.492354      -285.5115
  13   2.0000     -10.491314      -285.4832
  14   2.0000     -10.491208      -285.4803
  15   2.0000     -10.487132      -285.3694
  16   2.0000     -10.479618      -285.1649
  17   2.0000     -10.478353      -285.1305
  18   2.0000     -10.476721      -285.0861
  19   2.0000     -10.475960      -285.0654
  20   2.0000     -10.474359      -285.0218
  21   2.0000     -10.473993      -285.0118
  22   2.0000     -10.469318      -284.8846
  23   2.0000     -10.468345      -284.8581
  24   2.0000     -10.467872      -284.8453
  25   2.0000     -10.467855      -284.8448
  26   2.0000     -10.466882      -284.8183
  27   2.0000     -10.466748      -284.8147
  28   2.0000     -10.466210      -284.8001
  29   2.0000     -10.465846      -284.7901
  30   2.0000     -10.465078      -284.7693
  31   2.0000     -10.464977      -284.7665
  32   2.0000     -10.464397      -284.7507
  33   2.0000     -10.463846      -284.7357
  34   2.0000     -10.462062      -284.6872
  35   2.0000     -10.449711      -284.3511
  36   2.0000     -10.448871      -284.3282
  37   2.0000     -10.442383      -284.1517
  38   2.0000     -10.442202      -284.1468
  39   2.0000     -10.440735      -284.1068
  40   2.0000     -10.439623      -284.0766
  41   2.0000     -10.439105      -284.0625
  42   2.0000     -10.435935      -283.9762
  43   2.0000     -10.435060      -283.9524
  44   2.0000     -10.433186      -283.9014
  45   2.0000     -10.428227      -283.7665
  46   2.0000     -10.425347      -283.6881
  47   2.0000      -1.098784       -29.8994
  48   2.0000      -1.041625       -28.3441
  49   2.0000      -1.030376       -28.0380
  50   2.0000      -1.019471       -27.7412
  51   2.0000      -1.002281       -27.2735
  52   2.0000      -0.988750       -26.9053
  53   2.0000      -0.969695       -26.3867
  54   2.0000      -0.960997       -26.1501
  55   2.0000      -0.956628       -26.0312
  56   2.0000      -0.939243       -25.5581
  57   2.0000      -0.936359       -25.4796
  58   2.0000      -0.910136       -24.7661
  59   2.0000      -0.901639       -24.5348
  60   2.0000      -0.892661       -24.2905
  61   2.0000      -0.885595       -24.0983
  62   2.0000      -0.860292       -23.4097
  63   2.0000      -0.857632       -23.3374
  64   2.0000      -0.849531       -23.1169
  65   2.0000      -0.847217       -23.0539
  66   2.0000      -0.835573       -22.7371
  67   2.0000      -0.826213       -22.4824
  68   2.0000      -0.818061       -22.2606
  69   2.0000      -0.808985       -22.0136
  70   2.0000      -0.795581       -21.6489
  71   2.0000      -0.777190       -21.1484
  72   2.0000      -0.771169       -20.9846
  73   2.0000      -0.747997       -20.3540
  74   2.0000      -0.732105       -19.9216
  75   2.0000      -0.727728       -19.8025
  76   2.0000      -0.714196       -19.4343
  77   2.0000      -0.713662       -19.4197
  78   2.0000      -0.706403       -19.2222
  79   2.0000      -0.691005       -18.8032
  80   2.0000      -0.683132       -18.5890
  81   2.0000      -0.679489       -18.4898
  82   2.0000      -0.673231       -18.3195
  83   2.0000      -0.668740       -18.1974
  84   2.0000      -0.666015       -18.1232
  85   2.0000      -0.646624       -17.5955
  86   2.0000      -0.616750       -16.7826
  87   2.0000      -0.616116       -16.7654
  88   2.0000      -0.615370       -16.7451
  89   2.0000      -0.611875       -16.6500
  90   2.0000      -0.600004       -16.3269
  91   2.0000      -0.587664       -15.9911
  92   2.0000      -0.582841       -15.8599
  93   2.0000      -0.572424       -15.5765
  94   2.0000      -0.566581       -15.4175
  95   2.0000      -0.562331       -15.3018
  96   2.0000      -0.541088       -14.7238
  97   2.0000      -0.539131       -14.6705
  98   2.0000      -0.536316       -14.5939
  99   2.0000      -0.533091       -14.5061
 100   2.0000      -0.531535       -14.4638
 101   2.0000      -0.527273       -14.3478
 102   2.0000      -0.523701       -14.2506
 103   2.0000      -0.522044       -14.2055
 104   2.0000      -0.518315       -14.1041
 105   2.0000      -0.511889       -13.9292
 106   2.0000      -0.509768       -13.8715
 107   2.0000      -0.505683       -13.7603
 108   2.0000      -0.503149       -13.6914
 109   2.0000      -0.500358       -13.6154
 110   2.0000      -0.496907       -13.5215
 111   2.0000      -0.492806       -13.4099
 112   2.0000      -0.489442       -13.3184
 113   2.0000      -0.487656       -13.2698
 114   2.0000      -0.486320       -13.2335
 115   2.0000      -0.483494       -13.1565
 116   2.0000      -0.474611       -12.9148
 117   2.0000      -0.468416       -12.7462
 118   2.0000      -0.461519       -12.5586
 119   2.0000      -0.453342       -12.3361
 120   2.0000      -0.449441       -12.2299
 121   2.0000      -0.447347       -12.1729
 122   2.0000      -0.442162       -12.0318
 123   2.0000      -0.441928       -12.0255
 124   2.0000      -0.439042       -11.9469
 125   2.0000      -0.438208       -11.9243
 126   2.0000      -0.436006       -11.8643
 127   2.0000      -0.433369       -11.7926
 128   2.0000      -0.429862       -11.6971
 129   2.0000      -0.428212       -11.6523
 130   2.0000      -0.427032       -11.6201
 131   2.0000      -0.421976       -11.4826
 132   2.0000      -0.421039       -11.4570
 133   2.0000      -0.418587       -11.3903
 134   2.0000      -0.414940       -11.2911
 135   2.0000      -0.412011       -11.2114
 136   2.0000      -0.410766       -11.1775
 137   2.0000      -0.402354       -10.9486
 138   2.0000      -0.399193       -10.8626
 139   2.0000      -0.398515       -10.8441
 140   2.0000      -0.397775       -10.8240
 141   2.0000      -0.395188       -10.7536
 142   2.0000      -0.393042       -10.6952
 143   2.0000      -0.374210       -10.1828
 144   2.0000      -0.373617       -10.1666
 145   2.0000      -0.366518        -9.9735
 146   2.0000      -0.350018        -9.5245
 147   2.0000      -0.337211        -9.1760
 148   2.0000      -0.325488        -8.8570
 149   2.0000      -0.312954        -8.5159
 150   2.0000      -0.306028        -8.3274
 151   2.0000      -0.303010        -8.2453
 152   2.0000      -0.299613        -8.1529
 153   2.0000      -0.289774        -7.8852
 154   2.0000      -0.285372        -7.7654
 155   2.0000      -0.283650        -7.7185
 156   2.0000      -0.271009        -7.3745
 157   2.0000      -0.218144        -5.9360
 158   0.0000      -0.078783        -2.1438
 159   0.0000      -0.040662        -1.1065
 160   0.0000      -0.028199        -0.7673
 161   0.0000      -0.015861        -0.4316
 162   0.0000      -0.011013        -0.2997

MULLIKEN ATOMIC CHARGES
-----------------------
   0 C :   -0.422396
   1 C :    0.175047
   2 C :    0.030591
   3 C :   -0.257098
   4 H :    0.227953
   5 C :   -0.238817
   6 H :    0.231249
   7 C :   -0.209530
   8 H :    0.230746
   9 C :   -0.323236
  10 H :    0.214059
  11 C :    0.161022
  12 C :   -0.281725
  13 H :    0.214446
  14 C :   -0.220357
  15 H :    0.227220
  16 C :   -0.215031
  17 H :    0.229810
  18 C :   -0.320551
  19 H :    0.214186
  20 C :    0.130961
  21 C :    0.143081
  22 C :   -0.316430
  23 H :    0.245598
  24 C :    0.074965
  25 C :   -0.006640
  26 N :   -0.158773
  27 C :    0.157839
  28 C :   -0.286330
  29 H :    0.281633
  30 C :    0.082443
  31 C :   -0.007329
  32 N :   -0.158643
  33 H :    0.211712
  34 H :    0.206463
  35 C :   -0.224775
  36 C :   -0.231130
  37 C :   -0.309773
  38 H :    0.266676
  39 C :   -0.305002
  40 H :    0.206461
  41 C :    0.316513
  42 C :    0.147387
  43 N :   -0.698428
  44 C :    0.158833
  45 C :    0.312249
  46 H :    0.207111
  47 C :   -0.307400
  48 C :   -0.294663
  49 C :   -0.228218
  50 C :   -0.230739
  51 H :    0.246767
  52 H :    0.209108
  53 H :    0.212983
  54 C :   -0.235153
  55 C :   -0.638613
  56 C :   -0.582362
  57 C :    0.171474
  58 C :   -0.212012
  59 C :   -0.305478
  60 C :    0.059981
  61 C :    0.238327
  62 C :   -0.266018
  63 H :    0.286354
  64 H :    0.240777
  65 H :    0.218019
  66 C :   -0.518603
  67 C :   -0.544316
  68 H :    0.249380
  69 H :    0.253450
  70 H :    0.257899
  71 H :    0.252968
  72 H :    0.227032
  73 H :    0.218023
  74 H :    0.219454
  75 H :    0.241724
  76 H :    0.222915
  77 H :    0.222685
Sum of atomic charges:   -0.0000000

LOEWDIN ATOMIC CHARGES
----------------------
   0 C :   -0.030893
   1 C :   -0.008702
   2 C :   -0.025612
   3 C :   -0.123832
   4 H :    0.144219
   5 C :   -0.130152
   6 H :    0.141386
   7 C :   -0.123082
   8 H :    0.141467
   9 C :   -0.116751
  10 H :    0.141506
  11 C :   -0.034683
  12 C :   -0.119266
  13 H :    0.137339
  14 C :   -0.124771
  15 H :    0.140328
  16 C :   -0.122392
  17 H :    0.141258
  18 C :   -0.120262
  19 H :    0.141148
  20 C :   -0.033112
  21 C :   -0.020414
  22 C :   -0.094758
  23 H :    0.154892
  24 C :   -0.058539
  25 C :   -0.005797
  26 N :   -0.055050
  27 C :    0.003290
  28 C :   -0.077439
  29 H :    0.171576
  30 C :   -0.060353
  31 C :   -0.005298
  32 N :   -0.056057
  33 H :    0.134314
  34 H :    0.131170
  35 C :   -0.125315
  36 C :   -0.162625
  37 C :   -0.168471
  38 H :    0.151317
  39 C :   -0.124692
  40 H :    0.134112
  41 C :    0.047041
  42 C :   -0.051491
  43 N :   -0.062077
  44 C :   -0.049971
  45 C :    0.044752
  46 H :    0.134514
  47 C :   -0.123838
  48 C :   -0.167647
  49 C :   -0.160268
  50 C :   -0.128449
  51 H :    0.147998
  52 H :    0.132322
  53 H :    0.134586
  54 C :   -0.076361
  55 C :   -0.332485
  56 C :   -0.325348
  57 C :    0.015038
  58 C :   -0.118059
  59 C :   -0.129633
  60 C :   -0.050706
  61 C :   -0.018546
  62 C :   -0.103579
  63 H :    0.165274
  64 H :    0.151945
  65 H :    0.137517
  66 C :   -0.217021
  67 C :   -0.220125
  68 H :    0.139879
  69 H :    0.144141
  70 H :    0.142608
  71 H :    0.139690
  72 H :    0.131522
  73 H :    0.127045
  74 H :    0.127913
  75 H :    0.138761
  76 H :    0.126103
  77 H :    0.125949

  Mayer bond orders larger than 0.1
B(  0-C ,  1-C ) :   0.9460 B(  0-C ,  2-C ) :   0.9777 B(  0-C , 27-C ) :   0.9829
B(  0-C , 61-C ) :   0.9228 B(  1-C , 12-C ) :   1.3966 B(  1-C , 20-C ) :   1.3492
B(  2-C ,  3-C ) :   1.4038 B(  2-C , 11-C ) :   1.3440 B(  3-C ,  4-H ) :   0.9208
B(  3-C ,  5-C ) :   1.4190 B(  5-C ,  6-H ) :   0.9153 B(  5-C ,  7-C ) :   1.4110
B(  7-C ,  8-H ) :   0.9163 B(  7-C ,  9-C ) :   1.4305 B(  9-C , 10-H ) :   0.9305
B(  9-C , 11-C ) :   1.3322 B( 11-C , 20-C ) :   1.0036 B( 12-C , 13-H ) :   0.9197
B( 12-C , 14-C ) :   1.4183 B( 14-C , 15-H ) :   0.9170 B( 14-C , 16-C ) :   1.4185
B( 16-C , 17-H ) :   0.9163 B( 16-C , 18-C ) :   1.4277 B( 18-C , 19-H ) :   0.9301
B( 18-C , 20-C ) :   1.3400 B( 21-C , 22-C ) :   1.4258 B( 21-C , 27-C ) :   1.3211
B( 21-C , 67-C ) :   0.9437 B( 22-C , 23-H ) :   0.9117 B( 22-C , 24-C ) :   1.3437
B( 24-C , 25-C ) :   0.9989 B( 24-C , 30-C ) :   1.3150 B( 25-C , 26-N ) :   3.1144
B( 27-C , 28-C ) :   1.4067 B( 28-C , 29-H ) :   0.8942 B( 28-C , 30-C ) :   1.3411
B( 30-C , 31-C ) :   1.0000 B( 31-C , 32-N ) :   3.1215 B( 33-H , 35-C ) :   0.9173
B( 34-H , 36-C ) :   0.9221 B( 35-C , 36-C ) :   1.4184 B( 35-C , 37-C ) :   1.4662
B( 36-C , 39-C ) :   1.4287 B( 37-C , 38-H ) :   0.8860 B( 37-C , 41-C ) :   1.3265
B( 39-C , 40-H ) :   0.9189 B( 39-C , 42-C ) :   1.4003 B( 41-C , 42-C ) :   1.3146
B( 41-C , 43-N ) :   1.0244 B( 42-C , 54-C ) :   0.9443 B( 43-N , 45-C ) :   1.0197
B( 43-N , 57-C ) :   0.9108 B( 44-C , 45-C ) :   1.3211 B( 44-C , 47-C ) :   1.3949
B( 44-C , 54-C ) :   0.9400 B( 45-C , 48-C ) :   1.3309 B( 46-H , 47-C ) :   0.9195
B( 47-C , 49-C ) :   1.4304 B( 48-C , 50-C ) :   1.4555 B( 48-C , 51-H ) :   0.8977
B( 49-C , 50-C ) :   1.4184 B( 49-C , 52-H ) :   0.9214 B( 50-C , 53-H ) :   0.9212
B( 54-C , 55-C ) :   1.0209 B( 54-C , 56-C ) :   0.9841 B( 55-C , 75-H ) :   0.9231
B( 55-C , 76-H ) :   0.9115 B( 55-C , 77-H ) :   0.9117 B( 56-C , 72-H ) :   0.9257
B( 56-C , 73-H ) :   0.9219 B( 56-C , 74-H ) :   0.9217 B( 57-C , 58-C ) :   1.3966
B( 57-C , 62-C ) :   1.4636 B( 58-C , 59-C ) :   1.4317 B( 58-C , 64-H ) :   0.9098
B( 59-C , 60-C ) :   1.3824 B( 59-C , 65-H ) :   0.9161 B( 60-C , 61-C ) :   1.4077
B( 60-C , 66-C ) :   0.9432 B( 61-C , 62-C ) :   1.3119 B( 62-C , 63-H ) :   0.8838
B( 66-C , 67-C ) :   0.9383 B( 66-C , 68-H ) :   0.9211 B( 66-C , 69-H ) :   0.9025
B( 67-C , 70-H ) :   0.8925 B( 67-C , 71-H ) :   0.9184

-----------------------------------------------------------------------------
         ABSORPTION SPECTRUM VIA TRANSITION ELECTRIC DIPOLE MOMENTS
-----------------------------------------------------------------------------
State   Energy  Wavelength   fosc         T2         TX        TY        TZ
        (cm-1)    (nm)                  (au**2)     (au)      (au)      (au)
-----------------------------------------------------------------------------
   1   25089.0    398.6   0.001816135   0.02383   0.07087  -0.13462   0.02618
   2   31534.6    317.1   0.000624297   0.00652  -0.01268  -0.07967  -0.00314
   3   32399.4    308.6   0.024467767   0.24862   0.35221  -0.23449   0.26378

Dispersion correction           -0.078864707
FINAL SINGLE POINT ENERGY     -1855.518668306726

DIPOLE MOMENT
-------------
                                X             Y             Z
Electronic contribution:    -12.52494      27.30803      -5.77018
Nuclear contribution   :     19.28701     -41.23955       9.16783
                        -----------------------------------------
Total Dipole Moment    :      6.76207     -13.93152       3.39766
                        -----------------------------------------
Magnitude (a.u.)       :     15.85424
Magnitude (Debye)      :     40.29828

                             ****ORCA TERMINATED NORMALLY****
TOTAL RUN TIME: 0 days 17 hours 44 minutes 17 seconds 608 msec
