                         Program Version 4.0.1 -  RELEASE  -
|  1> %maxcore 1700
|  2> %pal nprocs 8 end
|  3> !PBEh-3c TIGHTOPT RIJCOSX
|  4>
|  5> *xyz 0 1
|  6> C         0.1259330406   -4.5856407007    1.0666232976
|  7> C         0.0042700506   -4.4430353632    2.5853123735
|  8> C         1.5854549421   -4.1736596265    0.8712394581
|  9> C         2.2917826359   -4.1380065184   -0.3139290275
| 10> H         1.8175544917   -4.3980853921   -1.2526397491
| 11> C         3.6301865853   -3.7679806962   -0.2776947208
| 12> H         4.2013571834   -3.7302947589   -1.1958721989
| 13> C         4.2415515143   -3.4488987935    0.9300099326
| 14> H         5.2862599469   -3.1684483766    0.9418017932
| 15> C         3.5289743835   -3.4893774555    2.1194113027
| 16> H         4.0155700776   -3.2477721231    3.0554001202
| 17> C         2.1909662447   -3.8521846880    2.0835528102
| 18> C        -1.1046767133   -4.6826633207    3.3699493496
| 19> H        -2.0350022192   -5.0238586746    2.9329118344
| 20> C        -1.0085439523   -4.4777285629    4.7398934136
| 21> H        -1.8670717723   -4.6613228642    5.3719033196
| 22> C         0.1831588990   -4.0391147503    5.3053972217
| 23> H         0.2419061104   -3.8843245150    6.3743221968
| 24> C         1.2973213359   -3.7996709298    4.5147489287
| 25> H         2.2225509948   -3.4611180066    4.9629447745
| 26> C         1.2017454528   -4.0029771858    3.1471645391
| 27> C        -2.1162244323   -3.7716021406    0.0064241153
| 28> C        -2.9067215009   -2.7016639022   -0.4007682177
| 29> H        -3.9107378075   -2.8960224640   -0.7550073323
| 30> C        -2.4516072589   -1.3953468799   -0.3790529077
| 31> C        -3.3057151604   -0.3402336095   -0.8139675622
| 32> N        -4.0175422979    0.4903722477   -1.1716617515
| 33> C        -0.8121876488   -3.5356785700    0.4566299005
| 34> C        -0.3600504550   -2.2162182067    0.4709948028
| 35> H         0.6400473034   -1.9937152962    0.8130460102
| 36> C        -1.1493619097   -1.1535076527    0.0626404758
| 37> C        -0.6212140124    0.1704374324    0.0956618228
| 38> N        -0.1839688482    1.2344759592    0.1248001860
| 39> H         5.6585794489   -6.2629635507    0.2282109434
| 40> H         7.3522424556   -7.8003251968    1.2081941998
| 41> C         5.3551095127   -7.1768010360    0.7221651881
| 42> C         6.2972003589   -8.0316990766    1.2660241943
| 43> C         4.0058130303   -7.4679938766    0.8193169910
| 44> H         3.2928481777   -6.7730182842    0.3995660474
| 45> C         5.8743709085   -9.2063501358    1.8692017256
| 46> H         6.6192382993   -9.8839079118    2.2629713620
| 47> C         3.5837623954   -8.6315055146    1.4608270893
| 48> C         4.5302602539   -9.5410500360    1.9521786941
| 49> N         2.2262839709   -8.9328679807    1.6358187693
| 50> C         2.7551345767  -10.6683765003    3.2150967108
| 51> C         1.8407268205   -9.7355689591    2.7129162094
| 52> H         3.0893214195  -12.1296353954    4.7427683933
| 53> C         2.3932653626  -11.4135446904    4.3281364628
| 54> C         0.5756919222   -9.6155009909    3.2864154734
| 55> C         1.1425168011  -11.2869575469    4.9135771785
| 56> C         0.2302783761  -10.3959996698    4.3759339661
| 57> H        -0.1392344735   -8.9068864660    2.8918918306
| 58> H         0.8825620340  -11.8896409172    5.7733079585
| 59> H        -0.7551495669  -10.2921264179    4.8110190746
| 60> C         4.0327011018  -10.8926743604    2.4320444594
| 61> C         5.0806186676  -11.6489345193    3.2412403098
| 62> C         3.6829814061  -11.7441296591    1.1924053189
| 63> C         1.2373184061   -8.1779060967    0.9600833316
| 64> C         0.5232951342   -8.7469492730   -0.0834753805
| 65> C        -0.4402690186   -7.9902377577   -0.7134082454
| 66> C        -0.6892224098   -6.6559555835   -0.3769866267
| 67> C         0.0594605082   -6.0672731261    0.6440311619
| 68> C         0.9750007401   -6.8743854386    1.3244019515
| 69> H         1.5405370752   -6.4678495454    2.1524140667
| 70> H         0.7117665104   -9.7706885717   -0.3789908833
| 71> H        -1.0284081051   -8.4407387958   -1.5038823072
| 72> C        -1.8166428242   -5.9767694184   -1.0999995025
| 73> C        -2.6864834312   -5.1468920033   -0.1610290282
| 74> H        -2.4304083557   -6.7459481258   -1.5718684105
| 75> H        -1.4528265221   -5.3452256949   -1.9160616376
| 76> H        -2.7891731483   -5.6653547971    0.7958175961
| 77> H        -3.6946247462   -5.0622119618   -0.5688497709
| 78> H         2.9354737445  -11.2595017592    0.5652631398
| 79> H         3.2838587832  -12.7125856367    1.4992041288
| 80> H         4.5716699564  -11.9136937794    0.5820210352
| 81> H         5.3650581554  -11.1119051506    4.1467600354
| 82> H         5.9786656018  -11.8256193215    2.6498963293
| 83> H         4.7123354823  -12.6336330850    3.5289799549
| 84> *
| 85>
| 86>
| 87>
| 88>                          ****END OF INPUT****
 Total Charge           Charge          ....    0
 Multiplicity           Mult            ....    1
 Number of Electrons    NEL             ....  316
Dispersion correction           -0.078674377
FINAL SINGLE POINT ENERGY     -1855.532760244132
Dispersion correction            ... done
Dispersion correction           -0.078302124
FINAL SINGLE POINT ENERGY     -1855.533137429336
Dispersion correction            ... done
Dispersion correction           -0.078583188
FINAL SINGLE POINT ENERGY     -1855.533335713271
Dispersion correction            ... done
FINAL SINGLE POINT ENERGY     -1855.533413796639
FINAL SINGLE POINT ENERGY     -1855.533439667927
FINAL SINGLE POINT ENERGY     -1855.533451861323
FINAL SINGLE POINT ENERGY     -1855.533456710493
Dispersion correction            ... done
Dispersion correction           -0.078568386
FINAL SINGLE POINT ENERGY     -1855.533458539012
Dispersion correction            ... done
Dispersion correction           -0.078567057
FINAL SINGLE POINT ENERGY     -1855.533458938156
Dispersion correction            ... done
                    ***********************HURRAY********************

CARTESIAN COORDINATES (ANGSTROEM)
---------------------------------
  C      0.142403   -4.598251    1.002259
  C      0.085793   -4.470315    2.524124
  C      1.581829   -4.164320    0.733878
  C      2.238118   -4.109797   -0.479289
  H      1.731926   -4.372829   -1.399862
  C      3.571272   -3.716664   -0.497119
  H      4.101888   -3.660706   -1.438370
  C      4.230561   -3.395007    0.684971
  H      5.269447   -3.094754    0.652581
  C      3.572291   -3.461715    1.904249
  H      4.093994   -3.220792    2.821521
  C      2.239708   -3.847061    1.922249
  C     -0.978668   -4.731219    3.362960
  H     -1.927127   -5.077807    2.971301
  C     -0.812311   -4.543006    4.729490
  H     -1.634244   -4.744719    5.403194
  C      0.402188   -4.097744    5.240078
  H      0.514252   -3.957941    6.306862
  C      1.470786   -3.832668    4.396143
  H      2.413875   -3.487091    4.800177
  C      1.305932   -4.021283    3.032122
  C     -2.133788   -3.788509    0.008498
  C     -2.964879   -2.715557   -0.302053
  H     -3.966134   -2.913890   -0.661933
  C     -2.552169   -1.400809   -0.172006
  C     -3.444243   -0.338316   -0.500430
  N     -4.181359    0.503182   -0.771334
  C     -0.836042   -3.545182    0.467043
  C     -0.422238   -2.216672    0.583197
  H      0.574969   -1.990581    0.933786
  C     -1.250965   -1.151334    0.274501
  C     -0.766015    0.182533    0.419770
  N     -0.360300    1.252706    0.540955
  H      5.680917   -6.302366    0.281614
  H      7.339204   -7.784594    1.395921
  C      5.362921   -7.205615    0.785554
  C      6.285783   -8.029784    1.404403
  C      4.013939   -7.513512    0.820067
  H      3.318534   -6.841961    0.337096
  C      5.845731   -9.191544    2.020079
  H      6.577984   -9.843395    2.476183
  C      3.570683   -8.663168    1.475031
  C      4.502827   -9.543151    2.044384
  N      2.208435   -8.972959    1.588062
  C      2.673413  -10.667152    3.237517
  C      1.776674   -9.757969    2.663105
  H      2.940615  -12.082312    4.821699
  C      2.260826  -11.386566    4.350613
  C      0.484701   -9.634191    3.174300
  C      0.982691  -11.256037    4.872337
  C      0.091958  -10.386858    4.267381
  H     -0.216213   -8.942352    2.729518
  H      0.687153  -11.836573    5.735758
  H     -0.913788  -10.277244    4.651237
  C      4.005425  -10.887278    2.546015
  C      5.019565  -11.583598    3.447707
  C      3.762981  -11.788645    1.316300
  C      1.249408   -8.194992    0.892093
  C      0.559946   -8.743374   -0.178354
  C     -0.382986   -7.972445   -0.825359
  C     -0.632373   -6.643653   -0.472726
  C      0.089314   -6.077001    0.578645
  C      0.988455   -6.893094    1.270657
  H      1.537431   -6.497711    2.115765
  H      0.751887   -9.764088   -0.481395
  H     -0.951479   -8.406358   -1.638928
  C     -1.727755   -5.925455   -1.205227
  C     -2.651221   -5.168896   -0.252024
  H     -2.308552   -6.660966   -1.764097
  H     -1.324303   -5.234223   -1.950930
  H     -2.761636   -5.735509    0.676636
  H     -3.650933   -5.094188   -0.682022
  H      3.061073  -11.334768    0.617112
  H      3.355225  -12.753087    1.624078
  H      4.700306  -11.963202    0.784653
  H      5.252519  -10.999715    4.338757
  H      5.947871  -11.775255    2.910409
  H      4.653569  -12.559727    3.764603

 Multiplicity           Mult            ....    1
 Number of Electrons    NEL             ....  316
 Basis Dimension        Dim             ....  767

ORBITAL ENERGIES
----------------

  NO   OCC          E(Eh)            E(eV)
   0   2.0000     -14.679941      -399.4615
   1   2.0000     -14.657017      -398.8377
   2   2.0000     -14.654493      -398.7690
   3   2.0000     -10.522230      -286.3244
   4   2.0000     -10.520821      -286.2861
   5   2.0000     -10.512190      -286.0512
   6   2.0000     -10.507523      -285.9242
   7   2.0000     -10.500366      -285.7295
   8   2.0000     -10.500335      -285.7287
   9   2.0000     -10.497930      -285.6632
  10   2.0000     -10.497886      -285.6620
  11   2.0000     -10.493624      -285.5460
  12   2.0000     -10.491753      -285.4951
  13   2.0000     -10.491261      -285.4817
  14   2.0000     -10.491041      -285.4757
  15   2.0000     -10.487821      -285.3881
  16   2.0000     -10.480197      -285.1806
  17   2.0000     -10.477639      -285.1110
  18   2.0000     -10.477601      -285.1100
  19   2.0000     -10.474622      -285.0289
  20   2.0000     -10.474499      -285.0256
  21   2.0000     -10.473819      -285.0071
  22   2.0000     -10.469662      -284.8940
  23   2.0000     -10.469312      -284.8845
  24   2.0000     -10.468536      -284.8634
  25   2.0000     -10.468127      -284.8522
  26   2.0000     -10.467820      -284.8439
  27   2.0000     -10.466822      -284.8167
  28   2.0000     -10.466810      -284.8164
  29   2.0000     -10.465974      -284.7936
  30   2.0000     -10.465007      -284.7673
  31   2.0000     -10.464990      -284.7668
  32   2.0000     -10.464176      -284.7447
  33   2.0000     -10.463476      -284.7257
  34   2.0000     -10.463115      -284.7158
  35   2.0000     -10.451716      -284.4056
  36   2.0000     -10.451299      -284.3943
  37   2.0000     -10.444312      -284.2042
  38   2.0000     -10.444220      -284.2017
  39   2.0000     -10.443229      -284.1747
  40   2.0000     -10.442305      -284.1496
  41   2.0000     -10.442030      -284.1421
  42   2.0000     -10.439791      -284.0812
  43   2.0000     -10.437727      -284.0250
  44   2.0000     -10.436434      -283.9898
  45   2.0000     -10.430679      -283.8332
  46   2.0000     -10.426283      -283.7136
  47   2.0000      -1.091262       -29.6947
  48   2.0000      -1.042141       -28.3581
  49   2.0000      -1.029880       -28.0245
  50   2.0000      -1.019192       -27.7336
  51   2.0000      -1.003514       -27.3070
  52   2.0000      -0.987654       -26.8754
  53   2.0000      -0.968855       -26.3639
  54   2.0000      -0.960530       -26.1373
  55   2.0000      -0.957328       -26.0502
  56   2.0000      -0.938745       -25.5446
  57   2.0000      -0.933574       -25.4038
  58   2.0000      -0.910498       -24.7759
  59   2.0000      -0.898176       -24.4406
  60   2.0000      -0.890284       -24.2259
  61   2.0000      -0.884806       -24.0768
  62   2.0000      -0.857842       -23.3431
  63   2.0000      -0.856739       -23.3131
  64   2.0000      -0.848265       -23.0825
  65   2.0000      -0.845898       -23.0181
  66   2.0000      -0.833813       -22.6892
  67   2.0000      -0.825840       -22.4723
  68   2.0000      -0.818644       -22.2764
  69   2.0000      -0.808277       -21.9943
  70   2.0000      -0.795096       -21.6357
  71   2.0000      -0.772754       -21.0277
  72   2.0000      -0.771536       -20.9946
  73   2.0000      -0.747835       -20.3496
  74   2.0000      -0.731478       -19.9045
  75   2.0000      -0.724961       -19.7272
  76   2.0000      -0.713936       -19.4272
  77   2.0000      -0.710878       -19.3440
  78   2.0000      -0.702326       -19.1113
  79   2.0000      -0.691133       -18.8067
  80   2.0000      -0.682022       -18.5588
  81   2.0000      -0.678794       -18.4709
  82   2.0000      -0.672611       -18.3027
  83   2.0000      -0.671150       -18.2629
  84   2.0000      -0.666380       -18.1331
  85   2.0000      -0.645233       -17.5577
  86   2.0000      -0.618636       -16.8339
  87   2.0000      -0.612765       -16.6742
  88   2.0000      -0.611995       -16.6532
  89   2.0000      -0.610780       -16.6202
  90   2.0000      -0.598517       -16.2865
  91   2.0000      -0.583880       -15.8882
  92   2.0000      -0.582320       -15.8457
  93   2.0000      -0.572999       -15.5921
  94   2.0000      -0.566433       -15.4134
  95   2.0000      -0.561300       -15.2737
  96   2.0000      -0.539484       -14.6801
  97   2.0000      -0.539247       -14.6737
  98   2.0000      -0.537176       -14.6173
  99   2.0000      -0.532771       -14.4974
 100   2.0000      -0.529781       -14.4161
 101   2.0000      -0.527226       -14.3465
 102   2.0000      -0.523081       -14.2338
 103   2.0000      -0.520661       -14.1679
 104   2.0000      -0.516609       -14.0577
 105   2.0000      -0.509854       -13.8738
 106   2.0000      -0.507043       -13.7973
 107   2.0000      -0.503488       -13.7006
 108   2.0000      -0.501936       -13.6584
 109   2.0000      -0.500744       -13.6259
 110   2.0000      -0.497938       -13.5496
 111   2.0000      -0.493811       -13.4373
 112   2.0000      -0.491110       -13.3638
 113   2.0000      -0.489658       -13.3243
 114   2.0000      -0.486530       -13.2392
 115   2.0000      -0.484714       -13.1898
 116   2.0000      -0.474606       -12.9147
 117   2.0000      -0.469515       -12.7762
 118   2.0000      -0.460091       -12.5197
 119   2.0000      -0.451184       -12.2773
 120   2.0000      -0.447965       -12.1897
 121   2.0000      -0.444001       -12.0819
 122   2.0000      -0.440334       -11.9821
 123   2.0000      -0.438668       -11.9368
 124   2.0000      -0.437237       -11.8978
 125   2.0000      -0.435979       -11.8636
 126   2.0000      -0.435405       -11.8480
 127   2.0000      -0.430691       -11.7197
 128   2.0000      -0.427569       -11.6347
 129   2.0000      -0.425384       -11.5753
 130   2.0000      -0.424183       -11.5426
 131   2.0000      -0.420502       -11.4424
 132   2.0000      -0.420349       -11.4383
 133   2.0000      -0.416329       -11.3289
 134   2.0000      -0.415240       -11.2993
 135   2.0000      -0.413470       -11.2511
 136   2.0000      -0.411889       -11.2081
 137   2.0000      -0.402955       -10.9650
 138   2.0000      -0.400706       -10.9038
 139   2.0000      -0.399101       -10.8601
 140   2.0000      -0.397320       -10.8116
 141   2.0000      -0.395459       -10.7610
 142   2.0000      -0.392557       -10.6820
 143   2.0000      -0.378100       -10.2886
 144   2.0000      -0.373526       -10.1642
 145   2.0000      -0.363991        -9.9047
 146   2.0000      -0.349428        -9.5084
 147   2.0000      -0.339286        -9.2324
 148   2.0000      -0.321895        -8.7592
 149   2.0000      -0.313983        -8.5439
 150   2.0000      -0.305846        -8.3225
 151   2.0000      -0.303475        -8.2580
 152   2.0000      -0.299133        -8.1398
 153   2.0000      -0.290880        -7.9152
 154   2.0000      -0.286928        -7.8077
 155   2.0000      -0.280743        -7.6394
 156   2.0000      -0.270874        -7.3708
 157   2.0000      -0.230251        -6.2654
 158   0.0000      -0.062785        -1.7085
 159   0.0000      -0.041277        -1.1232
 160   0.0000      -0.029504        -0.8028
 161   0.0000      -0.016877        -0.4593
 162   0.0000      -0.009888        -0.2691

MULLIKEN ATOMIC CHARGES
-----------------------
   0 C :   -0.444282
   1 C :    0.142558
   2 C :    0.066984
   3 C :   -0.261310
   4 H :    0.223767
   5 C :   -0.237172
   6 H :    0.230263
   7 C :   -0.213218
   8 H :    0.230017
   9 C :   -0.320577
  10 H :    0.214612
  11 C :    0.155170
  12 C :   -0.275671
  13 H :    0.215828
  14 C :   -0.222236
  15 H :    0.227608
  16 C :   -0.213312
  17 H :    0.229627
  18 C :   -0.321095
  19 H :    0.214433
  20 C :    0.142455
  21 C :    0.098349
  22 C :   -0.320427
  23 H :    0.245952
  24 C :    0.078342
  25 C :   -0.007137
  26 N :   -0.154053
  27 C :    0.223224
  28 C :   -0.290708
  29 H :    0.281479
  30 C :    0.087657
  31 C :   -0.008345
  32 N :   -0.154642
  33 H :    0.213508
  34 H :    0.209791
  35 C :   -0.231872
  36 C :   -0.219439
  37 C :   -0.297035
  38 H :    0.262294
  39 C :   -0.322956
  40 H :    0.212466
  41 C :    0.313826
  42 C :    0.157393
  43 N :   -0.706881
  44 C :    0.170333
  45 C :    0.311525
  46 H :    0.212126
  47 C :   -0.325070
  48 C :   -0.283184
  49 C :   -0.217477
  50 C :   -0.234212
  51 H :    0.240448
  52 H :    0.211625
  53 H :    0.213585
  54 C :   -0.231242
  55 C :   -0.663945
  56 C :   -0.592654
  57 C :    0.213520
  58 C :   -0.233007
  59 C :   -0.299509
  60 C :    0.063273
  61 C :    0.221730
  62 C :   -0.284045
  63 H :    0.282171
  64 H :    0.234012
  65 H :    0.218207
  66 C :   -0.519342
  67 C :   -0.536582
  68 H :    0.248445
  69 H :    0.250855
  70 H :    0.255772
  71 H :    0.251258
  72 H :    0.231734
  73 H :    0.219660
  74 H :    0.220385
  75 H :    0.239099
  76 H :    0.227634
  77 H :    0.227638
Sum of atomic charges:   -0.0000000

LOEWDIN ATOMIC CHARGES
----------------------
   0 C :   -0.028673
   1 C :   -0.012459
   2 C :   -0.021444
   3 C :   -0.120249
   4 H :    0.143687
   5 C :   -0.129363
   6 H :    0.141185
   7 C :   -0.126072
   8 H :    0.140944
   9 C :   -0.117719
  10 H :    0.141817
  11 C :   -0.037303
  12 C :   -0.118726
  13 H :    0.138653
  14 C :   -0.124030
  15 H :    0.140562
  16 C :   -0.122852
  17 H :    0.141253
  18 C :   -0.119692
  19 H :    0.141132
  20 C :   -0.036066
  21 C :   -0.026849
  22 C :   -0.092849
  23 H :    0.154916
  24 C :   -0.063604
  25 C :   -0.006399
  26 N :   -0.054118
  27 C :    0.003564
  28 C :   -0.068062
  29 H :    0.171191
  30 C :   -0.065233
  31 C :   -0.005374
  32 N :   -0.054536
  33 H :    0.134551
  34 H :    0.132969
  35 C :   -0.126852
  36 C :   -0.158296
  37 C :   -0.163062
  38 H :    0.150515
  39 C :   -0.128219
  40 H :    0.136089
  41 C :    0.048195
  42 C :   -0.044640
  43 N :   -0.078021
  44 C :   -0.044024
  45 C :    0.047165
  46 H :    0.136171
  47 C :   -0.127548
  48 C :   -0.162956
  49 C :   -0.156477
  50 C :   -0.128824
  51 H :    0.146445
  52 H :    0.133746
  53 H :    0.134358
  54 C :   -0.071486
  55 C :   -0.339930
  56 C :   -0.328127
  57 C :    0.010140
  58 C :   -0.115747
  59 C :   -0.130945
  60 C :   -0.048070
  61 C :   -0.022320
  62 C :   -0.104124
  63 H :    0.163640
  64 H :    0.148567
  65 H :    0.138045
  66 C :   -0.217605
  67 C :   -0.218416
  68 H :    0.139107
  69 H :    0.142628
  70 H :    0.143721
  71 H :    0.138627
  72 H :    0.130817
  73 H :    0.128780
  74 H :    0.129274
  75 H :    0.135897
  76 H :    0.129595
  77 H :    0.129412

  Mayer bond orders larger than 0.1
B(  0-C ,  1-C ) :   0.9577 B(  0-C ,  2-C ) :   0.9704 B(  0-C , 27-C ) :   0.9580
B(  0-C , 61-C ) :   0.9454 B(  1-C , 12-C ) :   1.3959 B(  1-C , 20-C ) :   1.3467
B(  2-C ,  3-C ) :   1.4033 B(  2-C , 11-C ) :   1.3424 B(  3-C ,  4-H ) :   0.9229
B(  3-C ,  5-C ) :   1.4181 B(  5-C ,  6-H ) :   0.9158 B(  5-C ,  7-C ) :   1.4127
B(  7-C ,  8-H ) :   0.9164 B(  7-C ,  9-C ) :   1.4296 B(  9-C , 10-H ) :   0.9302
B(  9-C , 11-C ) :   1.3357 B( 11-C , 20-C ) :   1.0038 B( 12-C , 13-H ) :   0.9232
B( 12-C , 14-C ) :   1.4197 B( 14-C , 15-H ) :   0.9166 B( 14-C , 16-C ) :   1.4171
B( 16-C , 17-H ) :   0.9165 B( 16-C , 18-C ) :   1.4298 B( 18-C , 19-H ) :   0.9299
B( 18-C , 20-C ) :   1.3385 B( 21-C , 22-C ) :   1.3864 B( 21-C , 27-C ) :   1.3731
B( 21-C , 67-C ) :   0.9457 B( 22-C , 23-H ) :   0.9121 B( 22-C , 24-C ) :   1.3776
B( 24-C , 25-C ) :   0.9867 B( 24-C , 30-C ) :   1.2991 B( 25-C , 26-N ) :   3.1392
B( 27-C , 28-C ) :   1.3452 B( 28-C , 29-H ) :   0.8962 B( 28-C , 30-C ) :   1.3792
B( 30-C , 31-C ) :   0.9893 B( 31-C , 32-N ) :   3.1403 B( 33-H , 35-C ) :   0.9176
B( 34-H , 36-C ) :   0.9213 B( 35-C , 36-C ) :   1.4281 B( 35-C , 37-C ) :   1.4491
B( 36-C , 39-C ) :   1.4161 B( 37-C , 38-H ) :   0.8906 B( 37-C , 41-C ) :   1.3516
B( 39-C , 40-H ) :   0.9177 B( 39-C , 42-C ) :   1.4242 B( 41-C , 42-C ) :   1.3175
B( 41-C , 43-N ) :   0.9933 B( 42-C , 54-C ) :   0.9361 B( 43-N , 45-C ) :   0.9940
B( 43-N , 57-C ) :   0.9223 B( 44-C , 45-C ) :   1.3183 B( 44-C , 47-C ) :   1.4204
B( 44-C , 54-C ) :   0.9336 B( 45-C , 48-C ) :   1.3568 B( 46-H , 47-C ) :   0.9181
B( 47-C , 49-C ) :   1.4170 B( 48-C , 50-C ) :   1.4400 B( 48-C , 51-H ) :   0.9015
B( 49-C , 50-C ) :   1.4298 B( 49-C , 52-H ) :   0.9208 B( 50-C , 53-H ) :   0.9206
B( 54-C , 55-C ) :   1.0251 B( 54-C , 56-C ) :   0.9841 B( 55-C , 75-H ) :   0.9214
B( 55-C , 76-H ) :   0.9136 B( 55-C , 77-H ) :   0.9135 B( 56-C , 72-H ) :   0.9177
B( 56-C , 73-H ) :   0.9225 B( 56-C , 74-H ) :   0.9223 B( 57-C , 58-C ) :   1.4060
B( 57-C , 62-C ) :   1.4441 B( 58-C , 59-C ) :   1.4244 B( 58-C , 64-H ) :   0.9123
B( 59-C , 60-C ) :   1.3837 B( 59-C , 65-H ) :   0.9169 B( 60-C , 61-C ) :   1.4043
B( 60-C , 66-C ) :   0.9442 B( 61-C , 62-C ) :   1.3135 B( 62-C , 63-H ) :   0.8874
B( 66-C , 67-C ) :   0.9409 B( 66-C , 68-H ) :   0.9213 B( 66-C , 69-H ) :   0.9034
B( 67-C , 70-H ) :   0.8993 B( 67-C , 71-H ) :   0.9193

Dispersion correction           -0.078567884
FINAL SINGLE POINT ENERGY     -1855.533459046954

DIPOLE MOMENT
-------------
                                X             Y             Z
Electronic contribution:    -19.12711      38.68861      -6.90216
Nuclear contribution   :     19.67768     -41.56698       7.10046
                        -----------------------------------------
Total Dipole Moment    :      0.55057      -2.87837       0.19830
                        -----------------------------------------
Magnitude (a.u.)       :      2.93725
Magnitude (Debye)      :      7.46589

                             ****ORCA TERMINATED NORMALLY****
TOTAL RUN TIME: 0 days 1 hours 6 minutes 28 seconds 336 msec
