 Q-Chem 5.1, Q-Chem, Inc., Pleasanton, CA (2018)
 Q-Chem 5.1.1 for Intel X86 EM64T Linux

User input:
--------------------------------------------------------------
$rem
threads 8
jobtype	opt
method PBEh-3c
basis def2-mSVP
mem_static	512
mem_total	6096
sym_ignore	true
$end

$molecule
0 1
C        -19.14123        9.29663       -7.40062
C        -16.85698        8.85892       -7.03766
C        -15.84458        8.41289       -5.98880
H        -15.86645        9.10130       -5.13539
O        -14.53992        8.39234       -6.56781
H        -16.10761        7.41429       -5.61961
C        -13.55881        7.98585       -5.62278
H        -13.52400        8.68523       -4.78190
H        -12.58378        7.98573       -6.11733
H        -13.76865        6.97374       -5.26358
O        -18.16153        8.88029       -6.45841
H        -19.17554        8.60588       -8.24863
H        -18.93017       10.31218       -7.74924
H        -20.11686        9.29261       -6.90726
H        -16.83593        8.17020       -7.89083
H        -16.59324        9.85718       -7.40728
$end

--------------------------------------------------------------

   11    -308.1763128758      7.59e-09  Convergence criterion met
 Total energy in the final basis set =     -308.1763128758
   10    -308.1786920219      1.09e-09  Convergence criterion met
 Total energy in the final basis set =     -308.1786920219
    9    -308.1791624970      5.67e-09  Convergence criterion met
 Total energy in the final basis set =     -308.1791624970

             Standard Nuclear Orientation (Angstroms)
    I     Atom           X                Y                Z
 ----------------------------------------------------------------
    1      C     -19.1067749546     9.2836730520    -7.3821301922
    2      C     -16.8379263450     8.8635342123    -7.0473154218
    3      C     -15.8625691829     8.4148249106    -5.9774759515
    4      H     -15.9110574471     9.1038328536    -5.1209990164
    5      O     -14.5824513007     8.3934054482    -6.5435021687
    6      H     -16.1536753269     7.4210878814    -5.6055971278
    7      C     -13.5939010461     7.9943250989    -5.6424167308
    8      H     -13.5208460031     8.6680400512    -4.7783712582
    9      H     -12.6383782299     8.0055506384    -6.1658116310
   10      H     -13.7638518703     6.9793541152    -5.2591431992
   11      O     -18.1181063821     8.8842552514    -6.4813386064
   12      H     -19.1791069677     8.6110525600    -8.2470949229
   13      H     -18.9377138710    10.2993109259    -7.7640198636
   14      H     -20.0624316620     9.2708325756    -6.8590008792
   15      H     -16.7892296117     8.1747098790    -7.9039191905
   16      H     -16.5472597992     9.8574705463    -7.4189938398
 ----------------------------------------------------------------

    9    -308.1791718209      1.09e-09  Convergence criterion met
 Total energy in the final basis set =     -308.1791718209
 Final energy is   -308.179171820874
 **  OPTIMIZATION CONVERGED  **

                    Orbital Energies (a.u.)
 --------------------------------------------------------------

 Alpha MOs
 -- Occupied --
-19.496 -19.496 -10.479 -10.479 -10.476 -10.476  -1.155  -1.145
 -0.854  -0.777  -0.723  -0.679  -0.567  -0.563  -0.541  -0.522
 -0.516  -0.488  -0.469  -0.414  -0.411  -0.380  -0.369  -0.314
 -0.309

          Ground-State Mulliken Net Atomic Charges

     Atom                 Charge (a.u.)
  ----------------------------------------
      1 C                    -0.364090
      2 C                    -0.152014
      3 C                    -0.152014
      4 H                     0.190498
      5 O                    -0.455984
      6 H                     0.190590
      7 C                    -0.364091
      8 H                     0.184804
      9 H                     0.221439
     10 H                     0.184767
     11 O                    -0.455995
     12 H                     0.184784
     13 H                     0.184776
     14 H                     0.221434
     15 H                     0.190521
     16 H                     0.190576
  ----------------------------------------
  Sum of atomic charges =     0.000000

                    Cartesian Multipole Moments
 -----------------------------------------------------------------
    Charge (ESU x 10^10)
                 0.0000
    Dipole Moment (Debye)
         X       0.0000      Y       0.0007      Z       0.0003
       Tot       0.0007
    Quadrupole Moments (Debye-Ang)
        XX     -33.5435     XY      -2.1300     YY     -37.2690
        XZ       5.2190     YZ      -1.0895     ZZ     -36.7251

 Total job time:  9.25s(wall), 73.82s(cpu)
        *  Thank you very much for using Q-Chem.  Have a nice day.  *
