                         Program Version 4.0.1 -  RELEASE  -
|  1> %maxcore 1700
|  2> %pal nprocs 8 end
|  3> !PBEh-3c RIJCOSX OPT
|  4>
|  5> *xyzfile 0 1 incoords.xyz
|  6>
|  7>
|  8>                          ****END OF INPUT****
 Total Charge           Charge          ....    0
 Multiplicity           Mult            ....    1
 Number of Electrons    NEL             ....  368
Dispersion correction           -0.085995471
FINAL SINGLE POINT ENERGY     -2123.341517371245
Dispersion correction            ... done
Dispersion correction           -0.086578980
FINAL SINGLE POINT ENERGY     -2123.370762320366
Dispersion correction            ... done
Dispersion correction           -0.086597078
FINAL SINGLE POINT ENERGY     -2123.378424528260
Dispersion correction            ... done
FINAL SINGLE POINT ENERGY     -2123.379885177027
FINAL SINGLE POINT ENERGY     -2123.380155838458
FINAL SINGLE POINT ENERGY     -2123.380455637815
FINAL SINGLE POINT ENERGY     -2123.380480252838
FINAL SINGLE POINT ENERGY     -2123.380505987543
FINAL SINGLE POINT ENERGY     -2123.380512453843
FINAL SINGLE POINT ENERGY     -2123.380521056814
FINAL SINGLE POINT ENERGY     -2123.380527326326
FINAL SINGLE POINT ENERGY     -2123.380536697904
Dispersion correction            ... done
Dispersion correction           -0.086378708
FINAL SINGLE POINT ENERGY     -2123.380545815249
Dispersion correction            ... done
Dispersion correction           -0.086375063
FINAL SINGLE POINT ENERGY     -2123.380549338192
Dispersion correction            ... done
                    ***********************HURRAY********************

CARTESIAN COORDINATES (ANGSTROEM)
---------------------------------
  C     -2.691357    0.338379   -0.235763
  C     -2.523257   -1.056863   -0.083467
  C     -1.254697   -1.606544   -0.048185
  C     -0.133982   -0.781474   -0.173032
  C     -0.302056    0.614315   -0.339878
  C     -1.587502    1.162299   -0.361777
  B      1.293193   -1.391383   -0.111024
  C      2.535752   -0.478011   -0.297061
  C      2.367621    0.916749   -0.476023
  B      0.941686    1.531868   -0.501481
  C      3.820711   -1.027486   -0.278619
  C      4.923753   -0.207792   -0.436337
  C      4.755795    1.184994   -0.608322
  C      3.488111    1.737631   -0.628059
  C      6.556641    3.063499   -0.924106
  C      6.081546    1.791524   -0.742095
  C      7.007263    0.735152   -0.649015
  C      8.386357    0.892278   -0.732504
  C      8.851790    2.216245   -0.921094
  C      7.956180    3.256120   -1.011676
  C      6.358329   -0.500557   -0.463713
  C      7.124634   -1.631260   -0.358529
  C      8.532058   -1.504037   -0.439923
  C      9.155247   -0.291315   -0.619866
  C     -6.302158    1.627736   -0.265424
  C     -6.925460    0.411236   -0.113722
  C     -6.155872   -0.772596   -0.008496
  C     -4.776049   -0.611603   -0.069469
  C     -4.126876    0.628066   -0.225367
  C     -4.893935    1.758829   -0.323924
  C     -6.621352   -2.100131    0.153089
  C     -5.725085   -3.139646    0.241065
  C     -4.324789   -2.943007    0.177062
  C     -3.849700   -1.667634    0.021100
  C      0.758054    3.080132   -0.698351
  C      1.480552   -2.925021    0.176736
  C      1.603388   -3.857610   -0.888466
  C      1.781327   -5.237875   -0.611247
  C      1.833853   -5.655367    0.735060
  C      1.713824   -4.746610    1.747328
  C      1.534673   -3.370944    1.482259
  C      1.550869   -3.446935   -2.243562
  C      1.671246   -4.350553   -3.261566
  C      1.849527   -5.719723   -2.979654
  C      1.901885   -6.150336   -1.684282
  C      0.862393    3.958873    0.414826
  C      0.705072    5.357578    0.238063
  C      0.448107    5.849672   -1.058831
  C      0.351443    4.993195   -2.117813
  C      0.503943    3.598447   -1.952525
  C      1.118856    3.474194    1.721367
  C      1.214992    4.325606    2.785979
  C      1.057649    5.713783    2.603408
  C      0.808971    6.215043    1.357071
  C      0.403790    2.691168   -3.148443
  C      1.398431   -2.400451    2.623624
  H     -1.123779   -2.675656    0.076192
  H     -1.710259    2.233388   -0.480154
  H      3.945390   -2.095892   -0.142432
  H      3.359379    2.806031   -0.758787
  H      5.892687    3.915507   -1.001277
  H      9.914494    2.411268   -0.995077
  H      8.330700    4.260981   -1.156416
  H      6.684374   -2.610172   -0.216033
  H      9.137472   -2.397053   -0.356728
  H     10.235796   -0.243580   -0.674182
  H     -6.908147    2.520834   -0.343334
  H     -8.006574    0.360683   -0.075619
  H     -4.453792    2.740808   -0.444144
  H     -7.684680   -2.297844    0.208651
  H     -6.099583   -4.147303    0.365129
  H     -3.660204   -3.794757    0.251689
  H      1.972396   -6.706791    0.956808
  H      1.758784   -5.082024    2.776926
  H      1.411265   -2.397024   -2.476076
  H      1.628103   -4.016668   -4.289996
  H      1.943058   -6.427451   -3.792646
  H      2.036318   -7.202860   -1.464205
  H      0.327379    6.916396   -1.205250
  H      0.151136    5.384855   -3.108207
  H      1.245222    2.409130    1.879966
  H      1.414067    3.934391    3.774953
  H      1.134859    6.380125    3.452329
  H      0.689077    7.282027    1.210944
  H      0.097583    3.233894   -4.042367
  H     -0.322192    1.891715   -2.987250
  H      1.362641    2.216313   -3.369459
  H      1.521526   -2.889838    3.589289
  H      0.416750   -1.921531    2.622954
  H      2.143075   -1.603581    2.563716

 Multiplicity           Mult            ....    1
 Number of Electrons    NEL             ....  368
 Basis Dimension        Dim             ....  908

ORBITAL ENERGIES
----------------

  NO   OCC          E(Eh)            E(eV)
   0   2.0000     -10.463565      -284.7281
   1   2.0000     -10.463485      -284.7259
   2   2.0000     -10.463398      -284.7235
   3   2.0000     -10.463157      -284.7170
   4   2.0000     -10.463023      -284.7133
   5   2.0000     -10.462990      -284.7124
   6   2.0000     -10.462213      -284.6913
   7   2.0000     -10.461740      -284.6784
   8   2.0000     -10.461669      -284.6765
   9   2.0000     -10.461275      -284.6658
  10   2.0000     -10.461205      -284.6639
  11   2.0000     -10.461141      -284.6621
  12   2.0000     -10.460912      -284.6559
  13   2.0000     -10.460779      -284.6523
  14   2.0000     -10.459766      -284.6247
  15   2.0000     -10.459533      -284.6184
  16   2.0000     -10.459281      -284.6115
  17   2.0000     -10.459109      -284.6068
  18   2.0000     -10.458592      -284.5928
  19   2.0000     -10.458589      -284.5927
  20   2.0000     -10.458209      -284.5823
  21   2.0000     -10.458177      -284.5815
  22   2.0000     -10.453316      -284.4492
  23   2.0000     -10.453030      -284.4414
  24   2.0000     -10.453001      -284.4406
  25   2.0000     -10.452947      -284.4392
  26   2.0000     -10.452610      -284.4300
  27   2.0000     -10.452484      -284.4265
  28   2.0000     -10.452300      -284.4215
  29   2.0000     -10.452168      -284.4179
  30   2.0000     -10.450921      -284.3840
  31   2.0000     -10.450886      -284.3831
  32   2.0000     -10.445273      -284.2303
  33   2.0000     -10.444877      -284.2195
  34   2.0000     -10.444845      -284.2187
  35   2.0000     -10.444757      -284.2163
  36   2.0000     -10.443791      -284.1900
  37   2.0000     -10.443615      -284.1852
  38   2.0000     -10.443503      -284.1822
  39   2.0000     -10.443423      -284.1800
  40   2.0000     -10.443271      -284.1759
  41   2.0000     -10.443269      -284.1758
  42   2.0000     -10.442911      -284.1661
  43   2.0000     -10.442713      -284.1607
  44   2.0000     -10.441916      -284.1390
  45   2.0000     -10.441791      -284.1356
  46   2.0000     -10.433200      -283.9018
  47   2.0000     -10.433037      -283.8974
  48   2.0000     -10.432645      -283.8867
  49   2.0000     -10.432500      -283.8828
  50   2.0000     -10.428592      -283.7764
  51   2.0000     -10.428408      -283.7714
  52   2.0000     -10.427112      -283.7361
  53   2.0000     -10.426814      -283.7280
  54   2.0000      -6.948766      -189.0855
  55   2.0000      -6.948727      -189.0845
  56   2.0000      -1.014031       -27.5932
  57   2.0000      -1.013585       -27.5811
  58   2.0000      -0.974866       -26.5275
  59   2.0000      -0.974607       -26.5204
  60   2.0000      -0.959965       -26.1220
  61   2.0000      -0.957566       -26.0567
  62   2.0000      -0.931786       -25.3552
  63   2.0000      -0.931367       -25.3438
  64   2.0000      -0.922063       -25.0906
  65   2.0000      -0.921831       -25.0843
  66   2.0000      -0.907399       -24.6916
  67   2.0000      -0.899045       -24.4643
  68   2.0000      -0.869799       -23.6684
  69   2.0000      -0.866636       -23.5824
  70   2.0000      -0.852600       -23.2004
  71   2.0000      -0.852171       -23.1887
  72   2.0000      -0.845614       -23.0103
  73   2.0000      -0.845244       -23.0003
  74   2.0000      -0.845133       -22.9972
  75   2.0000      -0.844829       -22.9890
  76   2.0000      -0.821228       -22.3468
  77   2.0000      -0.815199       -22.1827
  78   2.0000      -0.810879       -22.0651
  79   2.0000      -0.808944       -22.0125
  80   2.0000      -0.807106       -21.9625
  81   2.0000      -0.803116       -21.8539
  82   2.0000      -0.764886       -20.8136
  83   2.0000      -0.764563       -20.8048
  84   2.0000      -0.733522       -19.9601
  85   2.0000      -0.728194       -19.8152
  86   2.0000      -0.725182       -19.7332
  87   2.0000      -0.718905       -19.5624
  88   2.0000      -0.698731       -19.0134
  89   2.0000      -0.697401       -18.9772
  90   2.0000      -0.687824       -18.7167
  91   2.0000      -0.685932       -18.6651
  92   2.0000      -0.678094       -18.4519
  93   2.0000      -0.672509       -18.2999
  94   2.0000      -0.669724       -18.2241
  95   2.0000      -0.669168       -18.2090
  96   2.0000      -0.664002       -18.0684
  97   2.0000      -0.655383       -17.8339
  98   2.0000      -0.646276       -17.5861
  99   2.0000      -0.645756       -17.5719
 100   2.0000      -0.594537       -16.1782
 101   2.0000      -0.594317       -16.1722
 102   2.0000      -0.591017       -16.0824
 103   2.0000      -0.588374       -16.0105
 104   2.0000      -0.582275       -15.8445
 105   2.0000      -0.575385       -15.6570
 106   2.0000      -0.574797       -15.6410
 107   2.0000      -0.573427       -15.6037
 108   2.0000      -0.573084       -15.5944
 109   2.0000      -0.566176       -15.4064
 110   2.0000      -0.565458       -15.3869
 111   2.0000      -0.547667       -14.9028
 112   2.0000      -0.547553       -14.8997
 113   2.0000      -0.542269       -14.7559
 114   2.0000      -0.530460       -14.4346
 115   2.0000      -0.526773       -14.3342
 116   2.0000      -0.523941       -14.2572
 117   2.0000      -0.511294       -13.9130
 118   2.0000      -0.506374       -13.7791
 119   2.0000      -0.503685       -13.7060
 120   2.0000      -0.502826       -13.6826
 121   2.0000      -0.500967       -13.6320
 122   2.0000      -0.499328       -13.5874
 123   2.0000      -0.495251       -13.4765
 124   2.0000      -0.493823       -13.4376
 125   2.0000      -0.488642       -13.2966
 126   2.0000      -0.485424       -13.2091
 127   2.0000      -0.482944       -13.1416
 128   2.0000      -0.481773       -13.1097
 129   2.0000      -0.481140       -13.0925
 130   2.0000      -0.479421       -13.0457
 131   2.0000      -0.479189       -13.0394
 132   2.0000      -0.478129       -13.0106
 133   2.0000      -0.474749       -12.9186
 134   2.0000      -0.471153       -12.8207
 135   2.0000      -0.470165       -12.7938
 136   2.0000      -0.466735       -12.7005
 137   2.0000      -0.463865       -12.6224
 138   2.0000      -0.453042       -12.3279
 139   2.0000      -0.451674       -12.2907
 140   2.0000      -0.447269       -12.1708
 141   2.0000      -0.441938       -12.0257
 142   2.0000      -0.440012       -11.9733
 143   2.0000      -0.439580       -11.9616
 144   2.0000      -0.436819       -11.8864
 145   2.0000      -0.435806       -11.8589
 146   2.0000      -0.433193       -11.7878
 147   2.0000      -0.430877       -11.7247
 148   2.0000      -0.428839       -11.6693
 149   2.0000      -0.421521       -11.4702
 150   2.0000      -0.419034       -11.4025
 151   2.0000      -0.412880       -11.2350
 152   2.0000      -0.405744       -11.0409
 153   2.0000      -0.399434       -10.8692
 154   2.0000      -0.397248       -10.8097
 155   2.0000      -0.393049       -10.6954
 156   2.0000      -0.392622       -10.6838
 157   2.0000      -0.392138       -10.6706
 158   2.0000      -0.389393       -10.5959
 159   2.0000      -0.387494       -10.5442
 160   2.0000      -0.385549       -10.4913
 161   2.0000      -0.385078       -10.4785
 162   2.0000      -0.378677       -10.3043
 163   2.0000      -0.369089       -10.0434
 164   2.0000      -0.367313        -9.9951
 165   2.0000      -0.366680        -9.9779
 166   2.0000      -0.351953        -9.5771
 167   2.0000      -0.350401        -9.5349
 168   2.0000      -0.349752        -9.5172
 169   2.0000      -0.337739        -9.1903
 170   2.0000      -0.322542        -8.7768
 171   2.0000      -0.317380        -8.6363
 172   2.0000      -0.315774        -8.5926
 173   2.0000      -0.310845        -8.4585
 174   2.0000      -0.293590        -7.9890
 175   2.0000      -0.292655        -7.9635
 176   2.0000      -0.278934        -7.5902
 177   2.0000      -0.275359        -7.4929
 178   2.0000      -0.275318        -7.4918
 179   2.0000      -0.260706        -7.0942
 180   2.0000      -0.255130        -6.9424
 181   2.0000      -0.254491        -6.9251
 182   2.0000      -0.244223        -6.6457
 183   2.0000      -0.243441        -6.6244
 184   0.0000      -0.091201        -2.4817
 185   0.0000      -0.057088        -1.5535
 186   0.0000      -0.034817        -0.9474
 187   0.0000      -0.028247        -0.7686
 188   0.0000      -0.016421        -0.4468

MULLIKEN ATOMIC CHARGES
-----------------------
   0 C :    0.101364
   1 C :    0.099407
   2 C :   -0.384371
   3 C :   -0.153806
   4 C :   -0.153235
   5 C :   -0.388531
   6 B :    0.707447
   7 C :   -0.158152
   8 C :   -0.159200
   9 B :    0.706089
  10 C :   -0.381423
  11 C :    0.099431
  12 C :    0.097960
  13 C :   -0.379011
  14 C :   -0.380412
  15 C :    0.196414
  16 C :   -0.062058
  17 C :    0.252292
  18 C :   -0.333927
  19 C :   -0.203604
  20 C :    0.197561
  21 C :   -0.380859
  22 C :   -0.203667
  23 C :   -0.334378
  24 C :   -0.203517
  25 C :   -0.334366
  26 C :    0.252168
  27 C :   -0.062007
  28 C :    0.197729
  29 C :   -0.380955
  30 C :   -0.333718
  31 C :   -0.203567
  32 C :   -0.380570
  33 C :    0.196432
  34 C :   -0.226651
  35 C :   -0.227661
  36 C :    0.087944
  37 C :    0.133470
  38 C :   -0.311215
  39 C :   -0.268574
  40 C :    0.016805
  41 C :   -0.326130
  42 C :   -0.234950
  43 C :   -0.230507
  44 C :   -0.285646
  45 C :    0.085191
  46 C :    0.127795
  47 C :   -0.312089
  48 C :   -0.264125
  49 C :    0.016999
  50 C :   -0.326538
  51 C :   -0.231987
  52 C :   -0.231235
  53 C :   -0.284801
  54 C :   -0.755879
  55 C :   -0.759226
  56 H :    0.232450
  57 H :    0.233760
  58 H :    0.232700
  59 H :    0.232204
  60 H :    0.221896
  61 H :    0.219400
  62 H :    0.225773
  63 H :    0.221207
  64 H :    0.226214
  65 H :    0.219586
  66 H :    0.226280
  67 H :    0.219740
  68 H :    0.220414
  69 H :    0.219459
  70 H :    0.225902
  71 H :    0.221753
  72 H :    0.209046
  73 H :    0.207494
  74 H :    0.234001
  75 H :    0.219364
  76 H :    0.217482
  77 H :    0.209853
  78 H :    0.209291
  79 H :    0.207704
  80 H :    0.235987
  81 H :    0.219495
  82 H :    0.217413
  83 H :    0.209923
  84 H :    0.234626
  85 H :    0.251321
  86 H :    0.245065
  87 H :    0.236043
  88 H :    0.249200
  89 H :    0.248008
Sum of atomic charges:   -0.0000000

LOEWDIN ATOMIC CHARGES
----------------------
   0 C :   -0.013332
   1 C :   -0.013362
   2 C :   -0.079970
   3 C :   -0.087296
   4 C :   -0.087413
   5 C :   -0.081041
   6 B :    0.078612
   7 C :   -0.088450
   8 C :   -0.088287
   9 B :    0.079109
  10 C :   -0.078735
  11 C :   -0.013106
  12 C :   -0.013161
  13 C :   -0.078163
  14 C :   -0.105539
  15 C :   -0.022850
  16 C :   -0.019420
  17 C :   -0.037132
  18 C :   -0.111343
  19 C :   -0.130445
  20 C :   -0.022770
  21 C :   -0.105401
  22 C :   -0.130572
  23 C :   -0.111406
  24 C :   -0.130559
  25 C :   -0.111355
  26 C :   -0.037071
  27 C :   -0.019415
  28 C :   -0.022835
  29 C :   -0.105711
  30 C :   -0.111277
  31 C :   -0.130332
  32 C :   -0.105721
  33 C :   -0.022964
  34 C :   -0.094666
  35 C :   -0.094824
  36 C :   -0.021670
  37 C :   -0.038663
  38 C :   -0.125943
  39 C :   -0.134569
  40 C :   -0.042807
  41 C :   -0.118984
  42 C :   -0.135828
  43 C :   -0.139900
  44 C :   -0.123214
  45 C :   -0.020298
  46 C :   -0.038513
  47 C :   -0.125471
  48 C :   -0.135162
  49 C :   -0.044307
  50 C :   -0.118324
  51 C :   -0.135540
  52 C :   -0.139447
  53 C :   -0.123253
  54 C :   -0.346733
  55 C :   -0.346472
  56 H :    0.151037
  57 H :    0.151023
  58 H :    0.151389
  59 H :    0.151179
  60 H :    0.143431
  61 H :    0.139711
  62 H :    0.139464
  63 H :    0.143402
  64 H :    0.139478
  65 H :    0.139739
  66 H :    0.139501
  67 H :    0.139818
  68 H :    0.143082
  69 H :    0.139783
  70 H :    0.139540
  71 H :    0.143337
  72 H :    0.135387
  73 H :    0.133779
  74 H :    0.148988
  75 H :    0.137077
  76 H :    0.135717
  77 H :    0.135273
  78 H :    0.135433
  79 H :    0.133701
  80 H :    0.149416
  81 H :    0.137034
  82 H :    0.135743
  83 H :    0.135267
  84 H :    0.133012
  85 H :    0.148272
  86 H :    0.145956
  87 H :    0.133241
  88 H :    0.147841
  89 H :    0.147245

  Mayer bond orders larger than 0.1
B(  0-C ,  1-C ) :   1.3448 B(  0-C ,  5-C ) :   1.3282 B(  0-C , 28-C ) :   0.9696
B(  1-C ,  2-C ) :   1.3297 B(  1-C , 33-C ) :   0.9705 B(  2-C ,  3-C ) :   1.4036
B(  2-C , 56-H ) :   0.9194 B(  3-C ,  4-C ) :   1.3378 B(  3-C ,  6-B ) :   0.9169
B(  4-C ,  5-C ) :   1.4031 B(  4-C ,  9-B ) :   0.9206 B(  5-C , 57-H ) :   0.9182
B(  6-B ,  7-C ) :   0.9173 B(  6-B , 35-C ) :   0.8106 B(  7-C ,  8-C ) :   1.3368
B(  7-C , 10-C ) :   1.4057 B(  8-C ,  9-B ) :   0.9127 B(  8-C , 13-C ) :   1.4053
B(  9-B , 34-C ) :   0.8109 B( 10-C , 11-C ) :   1.3300 B( 10-C , 58-H ) :   0.9196
B( 11-C , 12-C ) :   1.3450 B( 11-C , 20-C ) :   0.9697 B( 12-C , 13-C ) :   1.3324
B( 12-C , 15-C ) :   0.9706 B( 13-C , 59-H ) :   0.9195 B( 14-C , 15-C ) :   1.4026
B( 14-C , 19-C ) :   1.3098 B( 14-C , 60-H ) :   0.9300 B( 15-C , 16-C ) :   1.2230
B( 16-C , 17-C ) :   1.2309 B( 16-C , 20-C ) :   1.2222 B( 17-C , 18-C ) :   1.1869
B( 17-C , 23-C ) :   1.1864 B( 18-C , 19-C ) :   1.5459 B( 18-C , 61-H ) :   0.9267
B( 19-C , 62-H ) :   0.9186 B( 20-C , 21-C ) :   1.4007 B( 21-C , 22-C ) :   1.3099
B( 21-C , 63-H ) :   0.9307 B( 22-C , 23-C ) :   1.5468 B( 22-C , 64-H ) :   0.9184
B( 23-C , 65-H ) :   0.9266 B( 24-C , 25-C ) :   1.5470 B( 24-C , 29-C ) :   1.3100
B( 24-C , 66-H ) :   0.9183 B( 25-C , 26-C ) :   1.1864 B( 25-C , 67-H ) :   0.9265
B( 26-C , 27-C ) :   1.2310 B( 26-C , 30-C ) :   1.1869 B( 27-C , 28-C ) :   1.2221
B( 27-C , 33-C ) :   1.2230 B( 28-C , 29-C ) :   1.4007 B( 29-C , 68-H ) :   0.9310
B( 30-C , 31-C ) :   1.5459 B( 30-C , 69-H ) :   0.9267 B( 31-C , 32-C ) :   1.3098
B( 31-C , 70-H ) :   0.9186 B( 32-C , 33-C ) :   1.4027 B( 32-C , 71-H ) :   0.9300
B( 34-C , 45-C ) :   1.2586 B( 34-C , 49-C ) :   1.5127 B( 35-C , 36-C ) :   1.2575
B( 35-C , 40-C ) :   1.5139 B( 36-C , 37-C ) :   1.2718 B( 36-C , 41-C ) :   1.2429
B( 37-C , 38-C ) :   1.2286 B( 37-C , 44-C ) :   1.2266 B( 38-C , 39-C ) :   1.5469
B( 38-C , 72-H ) :   0.9256 B( 39-C , 40-C ) :   1.3184 B( 39-C , 73-H ) :   0.9189
B( 40-C , 55-C ) :   0.9803 B( 41-C , 42-C ) :   1.5478 B( 41-C , 74-H ) :   0.9081
B( 42-C , 43-C ) :   1.2980 B( 42-C , 75-H ) :   0.9201 B( 43-C , 44-C ) :   1.5487
B( 43-C , 76-H ) :   0.9190 B( 44-C , 77-H ) :   0.9277 B( 45-C , 46-C ) :   1.2732
B( 45-C , 50-C ) :   1.2429 B( 46-C , 47-C ) :   1.2277 B( 46-C , 53-C ) :   1.2270
B( 47-C , 48-C ) :   1.5488 B( 47-C , 78-H ) :   0.9255 B( 48-C , 49-C ) :   1.3136
B( 48-C , 79-H ) :   0.9190 B( 49-C , 54-C ) :   0.9801 B( 50-C , 51-C ) :   1.5476
B( 50-C , 80-H ) :   0.9054 B( 51-C , 52-C ) :   1.2983 B( 51-C , 81-H ) :   0.9201
B( 52-C , 53-C ) :   1.5478 B( 52-C , 82-H ) :   0.9191 B( 53-C , 83-H ) :   0.9277
B( 54-C , 84-H ) :   0.9274 B( 54-C , 85-H ) :   0.9009 B( 54-C , 86-H ) :   0.9066
B( 55-C , 87-H ) :   0.9270 B( 55-C , 88-H ) :   0.9023 B( 55-C , 89-H ) :   0.9039

Dispersion correction           -0.086373024
FINAL SINGLE POINT ENERGY     -2123.380550603300

DIPOLE MOMENT
-------------
                                X             Y             Z
Electronic contribution:      0.27392      -0.18748      -0.41624
Nuclear contribution   :     -0.28599       0.19783       0.40479
                        -----------------------------------------
Total Dipole Moment    :     -0.01208       0.01035      -0.01146
                        -----------------------------------------
Magnitude (a.u.)       :      0.01960
Magnitude (Debye)      :      0.04982

                             ****ORCA TERMINATED NORMALLY****
TOTAL RUN TIME: 0 days 1 hours 54 minutes 20 seconds 798 msec
