 Q-Chem 5.1, Q-Chem, Inc., Pleasanton, CA (2018)
 Q-Chem 5.1.1 for Intel X86 EM64T Linux

User input:
--------------------------------------------------------------
$rem
threads 4
jobtype	opt
method PBEh-3c
basis def2-mSVP
mem_static	1024
mem_total	4000
sym_ignore	true
scf_convergence	9
solvent_method	pcm
$end

$molecule
read gsopt.mol
$end

$solvent
dielectric	1.0001
$end

$pcm
theory iefpcm
HeavyPoints 194
HPoints 194
$end
--------------------------------------------------------------

   17   -3629.2543843240      6.35e-10  Convergence criterion met
 Total energy in the final basis set =    -3629.2543843240
   14   -3629.2558326912      5.85e-10  Convergence criterion met
 Total energy in the final basis set =    -3629.2558326912
   14   -3629.2561909155      6.10e-10  Convergence criterion met
 Total energy in the final basis set =    -3629.2561909155
   14   -3629.2548457489      5.39e-10  Convergence criterion met
 Total energy in the final basis set =    -3629.2548457489
   14   -3629.2538068235      5.28e-10  Convergence criterion met
 Total energy in the final basis set =    -3629.2538068235
   14   -3629.2564030265      5.54e-10  Convergence criterion met
 Total energy in the final basis set =    -3629.2564030265
   13   -3629.2562987214      9.73e-10  Convergence criterion met
 Total energy in the final basis set =    -3629.2562987214
   13   -3629.2559063675      8.06e-10  Convergence criterion met
   10   -3629.2566386058      6.03e-10  Convergence criterion met
 Total energy in the final basis set =    -3629.2566386058
   10   -3629.2566353736      6.09e-10  Convergence criterion met
 Total energy in the final basis set =    -3629.2566353736
    9   -3629.2566456685      9.68e-10  Convergence criterion met
 Total energy in the final basis set =    -3629.2566456685
    9   -3629.2566474487      8.80e-10  Convergence criterion met
 Total energy in the final basis set =    -3629.2566474487
    9   -3629.2566504237      5.85e-10  Convergence criterion met
 Total energy in the final basis set =    -3629.2566504237
    9   -3629.2566493899      4.83e-10  Convergence criterion met
 Total energy in the final basis set =    -3629.2566493899

             Standard Nuclear Orientation (Angstroms)
    I     Atom           X                Y                Z
 ----------------------------------------------------------------
    1      N       0.1402578364     0.1631765121     0.2038768799
    2      C       0.0003460925     0.1016484847     1.5863067515
    3      C       1.3280268392    -0.1896426105    -0.4280258135
    4      C       2.4164602159    -0.6629843818     0.3090257360
    5      C       3.5748182239    -1.0067995982    -0.3820265974
    6      H       4.4230879441    -1.3863974671     0.1739196785
    7      C       3.6843250636    -0.8954058556    -1.7558988341
    8      H       4.6016030809    -1.1746584072    -2.2560330654
    9      C       2.5974705618    -0.4235883373    -2.4741125101
   10      H       2.6519263039    -0.3205505366    -3.5505120238
   11      C       1.4323877986    -0.0765415318    -1.8206530688
   12      H       0.5944004417     0.2885743137    -2.3975319037
   13      C       1.0417664714    -0.3700034241     2.3899913768
   14      C       0.8341359453    -0.4223182862     3.7647759518
   15      H       1.6263974096    -0.7986146209     4.4000474467
   16      C      -0.3512325568    -0.0232468433     4.3549117061
   17      H      -0.4744794049    -0.0820582876     5.4276173521
   18      C      -1.3713931451     0.4510387432     3.5462754158
   19      H      -2.3083314255     0.7790294175     3.9784270655
   20      C      -1.2000450673     0.5134050577     2.1783979572
   21      H      -2.0051059221     0.8883416718     1.5620150321
   22      C      -1.0129595211     0.3942226634    -0.5948455686
   23      C      -1.3224192109     1.6671713514    -1.0440169111
   24      H      -0.6775456781     2.4956787605    -0.7734216273
   25      C      -1.8258638867    -0.6735595178    -0.9354126037
   26      H      -1.5704826911    -1.6654771306    -0.5788611680
   27      C      -2.4386457526     1.8777523710    -1.8457677144
   28      C      -2.9507489455    -0.4854504697    -1.7293525599
   29      C      -3.2618153587     0.7984297598    -2.1935035674
   30      C      -3.8307003517    -1.6700557866    -2.0405846251
   31      H      -3.2053105580    -2.5385559864    -2.2637201861
   32      H      -4.4144855103    -1.4875214369    -2.9468198236
   33      C      -2.7019550335     3.2567677289    -2.3921813129
   34      H      -3.7726563843     3.4031220226    -2.5623190873
   35      H      -2.4170714527     4.0063401916    -1.6497755284
   36      C       2.3611755453    -0.8546261245     1.8138620125
   37      C      -4.7793678034    -2.0174995432    -0.8948431613
   38      H      -5.3785869716    -2.8952121621    -1.1385032517
   39      H      -5.4682950176    -1.1985253107    -0.6877644986
   40      H      -4.2301904573    -2.2332999588     0.0223077598
   41      C      -1.9396432184     3.5133694124    -3.6907368074
   42      H      -2.2297033923     2.8046806987    -4.4662877865
   43      H      -2.1365386259     4.5174310701    -4.0674053846
   44      H      -0.8639661775     3.4172556826    -3.5392152082
   45      C       2.5106497358    -2.3550548046     2.1195522878
   46      H       1.6999400157    -2.9245870066     1.6646359015
   47      H       2.4918016707    -2.5448668277     3.1935647038
   48      H       3.4526985313    -2.7468054830     1.7331216033
   49      C       3.5122966182    -0.0700049342     2.4622561231
   50      H       3.4189859466     0.9949017757     2.2509974859
   51      H       3.5237461953    -0.1995002430     3.5445263630
   52      H       4.4814823665    -0.4029116665     2.0903578624
   53      B      -4.5140231007     1.0430775950    -3.1109335258
   54      C      -4.4280056183     0.8306130356    -4.6457394882
   55      C      -3.3145297978     0.2548418448    -5.2252655043
   56      H      -2.4901912913    -0.0044211589    -4.5753421275
   57      C      -3.2198059565    -0.0166788114    -6.6007805984
   58      C      -4.2907015471     0.3632369091    -7.4294414577
   59      C      -5.4001953427     0.9868751043    -6.8391974559
   60      H      -6.2267578368     1.3014261947    -7.4610823025
   61      C      -5.5099281775     1.2045098380    -5.4817417463
   62      C      -2.0614791220    -0.6841164202    -7.1729095897
   63      C      -2.0093937509    -0.9241414742    -8.5569333214
   64      C      -0.8755051653    -1.5730192620    -9.0705342232
   65      H      -0.7957239666    -1.7733280435   -10.1290277821
   66      C       0.1540064091    -1.9795170825    -8.2609499716
   67      H       1.0090910977    -2.4819494784    -8.6974352917
   68      C       0.1078385916    -1.7599682517    -6.8796223224
   69      C      -0.9947865655    -1.1155573339    -6.3678659207
   70      H      -1.0281404810    -0.9538012055    -5.2994359753
   71      C      -4.2475085604     0.0943960417    -8.8582930714
   72      C      -5.3226072567     0.4269178716    -9.7002676067
   73      H      -6.2094148467     0.8879611799    -9.2877363923
   74      C      -5.3135489751     0.1738797500   -11.0529620781
   75      C      -4.1752532217    -0.4335955831   -11.5950633408
   76      H      -4.1337478669    -0.6462314718   -12.6568116348
   77      C      -3.1133307114    -0.7737821097   -10.7965518799
   78      H      -2.2629483328    -1.2481043607   -11.2642263324
   79      C      -3.1180759264    -0.5295034543    -9.4134665830
   80      C      -6.4781297348     0.5302004093   -11.9274637044
   81      H      -7.3300250616     0.8839161961   -11.3478610934
   82      H      -6.2142036067     1.3165191816   -12.6377177970
   83      H      -6.8127928424    -0.3279704480   -12.5118961436
   84      C       1.2270427815    -2.2226660192    -5.9965682211
   85      H       1.0476828924    -1.9748859378    -4.9508539326
   86      H       2.1752912826    -1.7673806590    -6.2876600846
   87      H       1.3583156648    -3.3041328253    -6.0593667237
   88      C      -5.8658448033     1.4982653860    -2.5010071364
   89      C      -6.0603514833     1.5038026007    -1.1348353632
   90      H      -5.2212678227     1.2296755518    -0.5106598941
   91      C      -7.2887602315     1.8372568579    -0.5387851251
   92      C      -8.3324140668     2.2821896493    -1.3680468660
   93      C      -8.1242866476     2.2852555525    -2.7565025298
   94      H      -8.9227659350     2.5941850472    -3.4165585998
   95      C      -6.9430391073     1.8789468687    -3.3406734711
   96      C      -9.5966103941     2.7065114832    -0.7895658973
   97      C     -10.6355544032     3.2074836899    -1.5912666932
   98      H     -10.5006817159     3.2872738941    -2.6611631783
   99      C     -11.8427270595     3.6168792832    -1.0732590446
  100      C     -12.0190576465     3.5349569207     0.3127170397
  101      H     -12.9538302792     3.8572678725     0.7558279432
  102      C     -11.0199559574     3.0534383598     1.1203189059
  103      H     -11.2033447501     3.0178433960     2.1843115593
  104      C      -9.7900411466     2.6212485931     0.5988979648
  105      C      -7.5068463999     1.7020139837     0.8909449165
  106      C      -8.7392422011     2.0831297647     1.4481321156
  107      C      -8.9208351346     1.9036000056     2.8281665112
  108      H      -9.8572886809     2.1751242538     3.2934798784
  109      C      -7.9393625929     1.3679217047     3.6230039064
  110      H      -8.1236135275     1.2387410717     4.6828410665
  111      C      -6.7121647327     0.9735220100     3.0776545489
  112      C      -6.5234535041     1.1504882052     1.7266464653
  113      H      -5.5807002529     0.8282001939     1.3064371230
  114      C     -12.9422702588     4.1236870230    -1.9584636477
  115      H     -12.6006816461     4.2667661813    -2.9834167818
  116      H     -13.3329353058     5.0788462272    -1.6052996524
  117      H     -13.7795130196     3.4233226666    -1.9847406189
  118      C      -5.6458381974     0.3720062931     3.9423222395
  119      H      -4.7959619657     0.0299368621     3.3521806491
  120      H      -5.2738665578     1.0938996397     4.6719045246
  121      H      -6.0237716886    -0.4852868999     4.5009478238
  122      B      -6.8122996434     1.7985140127    -4.8824305776
  123      C      -7.9856233659     2.2515116237    -5.8272874560
  124      C      -8.8686860932     1.3022453356    -6.3591695539
  125      C      -9.8562632797     1.7034675148    -7.2496156818
  126      H     -10.5295475243     0.9728843837    -7.6851813340
  127      C     -10.0007211977     3.0359587561    -7.5908508418
  128      C      -9.1554470448     3.9842942195    -7.0419523957
  129      H      -9.2779057574     5.0258516336    -7.3176019698
  130      C      -8.1394457139     3.6008860871    -6.1745210363
  131      N     -10.9976069182     3.4146915995    -8.5288248209
  132      C     -12.3149113686     3.5464754726    -8.1064804223
  133      C     -10.6433655135     3.5268531450    -9.8687857472
  134      C     -11.6108781056     3.7907975301   -10.8435191635
  135      C     -11.1993060791     3.9042013347   -12.1677013282
  136      H     -11.9410812127     4.1067182590   -12.9304566184
  137      C      -9.8794052204     3.7649095185   -12.5530700779
  138      H      -9.5983556520     3.8641161631   -13.5926453356
  139      C      -8.9315067967     3.4946118289   -11.5804946258
  140      H      -7.8888141501     3.3799608186   -11.8472607541
  141      C      -9.3061707255     3.3704002709   -10.2571781433
  142      H      -8.5478439213     3.1559314689    -9.5180487435
  143      C     -13.3391371972     3.7987462114    -9.0252951536
  144      C     -14.6395901432     3.9164980319    -8.5458043691
  145      H     -15.4404560422     4.1073297813    -9.2498856484
  146      C     -14.9541219970     3.7941773729    -7.2052352056
  147      H     -15.9786638398     3.8886666826    -6.8722131255
  148      C     -13.9309687074     3.5482597026    -6.3045733768
  149      H     -14.1426476353     3.4469263763    -5.2476968645
  150      C     -12.6285416101     3.4277666002    -6.7465319004
  151      H     -11.8455518964     3.2354302803    -6.0270222341
  152      C      -8.8143329057    -0.1490034168    -5.9560094303
  153      H      -8.9387318029    -0.7802739249    -6.8400896413
  154      H      -7.8326319875    -0.4031911018    -5.5488190769
  155      C      -7.1654069342     4.6422057036    -5.6927268924
  156      H      -6.7549755463     4.3624890844    -4.7186525393
  157      H      -7.6885173782     5.5886665105    -5.5345135399
  158      C     -13.0883227947     3.9360679286   -10.5184205477
  159      C      -9.8922741005    -0.4948304403    -4.9306647757
  160      H      -9.7770603066     0.0971931971    -4.0222237210
  161      H      -9.8417800027    -1.5470998594    -4.6500272134
  162      H     -10.8902087636    -0.3027893894    -5.3266417422
  163      C      -6.0278842752     4.8517972686    -6.6906513486
  164      H      -5.4636939920     3.9317746258    -6.8456461723
  165      H      -6.4133288434     5.1700734469    -7.6600228035
  166      H      -5.3313270536     5.6141091860    -6.3405384041
  167      C     -13.8710054050     2.8370016793   -11.2590035916
  168      H     -13.5448316000     1.8470470248   -10.9408363533
  169      H     -13.7284075674     2.9063628708   -12.3380784892
  170      H     -14.9419416626     2.9150799619   -11.0680757695
  171      C     -13.5767739919     5.3173336186   -10.9865214506
  172      H     -14.6401191027     5.4511565598   -10.7864884740
  173      H     -13.4336815352     5.4473646479   -12.0596061813
  174      H     -13.0361066842     6.1141185919   -10.4766879966
 ----------------------------------------------------------------

    9   -3629.2566501872      4.08e-10  Convergence criterion met
 Total energy in the final basis set =    -3629.2566501872
 Final energy is   -3629.25665018718
 **  OPTIMIZATION CONVERGED  **

                    Orbital Energies (a.u.)
 --------------------------------------------------------------

 Alpha MOs
 -- Occupied --
-14.674 -14.672 -10.491 -10.490 -10.489 -10.489 -10.485 -10.485
-10.471 -10.471 -10.471 -10.470 -10.467 -10.467 -10.467 -10.467
-10.467 -10.467 -10.466 -10.466 -10.466 -10.466 -10.463 -10.463
-10.462 -10.461 -10.458 -10.458 -10.458 -10.458 -10.457 -10.456
-10.456 -10.455 -10.454 -10.454 -10.453 -10.453 -10.452 -10.452
-10.451 -10.451 -10.451 -10.451 -10.450 -10.450 -10.448 -10.448
-10.448 -10.447 -10.445 -10.445 -10.445 -10.445 -10.442 -10.442
-10.442 -10.442 -10.441 -10.441 -10.441 -10.441 -10.441 -10.441
-10.440 -10.440 -10.440 -10.440 -10.438 -10.438 -10.438 -10.437
-10.437 -10.437 -10.435 -10.435 -10.435 -10.434 -10.434 -10.434
-10.434 -10.434 -10.434 -10.433 -10.426 -10.425 -10.425 -10.424
-10.424 -10.424 -10.423 -10.423  -6.954  -6.954  -1.087  -1.086
 -1.004  -1.003  -0.973  -0.972  -0.965  -0.964  -0.961  -0.958
 -0.956  -0.956  -0.951  -0.950  -0.909  -0.907  -0.906  -0.905
 -0.897  -0.896  -0.884  -0.881  -0.879  -0.874  -0.870  -0.869
 -0.855  -0.853  -0.848  -0.847  -0.833  -0.833  -0.831  -0.827
 -0.823  -0.821  -0.821  -0.813  -0.813  -0.811  -0.807  -0.807
 -0.800  -0.798  -0.790  -0.789  -0.767  -0.767  -0.759  -0.757
 -0.735  -0.727  -0.722  -0.721  -0.720  -0.720  -0.715  -0.711
 -0.709  -0.706  -0.706  -0.705  -0.692  -0.688  -0.688  -0.684
 -0.673  -0.670  -0.668  -0.668  -0.667  -0.664  -0.641  -0.641
 -0.638  -0.637  -0.626  -0.617  -0.616  -0.614  -0.614  -0.613
 -0.613  -0.610  -0.588  -0.587  -0.584  -0.574  -0.570  -0.567
 -0.563  -0.562  -0.556  -0.547  -0.544  -0.543  -0.537  -0.535
 -0.534  -0.533  -0.531  -0.530  -0.529  -0.522  -0.522  -0.520
 -0.520  -0.518  -0.513  -0.511  -0.507  -0.506  -0.505  -0.503
 -0.501  -0.499  -0.497  -0.497  -0.493  -0.493  -0.493  -0.491
 -0.490  -0.489  -0.489  -0.488  -0.486  -0.485  -0.483  -0.481
 -0.480  -0.479  -0.477  -0.477  -0.477  -0.476  -0.474  -0.474
 -0.473  -0.473  -0.471  -0.468  -0.466  -0.460  -0.457  -0.454
 -0.452  -0.450  -0.449  -0.449  -0.448  -0.445  -0.444  -0.442
 -0.442  -0.440  -0.437  -0.436  -0.435  -0.431  -0.431  -0.430
 -0.427  -0.425  -0.425  -0.424  -0.422  -0.421  -0.420  -0.419
 -0.415  -0.414  -0.413  -0.413  -0.412  -0.412  -0.411  -0.408
 -0.406  -0.406  -0.405  -0.400  -0.399  -0.398  -0.396  -0.395
 -0.392  -0.392  -0.389  -0.388  -0.387  -0.383  -0.378  -0.377
 -0.372  -0.370  -0.370  -0.369  -0.366  -0.365  -0.363  -0.359
 -0.354  -0.349  -0.343  -0.334  -0.332  -0.329  -0.325  -0.323
 -0.297  -0.297  -0.288  -0.286  -0.286  -0.285  -0.282  -0.281
 -0.280  -0.280  -0.279  -0.277  -0.270  -0.256  -0.255  -0.252
 -0.220  -0.219

          Ground-State Mulliken Net Atomic Charges

     Atom                 Charge (a.u.)
  ----------------------------------------
      1 N                    -0.719968
      2 C                     0.311969
      3 C                     0.311932
      4 C                     0.144761
      5 C                    -0.292036
      6 H                     0.206246
      7 C                    -0.226608
      8 H                     0.210302
      9 C                    -0.236478
     10 H                     0.215582
     11 C                    -0.305804
     12 H                     0.248681
     13 C                     0.144497
     14 C                    -0.292650
     15 H                     0.206213
     16 C                    -0.226174
     17 H                     0.210349
     18 C                    -0.236418
     19 H                     0.215455
     20 C                    -0.304064
     21 H                     0.246582
     22 C                     0.192164
     23 C                    -0.313166
     24 H                     0.226346
     25 C                    -0.280620
     26 H                     0.222593
     27 C                     0.065430
     28 C                     0.065198
     29 C                    -0.215602
     30 C                    -0.549578
     31 H                     0.235890
     32 H                     0.254641
     33 C                    -0.558732
     34 H                     0.257423
     35 H                     0.237342
     36 C                    -0.211822
     37 C                    -0.642677
     38 H                     0.224395
     39 H                     0.235073
     40 H                     0.218364
     41 C                    -0.645470
     42 H                     0.244972
     43 H                     0.220725
     44 H                     0.218513
     45 C                    -0.593864
     46 H                     0.230545
     47 H                     0.215976
     48 H                     0.216109
     49 C                    -0.601738
     50 H                     0.236420
     51 H                     0.216062
     52 H                     0.216011
     53 B                     0.651264
     54 C                    -0.108932
     55 C                    -0.425093
     56 H                     0.237227
     57 C                     0.113999
     58 C                     0.113774
     59 C                    -0.424673
     60 H                     0.238161
     61 C                    -0.106024
     62 C                     0.123786
     63 C                     0.083680
     64 C                    -0.305897
     65 H                     0.206743
     66 C                    -0.261514
     67 H                     0.215476
     68 C                     0.144659
     69 C                    -0.391658
     70 H                     0.211708
     71 C                     0.124083
     72 C                    -0.393232
     73 H                     0.212937
     74 C                     0.146549
     75 C                    -0.262539
     76 H                     0.215633
     77 C                    -0.305581
     78 H                     0.206300
     79 C                     0.081935
     80 C                    -0.720329
     81 H                     0.247156
     82 H                     0.231447
     83 H                     0.236377
     84 C                    -0.716877
     85 H                     0.241443
     86 H                     0.231776
     87 H                     0.237404
     88 C                    -0.110431
     89 C                    -0.425096
     90 H                     0.243347
     91 C                     0.114351
     92 C                     0.113686
     93 C                    -0.424602
     94 H                     0.236361
     95 C                    -0.108083
     96 C                     0.122733
     97 C                    -0.388675
     98 H                     0.210569
     99 C                     0.145737
    100 C                    -0.262379
    101 H                     0.215690
    102 C                    -0.305808
    103 H                     0.206934
    104 C                     0.084022
    105 C                     0.116228
    106 C                     0.085513
    107 C                    -0.305940
    108 H                     0.206840
    109 C                    -0.261497
    110 H                     0.215806
    111 C                     0.145200
    112 C                    -0.387767
    113 H                     0.209212
    114 C                    -0.714408
    115 H                     0.235515
    116 H                     0.235740
    117 H                     0.235984
    118 C                    -0.717088
    119 H                     0.237431
    120 H                     0.234515
    121 H                     0.236621
    122 B                     0.657468
    123 C                    -0.225866
    124 C                     0.061229
    125 C                    -0.284900
    126 H                     0.226070
    127 C                     0.193718
    128 C                    -0.305573
    129 H                     0.226413
    130 C                     0.066212
    131 N                    -0.721435
    132 C                     0.314797
    133 C                     0.314372
    134 C                     0.142207
    135 C                    -0.290241
    136 H                     0.206647
    137 C                    -0.228554
    138 H                     0.210576
    139 C                    -0.235120
    140 H                     0.218568
    141 C                    -0.311404
    142 H                     0.249323
    143 C                     0.141185
    144 C                    -0.290147
    145 H                     0.206405
    146 C                    -0.227463
    147 H                     0.210816
    148 C                    -0.232646
    149 H                     0.213864
    150 C                    -0.307039
    151 H                     0.244952
    152 C                    -0.550882
    153 H                     0.236025
    154 H                     0.258161
    155 C                    -0.553794
    156 H                     0.255064
    157 H                     0.235845
    158 C                    -0.211729
    159 C                    -0.639057
    160 H                     0.233582
    161 H                     0.222919
    162 H                     0.219084
    163 C                    -0.646573
    164 H                     0.242392
    165 H                     0.219465
    166 H                     0.221493
    167 C                    -0.595836
    168 H                     0.232707
    169 H                     0.215830
    170 H                     0.215830
    171 C                    -0.598061
    172 H                     0.215855
    173 H                     0.215583
    174 H                     0.234943
  ----------------------------------------
  Sum of atomic charges =     0.000000

                    Cartesian Multipole Moments
 -----------------------------------------------------------------
    Charge (ESU x 10^10)
                 0.0000
    Dipole Moment (Debye)
         X      -0.6721      Y      -1.3007      Z       0.0630
       Tot       1.4655
    Quadrupole Moments (Debye-Ang)
        XX    -509.0023     XY     -13.9280     YY    -553.9747
        XZ     -14.2396     YZ       8.6750     ZZ    -498.0458

 Total job time:  249217.42s(wall), 913256.81s(cpu)
        *  Thank you very much for using Q-Chem.  Have a nice day.  *
