 Q-Chem 5.1, Q-Chem, Inc., Pleasanton, CA (2018)
 Q-Chem 5.1.1 for Intel X86 EM64T Linux

User input:
--------------------------------------------------------------
$rem
threads 4
jobtype	opt
method PBEh-3c
basis def2-mSVP
mem_static	1024
mem_total	4000
sym_ignore	true
scf_convergence	9
solvent_method	pcm
$end

$molecule
read gsopt.mol
$end

$solvent
dielectric	2.38
$end

$pcm
theory iefpcm
HeavyPoints 194
HPoints 194
$end
--------------------------------------------------------------

   16   -3629.2728613385      8.78e-10  Convergence criterion met
 Total energy in the final basis set =    -3629.2728613385
   14   -3629.2742777156      8.08e-10  Convergence criterion met
 Total energy in the final basis set =    -3629.2742777156
   14   -3629.2748404149      8.60e-10  Convergence criterion met
 Total energy in the final basis set =    -3629.2748404149
   14   -3629.2741147204      7.50e-10  Convergence criterion met
 Total energy in the final basis set =    -3629.2741147204
   14   -3629.2733699167      7.69e-10  Convergence criterion met
 Total energy in the final basis set =    -3629.2733699167
   14   -3629.2747250615      7.86e-10  Convergence criterion met
 Total energy in the final basis set =    -3629.2747250615
   14   -3629.2744601724      5.76e-10  Convergence criterion met
 Total energy in the final basis set =    -3629.2744601724
   14   -3629.2739555481      7.00e-10  Convergence criterion met
   14   -3629.2752092935      4.51e-10  Convergence criterion met
 Total energy in the final basis set =    -3629.2752092935
   13   -3629.2752662555      9.71e-10  Convergence criterion met
 Total energy in the final basis set =    -3629.2752662555
   13   -3629.2752907201      9.46e-10  Convergence criterion met
 Total energy in the final basis set =    -3629.2752907201
   13   -3629.2753234981      9.66e-10  Convergence criterion met
 Total energy in the final basis set =    -3629.2753234981
   13   -3629.2753782067      9.98e-10  Convergence criterion met
 Total energy in the final basis set =    -3629.2753782067
   14   -3629.2754110049      4.28e-10  Convergence criterion met
 Total energy in the final basis set =    -3629.2754110049

             Standard Nuclear Orientation (Angstroms)
    I     Atom           X                Y                Z
 ----------------------------------------------------------------
    1      N       0.1385216775     0.1672548969     0.2047427292
    2      C      -0.0001531905     0.1146943430     1.5874854629
    3      C       1.3266535048    -0.1880688793    -0.4249030283
    4      C       2.4197400851    -0.6463892519     0.3157457995
    5      C       3.5793063097    -0.9925106955    -0.3731857448
    6      H       4.4309564357    -1.3599201966     0.1858950746
    7      C       3.6852947934    -0.8983080492    -1.7493837183
    8      H       4.6030857893    -1.1794153429    -2.2479671127
    9      C       2.5936036697    -0.4422327646    -2.4717547718
   10      H       2.6436982216    -0.3552940933    -3.5498566752
   11      C       1.4277556016    -0.0926124413    -1.8196931907
   12      H       0.5869839792     0.2591492891    -2.4009578549
   13      C       1.0458725381    -0.3416233235     2.3951185737
   14      C       0.8395977246    -0.3843312825     3.7709615919
   15      H       1.6357664210    -0.7477436975     4.4089941680
   16      C      -0.3497909830     0.0090539462     4.3586446957
   17      H      -0.4721221373    -0.0422587724     5.4320493699
   18      C      -1.3751329628     0.4676486417     3.5462998208
   19      H      -2.3158236039     0.7890869695     3.9754899573
   20      C      -1.2042806839     0.5207930585     2.1773111751
   21      H      -2.0140424096     0.8830785205     1.5593131407
   22      C      -1.0165898538     0.3897090941    -0.5955824791
   23      C      -1.3262742893     1.6591751129    -1.0549265679
   24      H      -0.6823934302     2.4912159907    -0.7923374574
   25      C      -1.8280708948    -0.6825472361    -0.9262293485
   26      H      -1.5725648999    -1.6719896891    -0.5624221140
   27      C      -2.4429104263     1.8618682764    -1.8587440729
   28      C      -2.9542507793    -0.5011144557    -1.7207756309
   29      C      -3.2660294500     0.7787575099    -2.1955283124
   30      C      -3.8331783341    -1.6887097603    -2.0234002539
   31      H      -3.2078657808    -2.5517166436    -2.2667703963
   32      H      -4.4376515481    -1.5021229953    -2.9152716448
   33      C      -2.7056169898     3.2361161086    -2.4176247823
   34      H      -3.7749195711     3.3789749683    -2.5995323364
   35      H      -2.4286817576     3.9919979570    -1.6787855451
   36      C       2.3708549301    -0.8165002561     1.8233826418
   37      C      -4.7554981538    -2.0514153674    -0.8610183062
   38      H      -5.3624602766    -2.9236913113    -1.1051116739
   39      H      -5.4364399484    -1.2335755422    -0.6241421121
   40      H      -4.1851042278    -2.2834430180     0.0391425640
   41      C      -1.9322852897     3.4848484507    -3.7112994620
   42      H      -2.2124465024     2.7678694456    -4.4830707104
   43      H      -2.1309159655     4.4848437481    -4.0978556937
   44      H      -0.8575654117     3.3951247865    -3.5486412588
   45      C       2.5436146181    -2.3094515381     2.1524567299
   46      H       1.7402843660    -2.8987754823     1.7092501613
   47      H       2.5318049006    -2.4804547281     3.2296861299
   48      H       3.4910997320    -2.6919363215     1.7700997772
   49      C       3.5121134978    -0.0053909174     2.4567684964
   50      H       3.4034689307     1.0550994873     2.2295526499
   51      H       3.5265664521    -0.1193346269     3.5408363388
   52      H       4.4846190765    -0.3314772925     2.0871616554
   53      B      -4.5187108898     1.0159116496    -3.1148628702
   54      C      -4.4287418891     0.8043227247    -4.6502285876
   55      C      -3.3140142677     0.2266919292    -5.2259946620
   56      H      -2.4938263273    -0.0392150505    -4.5735517022
   57      C      -3.2132114451    -0.0392260572    -6.6024689801
   58      C      -4.2788823909     0.3474894622    -7.4352651565
   59      C      -5.3917045131     0.9687566031    -6.8478420357
   60      H      -6.2158891537     1.2834268469    -7.4728440103
   61      C      -5.5067808861     1.1821568868    -5.4898101145
   62      C      -2.0536305828    -0.7086643169    -7.1711089964
   63      C      -1.9977343478    -0.9494706237    -8.5551831855
   64      C      -0.8657178902    -1.6053292607    -9.0655958394
   65      H      -0.7835547842    -1.8083824872   -10.1235486972
   66      C       0.1601091975    -2.0152761624    -8.2520675063
   67      H       1.0137201332    -2.5229364238    -8.6854690456
   68      C       0.1119531373    -1.7914021093    -6.8709197645
   69      C      -0.9899473689    -1.1418862145    -6.3622478168
   70      H      -1.0236447912    -0.9767798659    -5.2943075664
   71      C      -4.2273560233     0.0868754525    -8.8659378999
   72      C      -5.2924514893     0.4363475118    -9.7142801950
   73      H      -6.1762371710     0.9080383719    -9.3069554952
   74      C      -5.2757574138     0.1885842951   -11.0686349632
   75      C      -4.1411878837    -0.4315467776   -11.6052649105
   76      H      -4.0951491648    -0.6417603229   -12.6673336711
   77      C      -3.0877631779    -0.7860122735   -10.8005653333
   78      H      -2.2395576291    -1.2680023210   -11.2645028389
   79      C      -3.0996550256    -0.5453239749    -9.4165162717
   80      C      -6.4262651785     0.5699526770   -11.9510489324
   81      H      -7.2993315143     0.8689074292   -11.3722075452
   82      H      -6.1619967706     1.4043682879   -12.6043403108
   83      H      -6.7240656034    -0.2579013885   -12.5956326117
   84      C       1.2294388554    -2.2526551987    -5.9850031443
   85      H       1.0373242832    -2.0200225565    -4.9381640946
   86      H       2.1739105698    -1.7816462189    -6.2632488381
   87      H       1.3746231243    -3.3313084343    -6.0626926292
   88      C      -5.8739785488     1.4670191186    -2.5081492298
   89      C      -6.0715979732     1.4742258290    -1.1421682703
   90      H      -5.2358935041     1.1969194192    -0.5150747644
   91      C      -7.3002070667     1.8135599615    -0.5489673508
   92      C      -8.3428998970     2.2547920523    -1.3819901459
   93      C      -8.1316590205     2.2557208407    -2.7703809687
   94      H      -8.9286679862     2.5655026592    -3.4317186727
   95      C      -6.9484798725     1.8491339850    -3.3511245473
   96      C      -9.6096401711     2.6787254086    -0.8076048750
   97      C     -10.6502938630     3.1691908368    -1.6144082934
   98      H     -10.5157434445     3.2414528019    -2.6849199370
   99      C     -11.8603711789     3.5765694071    -1.0998484403
  100      C     -12.0381745988     3.5025256315     0.2870031288
  101      H     -12.9752724109     3.8226407611     0.7268933190
  102      C     -11.0374376247     3.0309908291     1.0995092438
  103      H     -11.2232913808     2.9998476593     2.1633661448
  104      C      -9.8040983405     2.6024486157     0.5816457524
  105      C      -7.5174944545     1.6924247973     0.8826916573
  106      C      -8.7506173867     2.0776225281     1.4364415927
  107      C      -8.9300181572     1.9184389824     2.8198669320
  108      H      -9.8653298956     2.1967451649     3.2837508400
  109      C      -7.9451725053     1.3973273960     3.6210420044
  110      H      -8.1268458699     1.2849717782     4.6833070723
  111      C      -6.7172249164     0.9980229275     3.0791896882
  112      C      -6.5305157361     1.1560043822     1.7249486224
  113      H      -5.5856715629     0.8333301231     1.3096422852
  114      C     -12.9615206862     4.0716851079    -1.9896251852
  115      H     -12.6161597697     4.2185733619    -3.0127921170
  116      H     -13.3646387412     5.0213879505    -1.6358713252
  117      H     -13.7903937213     3.3614941813    -2.0189957619
  118      C      -5.6502732871     0.4078837790     3.9506694982
  119      H      -4.7718006963     0.1240359298     3.3717888126
  120      H      -5.3297114489     1.1144160036     4.7183439907
  121      H      -6.0089569749    -0.4851615115     4.4647399372
  122      B      -6.8115035581     1.7753587761    -4.8935381918
  123      C      -7.9817619995     2.2372428382    -5.8380610976
  124      C      -8.8763237297     1.2964345867    -6.3652291599
  125      C      -9.8675832309     1.7077897642    -7.2477845053
  126      H     -10.5495907470     0.9826386293    -7.6791639286
  127      C     -10.0023736222     3.0425043330    -7.5845144403
  128      C      -9.1443441641     3.9833148605    -7.0415361868
  129      H      -9.2585773054     5.0268954612    -7.3136390827
  130      C      -8.1251756127     3.5887479965    -6.1824550963
  131      N     -11.0033277883     3.4322243404    -8.5153600621
  132      C     -12.3159572021     3.5781634005    -8.0842047120
  133      C     -10.6581229273     3.5394443613    -9.8581107345
  134      C     -11.6299780094     3.8134591878   -10.8264155679
  135      C     -11.2268531503     3.9228101660   -12.1541082008
  136      H     -11.9718113588     4.1330491805   -12.9116833013
  137      C      -9.9107047516     3.7684666842   -12.5490825731
  138      H      -9.6361616481     3.8637434254   -13.5909795443
  139      C      -8.9585860829     3.4864171609   -11.5830835765
  140      H      -7.9195705961     3.3570533038   -11.8575493880
  141      C      -9.3253020285     3.3674357880   -10.2564268845
  142      H      -8.5634577304     3.1429790243    -9.5238596957
  143      C     -13.3448059457     3.8397174874    -8.9963416916
  144      C     -14.6411295433     3.9711670466    -8.5079033380
  145      H     -15.4452629923     4.1682061619    -9.2066624256
  146      C     -14.9474390261     3.8543300623    -7.1641146569
  147      H     -15.9688498645     3.9595008980    -6.8240789066
  148      C     -13.9198977457     3.5999552697    -6.2697104695
  149      H     -14.1244654910     3.5035086264    -5.2108388539
  150      C     -12.6214227163     3.4652861334    -6.7212569939
  151      H     -11.8360198912     3.2665638369    -6.0059017925
  152      C      -8.8290498884    -0.1568591885    -5.9682693738
  153      H      -8.9350352511    -0.7836531205    -6.8578247259
  154      H      -7.8556697383    -0.4119240372    -5.5418094014
  155      C      -7.1390700359     4.6205134552    -5.7046178233
  156      H      -6.7173568466     4.3305127118    -4.7382759948
  157      H      -7.6542375490     5.5688114270    -5.5327568670
  158      C     -13.1038339421     3.9721747282   -10.4917424909
  159      C      -9.9275994451    -0.5101719425    -4.9674537503
  160      H      -9.8359527760     0.0805249446    -4.0552758714
  161      H      -9.8770636103    -1.5630050444    -4.6888079975
  162      H     -10.9174417372    -0.3229481875    -5.3858514663
  163      C      -6.0127537767     4.8316672423    -6.7149261057
  164      H      -5.4562005101     3.9094157194    -6.8848074018
  165      H      -6.4085693631     5.1613583553    -7.6764149855
  166      H      -5.3074899504     5.5865161709    -6.3659164244
  167      C     -13.9010411503     2.8786034316   -11.2252578979
  168      H     -13.5827530689     1.8857584401   -10.9071390030
  169      H     -13.7635330221     2.9458151499   -12.3052010366
  170      H     -14.9700263632     2.9689453305   -11.0284704422
  171      C     -13.5850469757     5.3559377176   -10.9601353386
  172      H     -14.6462846521     5.4965147082   -10.7534992955
  173      H     -13.4487265731     5.4804857704   -12.0348025969
  174      H     -13.0352941685     6.1508108613   -10.4564764620
 ----------------------------------------------------------------

   13   -3629.2754118880      9.59e-10  Convergence criterion met
 Total energy in the final basis set =    -3629.2754118880
 Final energy is   -3629.27541188798
 **  OPTIMIZATION CONVERGED  **

                    Orbital Energies (a.u.)
 --------------------------------------------------------------

 Alpha MOs
 -- Occupied --
-14.676 -14.674 -10.492 -10.492 -10.491 -10.491 -10.485 -10.485
-10.471 -10.471 -10.471 -10.470 -10.467 -10.467 -10.467 -10.467
-10.467 -10.467 -10.466 -10.466 -10.466 -10.466 -10.461 -10.461
-10.461 -10.460 -10.457 -10.457 -10.457 -10.457 -10.456 -10.456
-10.455 -10.455 -10.452 -10.452 -10.452 -10.452 -10.450 -10.450
-10.450 -10.450 -10.450 -10.449 -10.449 -10.449 -10.449 -10.449
-10.449 -10.449 -10.444 -10.444 -10.444 -10.443 -10.443 -10.443
-10.443 -10.443 -10.443 -10.443 -10.442 -10.442 -10.439 -10.439
-10.439 -10.439 -10.439 -10.438 -10.438 -10.438 -10.435 -10.435
-10.435 -10.435 -10.435 -10.435 -10.435 -10.434 -10.434 -10.434
-10.433 -10.433 -10.433 -10.432 -10.423 -10.423 -10.423 -10.423
-10.423 -10.422 -10.422 -10.421  -6.954  -6.953  -1.088  -1.087
 -1.003  -1.002  -0.973  -0.972  -0.964  -0.963  -0.961  -0.958
 -0.957  -0.957  -0.951  -0.950  -0.907  -0.907  -0.907  -0.904
 -0.895  -0.894  -0.883  -0.880  -0.878  -0.873  -0.869  -0.868
 -0.852  -0.852  -0.850  -0.849  -0.834  -0.834  -0.830  -0.826
 -0.822  -0.820  -0.820  -0.814  -0.814  -0.810  -0.806  -0.805
 -0.797  -0.796  -0.790  -0.789  -0.767  -0.766  -0.756  -0.755
 -0.734  -0.727  -0.722  -0.720  -0.719  -0.718  -0.715  -0.710
 -0.707  -0.707  -0.706  -0.704  -0.690  -0.688  -0.687  -0.682
 -0.671  -0.669  -0.669  -0.668  -0.666  -0.663  -0.641  -0.641
 -0.635  -0.635  -0.624  -0.616  -0.615  -0.615  -0.614  -0.614
 -0.613  -0.608  -0.587  -0.586  -0.583  -0.573  -0.568  -0.565
 -0.561  -0.560  -0.554  -0.546  -0.543  -0.541  -0.535  -0.535
 -0.534  -0.531  -0.530  -0.529  -0.529  -0.523  -0.522  -0.520
 -0.520  -0.515  -0.511  -0.509  -0.505  -0.504  -0.503  -0.502
 -0.499  -0.498  -0.497  -0.497  -0.492  -0.491  -0.491  -0.490
 -0.488  -0.488  -0.488  -0.487  -0.484  -0.481  -0.480  -0.480
 -0.479  -0.479  -0.478  -0.477  -0.476  -0.475  -0.473  -0.472
 -0.472  -0.471  -0.470  -0.466  -0.465  -0.458  -0.455  -0.450
 -0.450  -0.449  -0.449  -0.448  -0.446  -0.445  -0.444  -0.440
 -0.439  -0.437  -0.436  -0.436  -0.433  -0.430  -0.429  -0.428
 -0.427  -0.425  -0.425  -0.422  -0.421  -0.421  -0.419  -0.418
 -0.415  -0.414  -0.412  -0.411  -0.410  -0.410  -0.410  -0.406
 -0.406  -0.405  -0.403  -0.398  -0.398  -0.396  -0.394  -0.393
 -0.392  -0.391  -0.388  -0.386  -0.385  -0.381  -0.376  -0.376
 -0.372  -0.371  -0.370  -0.369  -0.367  -0.366  -0.363  -0.359
 -0.354  -0.348  -0.342  -0.333  -0.332  -0.329  -0.324  -0.322
 -0.298  -0.298  -0.288  -0.288  -0.288  -0.285  -0.283  -0.282
 -0.281  -0.281  -0.279  -0.277  -0.270  -0.256  -0.255  -0.252
 -0.222  -0.221

          Ground-State Mulliken Net Atomic Charges

     Atom                 Charge (a.u.)
  ----------------------------------------
      1 N                    -0.716919
      2 C                     0.309183
      3 C                     0.308955
      4 C                     0.137515
      5 C                    -0.304282
      6 H                     0.222248
      7 C                    -0.244045
      8 H                     0.224899
      9 C                    -0.248946
     10 H                     0.230638
     11 C                    -0.317509
     12 H                     0.257265
     13 C                     0.137312
     14 C                    -0.304861
     15 H                     0.222422
     16 C                    -0.243493
     17 H                     0.225009
     18 C                    -0.250324
     19 H                     0.231430
     20 C                    -0.316306
     21 H                     0.255365
     22 C                     0.191297
     23 C                    -0.319307
     24 H                     0.237729
     25 C                    -0.290527
     26 H                     0.235260
     27 C                     0.057898
     28 C                     0.061864
     29 C                    -0.215604
     30 C                    -0.550786
     31 H                     0.242253
     32 H                     0.256091
     33 C                    -0.560234
     34 H                     0.259103
     35 H                     0.243989
     36 C                    -0.205696
     37 C                    -0.648866
     38 H                     0.229019
     39 H                     0.233254
     40 H                     0.221495
     41 C                    -0.652337
     42 H                     0.242911
     43 H                     0.225630
     44 H                     0.221362
     45 C                    -0.605971
     46 H                     0.232656
     47 H                     0.222042
     48 H                     0.222121
     49 C                    -0.612654
     50 H                     0.236893
     51 H                     0.222719
     52 H                     0.222553
     53 B                     0.653271
     54 C                    -0.110389
     55 C                    -0.427853
     56 H                     0.244920
     57 C                     0.106927
     58 C                     0.106989
     59 C                    -0.428261
     60 H                     0.245297
     61 C                    -0.106947
     62 C                     0.117313
     63 C                     0.075517
     64 C                    -0.319240
     65 H                     0.225131
     66 C                    -0.271878
     67 H                     0.231123
     68 C                     0.135719
     69 C                    -0.401352
     70 H                     0.226858
     71 C                     0.117150
     72 C                    -0.401820
     73 H                     0.227385
     74 C                     0.137548
     75 C                    -0.273334
     76 H                     0.231247
     77 C                    -0.318916
     78 H                     0.224772
     79 C                     0.074258
     80 C                    -0.723905
     81 H                     0.247027
     82 H                     0.238748
     83 H                     0.241527
     84 C                    -0.721184
     85 H                     0.243628
     86 H                     0.238111
     87 H                     0.242632
     88 C                    -0.111287
     89 C                    -0.428055
     90 H                     0.248910
     91 C                     0.108164
     92 C                     0.106734
     93 C                    -0.426777
     94 H                     0.243784
     95 C                    -0.110373
     96 C                     0.116186
     97 C                    -0.398969
     98 H                     0.226109
     99 C                     0.137520
    100 C                    -0.272693
    101 H                     0.231214
    102 C                    -0.319195
    103 H                     0.224998
    104 C                     0.076230
    105 C                     0.110822
    106 C                     0.077675
    107 C                    -0.319381
    108 H                     0.224997
    109 C                    -0.271647
    110 H                     0.231302
    111 C                     0.136605
    112 C                    -0.397858
    113 H                     0.224121
    114 C                    -0.720922
    115 H                     0.240263
    116 H                     0.241228
    117 H                     0.241608
    118 C                    -0.722110
    119 H                     0.241114
    120 H                     0.239424
    121 H                     0.242930
    122 B                     0.660429
    123 C                    -0.226556
    124 C                     0.058100
    125 C                    -0.293451
    126 H                     0.237893
    127 C                     0.193295
    128 C                    -0.313661
    129 H                     0.238073
    130 C                     0.060791
    131 N                    -0.718572
    132 C                     0.312828
    133 C                     0.311112
    134 C                     0.135355
    135 C                    -0.302749
    136 H                     0.222559
    137 C                    -0.245654
    138 H                     0.225092
    139 C                    -0.247264
    140 H                     0.232597
    141 C                    -0.321521
    142 H                     0.257710
    143 C                     0.133831
    144 C                    -0.302666
    145 H                     0.222472
    146 C                    -0.244722
    147 H                     0.225403
    148 C                    -0.247946
    149 H                     0.230684
    150 C                    -0.319753
    151 H                     0.254011
    152 C                    -0.552398
    153 H                     0.242324
    154 H                     0.259477
    155 C                    -0.555502
    156 H                     0.256697
    157 H                     0.242604
    158 C                    -0.205725
    159 C                    -0.646469
    160 H                     0.232498
    161 H                     0.227693
    162 H                     0.221683
    163 C                    -0.653216
    164 H                     0.240350
    165 H                     0.222015
    166 H                     0.226386
    167 C                    -0.607346
    168 H                     0.234118
    169 H                     0.222223
    170 H                     0.221999
    171 C                    -0.609846
    172 H                     0.222272
    173 H                     0.222158
    174 H                     0.235880
  ----------------------------------------
  Sum of atomic charges =     0.000000

                    Cartesian Multipole Moments
 -----------------------------------------------------------------
    Charge (ESU x 10^10)
                 0.0000
    Dipole Moment (Debye)
         X      -0.6699      Y      -1.4669      Z       0.0471
       Tot       1.6133
    Quadrupole Moments (Debye-Ang)
        XX    -500.4280     XY     -16.0226     YY    -552.1036
        XZ     -13.5346     YZ       9.0135     ZZ    -488.1074

 Total job time:  223517.61s(wall), 824551.72s(cpu)
        *  Thank you very much for using Q-Chem.  Have a nice day.  *
