 Q-Chem 5.1, Q-Chem, Inc., Pleasanton, CA (2018)
 Q-Chem 5.1.1 for Intel X86 EM64T Linux

User input:
--------------------------------------------------------------
$rem
threads 4
jobtype	opt
method PBEh-3c
basis def2-mSVP
mem_static	1024
mem_total	4000
sym_ignore	true
scf_convergence	9
solvent_method	pcm
$end

$molecule
read gsopt.mol
$end

$solvent
dielectric	2.03
$end

$pcm
theory iefpcm
HeavyPoints 194
HPoints 194
$end
--------------------------------------------------------------

   16   -3629.2697753589      9.17e-10  Convergence criterion met
 Total energy in the final basis set =    -3629.2697753589
   14   -3629.2711849698      7.85e-10  Convergence criterion met
 Total energy in the final basis set =    -3629.2711849698
   14   -3629.2717346273      8.39e-10  Convergence criterion met
 Total energy in the final basis set =    -3629.2717346273
   14   -3629.2709219137      7.30e-10  Convergence criterion met
 Total energy in the final basis set =    -3629.2709219137
   14   -3629.2701477197      7.36e-10  Convergence criterion met
 Total energy in the final basis set =    -3629.2701477197
   14   -3629.2715874873      7.84e-10  Convergence criterion met
 Total energy in the final basis set =    -3629.2715874873
   14   -3629.2715253191      5.42e-10  Convergence criterion met
 Total energy in the final basis set =    -3629.2715253191
   14   -3629.2707421761      6.75e-10  Convergence criterion met
   13   -3629.2722345904      8.30e-10  Convergence criterion met
 Total energy in the final basis set =    -3629.2722345904
   13   -3629.2722362209      8.27e-10  Convergence criterion met
 Total energy in the final basis set =    -3629.2722362209
   13   -3629.2722318658      8.41e-10  Convergence criterion met
 Total energy in the final basis set =    -3629.2722318658
   13   -3629.2722307585      8.20e-10  Convergence criterion met
 Total energy in the final basis set =    -3629.2722307585
   13   -3629.2722268743      8.07e-10  Convergence criterion met
 Total energy in the final basis set =    -3629.2722268743
   13   -3629.2722227005      8.06e-10  Convergence criterion met
 Total energy in the final basis set =    -3629.2722227005

             Standard Nuclear Orientation (Angstroms)
    I     Atom           X                Y                Z
 ----------------------------------------------------------------
    1      N       0.1363850621     0.1705829477     0.2106216091
    2      C      -0.0087363095     0.1194221529     1.5927683402
    3      C       1.3271742292    -0.1855182204    -0.4133728117
    4      C       2.4156119621    -0.6466145470     0.3323269370
    5      C       3.5775565850    -0.9947685978    -0.3513062483
    6      H       4.4255122020    -1.3649954727     0.2114489155
    7      C       3.6905972017    -0.8993241826    -1.7267307864
    8      H       4.6102186350    -1.1819028835    -2.2210300731
    9      C       2.6037066154    -0.4398759846    -2.4539284874
   10      H       2.6597562156    -0.3513821204    -3.5316213437
   11      C       1.4353862417    -0.0886547789    -1.8073961850
   12      H       0.5980689441     0.2655989519    -2.3920927282
   13      C       1.0325221129    -0.3390081095     2.4051891422
   14      C       0.8199672995    -0.3805207594     3.7800122145
   15      H       1.6122864860    -0.7458364352     4.4217313015
   16      C      -0.3708157772     0.0162970682     4.3622312761
   17      H      -0.4979874272    -0.0340074126     5.4350904032
   18      C      -1.3912876680     0.4770242135     3.5451607267
   19      H      -2.3327871491     0.8017161828     3.9700606929
   20      C      -1.2144470118     0.5286819289     2.1769789664
   21      H      -2.0203977542     0.8928550811     1.5551703074
   22      C      -1.0145699921     0.3947955553    -0.5948549719
   23      C      -1.3219058305     1.6647414739    -1.0544370580
   24      H      -0.6784053383     2.4960939272    -0.7888777199
   25      C      -1.8255250371    -0.6765399551    -0.9295006562
   26      H      -1.5714851152    -1.6663315294    -0.5656922304
   27      C      -2.4359631505     1.8687548513    -1.8612737461
   28      C      -2.9491095972    -0.4939653172    -1.7273891182
   29      C      -3.2589779033     0.7866053409    -2.2014390874
   30      C      -3.8277749471    -1.6810039897    -2.0330977865
   31      H      -3.2019570829    -2.5443166479    -2.2741617452
   32      H      -4.4287489704    -1.4941784852    -2.9272207181
   33      C      -2.6969228904     3.2434677264    -2.4197761875
   34      H      -3.7663320889     3.3882410554    -2.5995751351
   35      H      -2.4173004287     3.9989574332    -1.6815260683
   36      C       2.3584706407    -0.8181406924     1.8395517232
   37      C      -4.7545064325    -2.0433804261    -0.8740906214
   38      H      -5.3600955035    -2.9161471892    -1.1198239154
   39      H      -5.4370584792    -1.2259533643    -0.6406046839
   40      H      -4.1876551654    -2.2744806467     0.0285412942
   41      C      -1.9254254738     3.4904701532    -3.7148476874
   42      H      -2.2079025775     2.7737170223    -4.4859349927
   43      H      -2.1230847719     4.4905754721    -4.1015993692
   44      H      -0.8505863373     3.3991547300    -3.5539815146
   45      C       2.5236101188    -2.3121879278     2.1677350937
   46      H       1.7203097742    -2.8977336345     1.7196024276
   47      H       2.5053085237    -2.4847023778     3.2446565143
   48      H       3.4714452822    -2.6982391502     1.7898366503
   49      C       3.4995798144    -0.0122037311     2.4797587047
   50      H       3.3956480853     1.0490043813     2.2539868452
   51      H       3.5087602743    -0.1279440508     3.5636856632
   52      H       4.4727464835    -0.3407867236     2.1141735618
   53      B      -4.5123612169     1.0258028802    -3.1191484609
   54      C      -4.4272827846     0.8142488975    -4.6547303272
   55      C      -3.3145648082     0.2370845659    -5.2349036656
   56      H      -2.4906923090    -0.0258597516    -4.5858692756
   57      C      -3.2204762021    -0.0322246099    -6.6112191029
   58      C      -4.2920833859     0.3485692292    -7.4389491150
   59      C      -5.4011780607     0.9726642590    -6.8478236467
   60      H      -6.2277402246     1.2871790576    -7.4697231740
   61      C      -5.5092379490     1.1903049368    -5.4900235059
   62      C      -2.0617080289    -0.6983784974    -7.1851808936
   63      C      -2.0124713028    -0.9408869706    -8.5691962386
   64      C      -0.8792382385    -1.5900349791    -9.0851361031
   65      H      -0.8017979562    -1.7930044004   -10.1434360098
   66      C       0.1534367319    -1.9931226950    -8.2770555658
   67      H       1.0079040302    -2.4955677771    -8.7148153470
   68      C       0.1112064510    -1.7691292504    -6.8958152639
   69      C      -0.9914072407    -1.1252605065    -6.3818413438
   70      H      -1.0207013407    -0.9595337737    -5.3138706148
   71      C      -4.2504443503     0.0798529110    -8.8682939541
   72      C      -5.3258209321     0.4149049749    -9.7094723832
   73      H      -6.2108751567     0.8794320058    -9.2968345290
   74      C      -5.3183537772     0.1602518641   -11.0624503112
   75      C      -4.1821476310    -0.4514279855   -11.6053885169
   76      H      -4.1425477043    -0.6658952038   -12.6668823145
   77      C      -3.1196309147    -0.7933601740   -10.8075473590
   78      H      -2.2710717003    -1.2704891718   -11.2758826682
   79      C      -3.1226497150    -0.5468182139    -9.4244528660
   80      C      -6.4819947798     0.5205162799   -11.9365204062
   81      H      -7.3369800513     0.8614668338   -11.3539172591
   82      H      -6.2196191245     1.3177230487   -12.6351688239
   83      H      -6.8083400228    -0.3321037473   -12.5335387880
   84      C       1.2347981283    -2.2260223902    -6.0153564586
   85      H       1.0561549528    -1.9766335307    -4.9699483303
   86      H       2.1800637727    -1.7674814447    -6.3109011923
   87      H       1.3698920601    -3.3070358391    -6.0778162518
   88      C      -5.8656570001     1.4770888225    -2.5081654662
   89      C      -6.0601591397     1.4798763833    -1.1417328306
   90      H      -5.2226131386     1.2022237220    -0.5172156087
   91      C      -7.2881512377     1.8147426717    -0.5449685731
   92      C      -8.3321499934     2.2605937974    -1.3737461541
   93      C      -8.1239569905     2.2666936747    -2.7625170974
   94      H      -8.9221848840     2.5788086713    -3.4213152039
   95      C      -6.9424805339     1.8608945071    -3.3472117921
   96      C      -9.5970574966     2.6833461198    -0.7946864421
   97      C     -10.6374940176     3.1821665308    -1.5964658163
   98      H     -10.5041098873     3.2614746476    -2.6666135556
   99      C     -11.8454964398     3.5895343973    -1.0773450854
  100      C     -12.0211840788     3.5071170419     0.3092209462
  101      H     -12.9564729580     3.8274905391     0.7527549817
  102      C     -11.0206347095     3.0272653096     1.1168686312
  103      H     -11.2042914540     2.9905966444     2.1809328684
  104      C      -9.7897298704     2.5978726488     0.5941838348
  105      C      -7.5043884985     1.6819721205     0.8856972259
  106      C      -8.7369719584     2.0629065716     1.4434270242
  107      C      -8.9172278960     1.8875735212     2.8246103244
  108      H      -9.8532770627     2.1596961524     3.2905936118
  109      C      -7.9334646943     1.3558799137     3.6200904374
  110      H      -8.1162725357     1.2298810577     4.6806053955
  111      C      -6.7055503684     0.9622751442     3.0744111501
  112      C      -6.5182641230     1.1352840894     1.7221194150
  113      H      -5.5742978889     0.8149404895     1.3029442739
  114      C     -12.9465033929     4.0942233768    -1.9618774323
  115      H     -12.6045422885     4.2390387612    -2.9864566106
  116      H     -13.3401151757     5.0472014733    -1.6061308457
  117      H     -13.7814100924     3.3910530853    -1.9881019321
  118      C      -5.6370718559     0.3664036041     3.9402738998
  119      H      -4.7866972874     0.0257527846     3.3501421655
  120      H      -5.2679422748     1.0917840564     4.6678242233
  121      H      -6.0134496375    -0.4897714521     4.5016663808
  122      B      -6.8109007503     1.7862014757    -4.8896154146
  123      C      -7.9825419695     2.2470464441    -5.8329361284
  124      C      -8.8751723385     1.3042281123    -6.3601282590
  125      C      -9.8638738559     1.7126480028    -7.2466916449
  126      H     -10.5442489186     0.9862053407    -7.6784406998
  127      C      -9.9986826212     3.0463999876    -7.5874352856
  128      C      -9.1436665743     3.9891437869    -7.0433665792
  129      H      -9.2582138100     5.0319384663    -7.3182569407
  130      C      -8.1267066842     3.5975561074    -6.1802871106
  131      N     -10.9967539978     3.4324610111    -8.5225629289
  132      C     -12.3114008234     3.5752757148    -8.0962621381
  133      C     -10.6467219334     3.5400966442    -9.8639565777
  134      C     -11.6157733788     3.8102060679   -10.8360867257
  135      C     -11.2080648048     3.9192093722   -12.1622789242
  136      H     -11.9509605033     4.1263585402   -12.9227386003
  137      C      -9.8900964551     3.7686092917   -12.5522677200
  138      H      -9.6120534594     3.8636597240   -13.5932238872
  139      C      -8.9406513416     3.4910008738   -11.5824788204
  140      H      -7.9000907596     3.3651946295   -11.8527733396
  141      C      -9.3118910095     3.3721835812   -10.2571841156
  142      H      -8.5520605086     3.1514888803    -9.5213853361
  143      C     -13.3374539457     3.8331987984    -9.0123060047
  144      C     -14.6358804960     3.9612705164    -8.5287757380
  145      H     -15.4379163427     4.1556802678    -9.2306325930
  146      C     -14.9467973863     3.8443249713    -7.1862086865
  147      H     -15.9696991756     3.9467670523    -6.8499360527
  148      C     -13.9219207419     3.5934153599    -6.2879688668
  149      H     -14.1303027589     3.4967850417    -5.2298934946
  150      C     -12.6214653847     3.4623286388    -6.7345032640
  151      H     -11.8380572408     3.2662205573    -6.0163150895
  152      C      -8.8284767197    -0.1479792781    -5.9591284577
  153      H      -8.9370301760    -0.7772144566    -6.8466679400
  154      H      -7.8545338339    -0.4030793855    -5.5340611706
  155      C      -7.1428940418     4.6312775042    -5.7019684094
  156      H      -6.7248613419     4.3443767447    -4.7331345856
  157      H      -7.6592194873     5.5798287630    -5.5348948524
  158      C     -13.0912767438     3.9653153128   -10.5067932068
  159      C      -9.9249939942    -0.4967747110    -4.9545135973
  160      H      -9.8284867859     0.0950115189    -4.0435657289
  161      H      -9.8766427405    -1.5492631601    -4.6742214589
  162      H     -10.9156225705    -0.3072230806    -5.3698894300
  163      C      -6.0128676584     4.8397508584    -6.7087008492
  164      H      -5.4563526788     3.9168095127    -6.8747352640
  165      H      -6.4049894672     5.1676076329    -7.6723044012
  166      H      -5.3083283048     5.5948833226    -6.3588812912
  167      C     -13.8830450806     2.8692094480   -11.2423173845
  168      H     -13.5625780891     1.8775471122   -10.9228714438
  169      H     -13.7426589235     2.9362255167   -12.3218885159
  170      H     -14.9528821496     2.9560306539   -11.0486579832
  171      C     -13.5739627866     5.3477772154   -10.9775056749
  172      H     -14.6362089859     5.4863751344   -10.7747538631
  173      H     -13.4338473520     5.4725660117   -12.0516444423
  174      H     -13.0277913692     6.1438833853   -10.4720019424
 ----------------------------------------------------------------

   13   -3629.2722214725      7.92e-10  Convergence criterion met
 Total energy in the final basis set =    -3629.2722214725
 Final energy is   -3629.27222147249
 **  OPTIMIZATION CONVERGED  **

                    Orbital Energies (a.u.)
 --------------------------------------------------------------

 Alpha MOs
 -- Occupied --
-14.675 -14.674 -10.492 -10.492 -10.491 -10.491 -10.485 -10.485
-10.471 -10.471 -10.470 -10.470 -10.467 -10.467 -10.467 -10.466
-10.466 -10.466 -10.466 -10.466 -10.466 -10.465 -10.461 -10.461
-10.460 -10.460 -10.457 -10.457 -10.457 -10.457 -10.456 -10.456
-10.455 -10.454 -10.453 -10.452 -10.452 -10.452 -10.450 -10.450
-10.449 -10.449 -10.449 -10.449 -10.449 -10.449 -10.449 -10.449
-10.449 -10.449 -10.444 -10.444 -10.444 -10.443 -10.443 -10.442
-10.442 -10.442 -10.442 -10.442 -10.442 -10.442 -10.439 -10.439
-10.439 -10.438 -10.438 -10.438 -10.438 -10.438 -10.435 -10.435
-10.435 -10.435 -10.435 -10.435 -10.435 -10.435 -10.434 -10.434
-10.434 -10.433 -10.433 -10.432 -10.423 -10.423 -10.423 -10.423
-10.422 -10.422 -10.422 -10.421  -6.954  -6.953  -1.088  -1.087
 -1.003  -1.002  -0.972  -0.972  -0.964  -0.963  -0.961  -0.957
 -0.957  -0.957  -0.951  -0.950  -0.907  -0.907  -0.907  -0.904
 -0.895  -0.894  -0.882  -0.880  -0.878  -0.873  -0.869  -0.868
 -0.852  -0.852  -0.849  -0.849  -0.834  -0.834  -0.829  -0.826
 -0.822  -0.820  -0.820  -0.814  -0.814  -0.810  -0.806  -0.805
 -0.797  -0.796  -0.790  -0.789  -0.767  -0.766  -0.756  -0.755
 -0.734  -0.727  -0.722  -0.720  -0.719  -0.718  -0.715  -0.710
 -0.707  -0.706  -0.706  -0.704  -0.690  -0.688  -0.686  -0.682
 -0.671  -0.668  -0.668  -0.668  -0.666  -0.662  -0.641  -0.641
 -0.636  -0.636  -0.624  -0.616  -0.615  -0.614  -0.614  -0.614
 -0.613  -0.608  -0.587  -0.586  -0.583  -0.572  -0.568  -0.565
 -0.561  -0.560  -0.554  -0.546  -0.543  -0.541  -0.535  -0.535
 -0.534  -0.531  -0.530  -0.529  -0.529  -0.522  -0.522  -0.520
 -0.519  -0.515  -0.511  -0.509  -0.505  -0.504  -0.503  -0.501
 -0.499  -0.498  -0.497  -0.497  -0.492  -0.491  -0.491  -0.489
 -0.489  -0.488  -0.488  -0.487  -0.484  -0.481  -0.480  -0.479
 -0.479  -0.479  -0.477  -0.477  -0.476  -0.475  -0.473  -0.472
 -0.472  -0.471  -0.470  -0.466  -0.465  -0.458  -0.455  -0.451
 -0.450  -0.449  -0.449  -0.448  -0.446  -0.445  -0.444  -0.440
 -0.439  -0.437  -0.436  -0.436  -0.434  -0.430  -0.429  -0.428
 -0.427  -0.425  -0.425  -0.422  -0.421  -0.421  -0.419  -0.418
 -0.414  -0.414  -0.412  -0.411  -0.410  -0.410  -0.410  -0.406
 -0.406  -0.405  -0.403  -0.398  -0.398  -0.396  -0.394  -0.393
 -0.391  -0.391  -0.388  -0.386  -0.385  -0.381  -0.376  -0.376
 -0.371  -0.371  -0.370  -0.368  -0.366  -0.366  -0.363  -0.359
 -0.354  -0.348  -0.342  -0.333  -0.332  -0.329  -0.324  -0.322
 -0.298  -0.298  -0.288  -0.287  -0.287  -0.285  -0.282  -0.282
 -0.281  -0.280  -0.279  -0.277  -0.269  -0.256  -0.255  -0.252
 -0.221  -0.221

          Ground-State Mulliken Net Atomic Charges

     Atom                 Charge (a.u.)
  ----------------------------------------
      1 N                    -0.717492
      2 C                     0.309670
      3 C                     0.309534
      4 C                     0.138890
      5 C                    -0.302272
      6 H                     0.219447
      7 C                    -0.241054
      8 H                     0.222500
      9 C                    -0.246961
     10 H                     0.227833
     11 C                    -0.315414
     12 H                     0.255800
     13 C                     0.138733
     14 C                    -0.302796
     15 H                     0.219590
     16 C                    -0.240920
     17 H                     0.222526
     18 C                    -0.248103
     19 H                     0.228995
     20 C                    -0.314372
     21 H                     0.254091
     22 C                     0.191363
     23 C                    -0.318502
     24 H                     0.235996
     25 C                    -0.288934
     26 H                     0.233271
     27 C                     0.059266
     28 C                     0.062269
     29 C                    -0.215511
     30 C                    -0.550731
     31 H                     0.241292
     32 H                     0.256004
     33 C                    -0.559944
     34 H                     0.258845
     35 H                     0.242879
     36 C                    -0.206788
     37 C                    -0.648012
     38 H                     0.228401
     39 H                     0.233701
     40 H                     0.220839
     41 C                    -0.651256
     42 H                     0.243330
     43 H                     0.224853
     44 H                     0.220844
     45 C                    -0.603946
     46 H                     0.232489
     47 H                     0.220917
     48 H                     0.221015
     49 C                    -0.610862
     50 H                     0.237055
     51 H                     0.221483
     52 H                     0.221381
     53 B                     0.652911
     54 C                    -0.109963
     55 C                    -0.427731
     56 H                     0.243525
     57 C                     0.108400
     58 C                     0.108091
     59 C                    -0.427022
     60 H                     0.243979
     61 C                    -0.107150
     62 C                     0.118388
     63 C                     0.077063
     64 C                    -0.317028
     65 H                     0.221987
     66 C                    -0.270241
     67 H                     0.228497
     68 C                     0.137291
     69 C                    -0.399713
     70 H                     0.224263
     71 C                     0.118427
     72 C                    -0.400732
     73 H                     0.224993
     74 C                     0.138933
     75 C                    -0.271373
     76 H                     0.228653
     77 C                    -0.316769
     78 H                     0.221610
     79 C                     0.075526
     80 C                    -0.723413
     81 H                     0.247335
     82 H                     0.236991
     83 H                     0.241065
     84 C                    -0.720472
     85 H                     0.242918
     86 H                     0.236999
     87 H                     0.242054
     88 C                    -0.111292
     89 C                    -0.427303
     90 H                     0.248160
     91 C                     0.109242
     92 C                     0.107894
     93 C                    -0.426361
     94 H                     0.242398
     95 C                    -0.109996
     96 C                     0.117364
     97 C                    -0.397131
     98 H                     0.223435
     99 C                     0.138676
    100 C                    -0.271053
    101 H                     0.228614
    102 C                    -0.316896
    103 H                     0.221909
    104 C                     0.077660
    105 C                     0.111565
    106 C                     0.079046
    107 C                    -0.316989
    108 H                     0.221864
    109 C                    -0.270255
    110 H                     0.228706
    111 C                     0.138071
    112 C                    -0.395915
    113 H                     0.221480
    114 C                    -0.719473
    115 H                     0.239224
    116 H                     0.240386
    117 H                     0.240656
    118 C                    -0.721393
    119 H                     0.240707
    120 H                     0.239089
    121 H                     0.241339
    122 B                     0.659925
    123 C                    -0.226335
    124 C                     0.058180
    125 C                    -0.292201
    126 H                     0.236110
    127 C                     0.193400
    128 C                    -0.312444
    129 H                     0.236326
    130 C                     0.061666
    131 N                    -0.719019
    132 C                     0.312941
    133 C                     0.311707
    134 C                     0.136551
    135 C                    -0.300627
    136 H                     0.219785
    137 C                    -0.242995
    138 H                     0.222694
    139 C                    -0.245060
    140 H                     0.230313
    141 C                    -0.319991
    142 H                     0.256396
    143 C                     0.135284
    144 C                    -0.300569
    145 H                     0.219686
    146 C                    -0.241999
    147 H                     0.222992
    148 C                    -0.245191
    149 H                     0.227544
    150 C                    -0.317365
    151 H                     0.252624
    152 C                    -0.552023
    153 H                     0.241260
    154 H                     0.259455
    155 C                    -0.555281
    156 H                     0.256421
    157 H                     0.241467
    158 C                    -0.206774
    159 C                    -0.645185
    160 H                     0.232701
    161 H                     0.226963
    162 H                     0.221220
    163 C                    -0.652247
    164 H                     0.240909
    165 H                     0.221603
    166 H                     0.225565
    167 C                    -0.605450
    168 H                     0.234067
    169 H                     0.221042
    170 H                     0.220889
    171 C                    -0.607891
    172 H                     0.221098
    173 H                     0.220959
    174 H                     0.235953
  ----------------------------------------
  Sum of atomic charges =     0.000000

                    Cartesian Multipole Moments
 -----------------------------------------------------------------
    Charge (ESU x 10^10)
                 0.0000
    Dipole Moment (Debye)
         X      -0.6878      Y      -1.4557      Z       0.0491
       Tot       1.6108
    Quadrupole Moments (Debye-Ang)
        XX    -501.8660     XY     -15.3963     YY    -552.4391
        XZ     -13.6017     YZ       9.1478     ZZ    -490.0568

 Total job time:  254654.93s(wall), 960141.71s(cpu)
        *  Thank you very much for using Q-Chem.  Have a nice day.  *
