 Q-Chem 5.1, Q-Chem, Inc., Pleasanton, CA (2018)
 Q-Chem 5.1.1 for Intel X86 EM64T Linux

User input:
--------------------------------------------------------------
$rem
threads 4
jobtype	opt
method PBEh-3c
basis def2-mSVP
mem_static	1024
mem_total	4000
sym_ignore	true
scf_convergence	9
solvent_method	pcm
$end

$molecule
read gsopt.mol
$end

$solvent
dielectric	4.33
$end

$pcm
theory iefpcm
HeavyPoints 194
HPoints 194
$end
--------------------------------------------------------------

   16   -3629.2827052928      7.62e-10  Convergence criterion met
 Total energy in the final basis set =    -3629.2827052928
   14   -3629.2841799172      8.50e-10  Convergence criterion met
 Total energy in the final basis set =    -3629.2841799172
   14   -3629.2847597474      8.86e-10  Convergence criterion met
 Total energy in the final basis set =    -3629.2847597474
   14   -3629.2842878205      8.22e-10  Convergence criterion met
 Total energy in the final basis set =    -3629.2842878205
   14   -3629.2835063737      8.33e-10  Convergence criterion met
 Total energy in the final basis set =    -3629.2835063737
   14   -3629.2839614126      7.05e-10  Convergence criterion met
 Total energy in the final basis set =    -3629.2839614126
   14   -3629.2851971983      6.87e-10  Convergence criterion met
 Total energy in the final basis set =    -3629.2851971983
   14   -3629.2848114155      6.82e-10  Convergence criterion met
   14   -3629.2853209434      5.37e-10  Convergence criterion met
 Total energy in the final basis set =    -3629.2853209434
   14   -3629.2853635983      5.30e-10  Convergence criterion met
 Total energy in the final basis set =    -3629.2853635983
   14   -3629.2854036149      5.34e-10  Convergence criterion met
 Total energy in the final basis set =    -3629.2854036149
   14   -3629.2854567260      5.37e-10  Convergence criterion met
 Total energy in the final basis set =    -3629.2854567260
   14   -3629.2854518841      5.26e-10  Convergence criterion met
 Total energy in the final basis set =    -3629.2854518841
   14   -3629.2854422381      5.27e-10  Convergence criterion met
 Total energy in the final basis set =    -3629.2854422381

             Standard Nuclear Orientation (Angstroms)
    I     Atom           X                Y                Z
 ----------------------------------------------------------------
    1      N       0.1377043049     0.1684176383     0.2065838057
    2      C      -0.0016696277     0.1232137389     1.5895002718
    3      C       1.3269123896    -0.1880458140    -0.4202554280
    4      C       2.4215165109    -0.6380608203     0.3239607676
    5      C       3.5824414443    -0.9861243760    -0.3622883058
    6      H       4.4349672868    -1.3475382819     0.1993811719
    7      C       3.6882233171    -0.9017534173    -1.7395571267
    8      H       4.6067927760    -1.1843843456    -2.2360222717
    9      C       2.5949919581    -0.4543857052    -2.4656495545
   10      H       2.6442421899    -0.3768027352    -3.5445313409
   11      C       1.4278827160    -0.1029876479    -1.8160284795
   12      H       0.5862277689     0.2407183742    -2.4009168109
   13      C       1.0459633407    -0.3242086173     2.4006256937
   14      C       0.8396250562    -0.3591424260     3.7769835903
   15      H       1.6370042336    -0.7155756860     4.4175061787
   16      C      -0.3519028862     0.0333030846     4.3619159629
   17      H      -0.4744903653    -0.0119790034     5.4356441555
   18      C      -1.3792403987     0.4824659816     3.5462079380
   19      H      -2.3219259117     0.8016524203     3.9727547581
   20      C      -1.2079963898     0.5278667431     2.1766103140
   21      H      -2.0200311789     0.8822670728     1.5569341784
   22      C      -1.0167886453     0.3886860996    -0.5959201642
   23      C      -1.3243790651     1.6569018971    -1.0605182102
   24      H      -0.6801213437     2.4898716964    -0.8015694569
   25      C      -1.8287919670    -0.6844619594    -0.9226225784
   26      H      -1.5748440187    -1.6731575629    -0.5554913159
   27      C      -2.4403426908     1.8572881562    -1.8659670118
   28      C      -2.9548633484    -0.5047033534    -1.7181200404
   29      C      -3.2649426112     0.7736719637    -2.1978850586
   30      C      -3.8343900376    -1.6927369645    -2.0172429512
   31      H      -3.2099955732    -2.5525889686    -2.2736389771
   32      H      -4.4505718871    -1.5021446135    -2.9002916808
   33      C      -2.7008895016     3.2292729359    -2.4315723470
   34      H      -3.7694072017     3.3719210896    -2.6186233977
   35      H      -2.4258172870     3.9884846219    -1.6955512637
   36      C       2.3731204422    -0.7975234064     1.8328410841
   37      C      -4.7410697181    -2.0652856637    -0.8457979790
   38      H      -5.3541512934    -2.9329237608    -1.0912537873
   39      H      -5.4152756531    -1.2476276975    -0.5893270963
   40      H      -4.1582367130    -2.3094942103     0.0431166155
   41      C      -1.9227884827     3.4718596900    -3.7235918690
   42      H      -2.1982052881     2.7491051185    -4.4917831247
   43      H      -2.1225696711     4.4690409692    -4.1168240131
   44      H      -0.8485488672     3.3858227809    -3.5556642322
   45      C       2.5522022884    -2.2872908132     2.1730920526
   46      H       1.7515123075    -2.8835902525     1.7340803071
   47      H       2.5413215702    -2.4492891005     3.2517187473
   48      H       3.5018504102    -2.6677769226     1.7941414092
   49      C       3.5109622020     0.0223909947     2.4611383399
   50      H       3.3985535913     1.0811744848     2.2269390214
   51      H       3.5250473765    -0.0850180493     3.5459003267
   52      H       4.4845926632    -0.3030941453     2.0939938225
   53      B      -4.5178285148     1.0079751447    -3.1177255667
   54      C      -4.4268164636     0.7960041397    -4.6535605034
   55      C      -3.3122547030     0.2165835132    -5.2283725021
   56      H      -2.4930390058    -0.0515981130    -4.5755986153
   57      C      -3.2106693377    -0.0485845842    -6.6052161846
   58      C      -4.2755417054     0.3393754216    -7.4387650789
   59      C      -5.3883428131     0.9618239614    -6.8522131079
   60      H      -6.2115620457     1.2772756542    -7.4781062471
   61      C      -5.5037110136     1.1753465259    -5.4940983295
   62      C      -2.0507533500    -0.7182761825    -7.1737890730
   63      C      -1.9950883493    -0.9600813619    -8.5579790427
   64      C      -0.8628744479    -1.6159002963    -9.0688467212
   65      H      -0.7805287150    -1.8194105262   -10.1267545558
   66      C       0.1636195284    -2.0247812108    -8.2550994331
   67      H       1.0174047840    -2.5320755406    -8.6885726010
   68      C       0.1159653317    -1.7995468208    -6.8738285951
   69      C      -0.9861647701    -1.1498837194    -6.3647789515
   70      H      -1.0186053713    -0.9829523580    -5.2970662823
   71      C      -4.2237424653     0.0787110578    -8.8696633784
   72      C      -5.2880527533     0.4302956935    -9.7184760230
   73      H      -6.1707251372     0.9051066159    -9.3122811021
   74      C      -5.2712533194     0.1813917752   -11.0730032489
   75      C      -4.1377741964    -0.4418811517   -11.6091380404
   76      H      -4.0920148343    -0.6534328846   -12.6709558234
   77      C      -3.0849542568    -0.7981263130   -10.8038663559
   78      H      -2.2379014581    -1.2825264727   -11.2675413274
   79      C      -3.0968876114    -0.5558704336    -9.4197643846
   80      C      -6.4214065130     0.5635881764   -11.9554511840
   81      H      -7.2895879470     0.8739130906   -11.3753024995
   82      H      -6.1530593540     1.3902659921   -12.6167147090
   83      H      -6.7264512245    -0.2679594875   -12.5918939474
   84      C       1.2337331609    -2.2603495761    -5.9881286613
   85      H       1.0486641164    -2.0124502526    -4.9435677712
   86      H       2.1810817663    -1.8023727553    -6.2777184224
   87      H       1.3678108224    -3.3412808254    -6.0539318643
   88      C      -5.8749583045     1.4567558013    -2.5121156280
   89      C      -6.0750119808     1.4614262787    -1.1462149340
   90      H      -5.2409077122     1.1831373717    -0.5174382333
   91      C      -7.3055617198     1.7981136380    -0.5548087344
   92      C      -8.3481864452     2.2373728302    -1.3893887583
   93      C      -8.1337242555     2.2428727229    -2.7774496915
   94      H      -8.9297786754     2.5538036870    -3.4393352930
   95      C      -6.9483272055     1.8395840910    -3.3563628755
   96      C      -9.6184238760     2.6549815932    -0.8174160926
   97      C     -10.6598917096     3.1414330481    -1.6263343470
   98      H     -10.5246966796     3.2143323972    -2.6967396040
   99      C     -11.8729397386     3.5429785788    -1.1133729667
  100      C     -12.0534375166     3.4661814330     0.2734358414
  101      H     -12.9929794761     3.7812602361     0.7117794460
  102      C     -11.0524486132     2.9976305288     1.0877329685
  103      H     -11.2411362708     2.9636375950     2.1510675258
  104      C      -9.8158328453     2.5753592667     0.5713920598
  105      C      -7.5250607607     1.6756053464     0.8767469662
  106      C      -8.7619114844     2.0536491876     1.4278690741
  107      C      -8.9448571358     1.8914518621     2.8108030189
  108      H      -9.8828762230     2.1639665881     3.2727268108
  109      C      -7.9589246432     1.3749517077     3.6141134783
  110      H      -8.1427889720     1.2603046522     4.6757541739
  111      C      -6.7261731231     0.9852504219     3.0754130866
  112      C      -6.5361051187     1.1460080733     1.7215351604
  113      H      -5.5867781876     0.8322562215     1.3095594336
  114      C     -12.9738255305     4.0375219258    -2.0037053384
  115      H     -12.6372892769     4.1496633839    -3.0341400456
  116      H     -13.3523230249     5.0044793565    -1.6696872440
  117      H     -13.8180537457     3.3452411187    -2.0042566581
  118      C      -5.6589391095     0.3998780165     3.9496861225
  119      H      -4.7587658355     0.1671429453     3.3815967214
  120      H      -5.3808477828     1.0874214097     4.7502462502
  121      H      -5.9993389332    -0.5227145827     4.4227621215
  122      B      -6.8085719983     1.7700851914    -4.8989162534
  123      C      -7.9762524618     2.2370755710    -5.8439351531
  124      C      -8.8778222902     1.3010795122    -6.3677131965
  125      C      -9.8699366574     1.7179426733    -7.2469434741
  126      H     -10.5578466237     0.9962018986    -7.6747929122
  127      C      -9.9972503471     3.0534891256    -7.5838023844
  128      C      -9.1312331900     3.9896832412    -7.0453628402
  129      H      -9.2391642241     5.0340509490    -7.3172641126
  130      C      -8.1118113863     3.5890883940    -6.1891235724
  131      N     -11.0003492261     3.4487449910    -8.5106640386
  132      C     -12.3089554254     3.6087083753    -8.0724689900
  133      C     -10.6616141618     3.5508604519    -9.8553812379
  134      C     -11.6366424782     3.8309089881   -10.8191875431
  135      C     -11.2397834942     3.9346698280   -12.1495629988
  136      H     -11.9869697907     4.1492379178   -12.9037355496
  137      C      -9.9266438712     3.7687389889   -12.5512683440
  138      H      -9.6570888543     3.8592633820   -13.5949770082
  139      C      -8.9713670473     3.4803910797   -11.5897302152
  140      H      -7.9350591698     3.3409167044   -11.8695836182
  141      C      -9.3321085950     3.3672520409   -10.2605724552
  142      H      -8.5678108737     3.1373735195    -9.5321820521
  143      C     -13.3409304187     3.8763426015    -8.9798151707
  144      C     -14.6336274146     4.0207478602    -8.4845505418
  145      H     -15.4401700541     4.2217584325    -9.1794692065
  146      C     -14.9331378670     3.9116520806    -7.1381218434
  147      H     -15.9517234546     4.0269644290    -6.7926706323
  148      C     -13.9024261012     3.6520240573    -6.2483055220
  149      H     -14.1009451647     3.5623258753    -5.1876205332
  150      C     -12.6075387517     3.5039363153    -6.7070912205
  151      H     -11.8203233569     3.3015099880    -5.9946497701
  152      C      -8.8366480954    -0.1526508897    -5.9715276071
  153      H      -8.9429628144    -0.7782921046    -6.8617849636
  154      H      -7.8652780802    -0.4112773138    -5.5424947489
  155      C      -7.1178849144     4.6147196906    -5.7142385139
  156      H      -6.6913190575     4.3195786900    -4.7514879028
  157      H      -7.6271073598     5.5651082324    -5.5367642591
  158      C     -13.1075672412     4.0011151257   -10.4771596060
  159      C      -9.9388897103    -0.5031842865    -4.9737267649
  160      H      -9.8491663730     0.0890123710    -4.0622119088
  161      H      -9.8903814424    -1.5558040834    -4.6938228598
  162      H     -10.9269709840    -0.3153194700    -5.3960211114
  163      C      -5.9965269891     4.8233824099    -6.7306129149
  164      H      -5.4478406916     3.8979092378    -6.9089651190
  165      H      -6.3963142122     5.1612189288    -7.6876667881
  166      H      -5.2839934393     5.5713927082    -6.3815995953
  167      C     -13.9165575895     2.9103441047   -11.2019945284
  168      H     -13.6038088155     1.9161230581   -10.8820631396
  169      H     -13.7842339546     2.9733379050   -12.2828747814
  170      H     -14.9837222349     3.0100998299   -10.9997109521
  171      C     -13.5828403644     5.3858757226   -10.9488784320
  172      H     -14.6421994157     5.5328419016   -10.7372463031
  173      H     -13.4518787690     5.5043058915   -12.0248930911
  174      H     -13.0257254595     6.1799508690   -10.4516969868
 ----------------------------------------------------------------

   14   -3629.2854426456      5.27e-10  Convergence criterion met
 Total energy in the final basis set =    -3629.2854426456
 Final energy is   -3629.28544264555
 **  OPTIMIZATION CONVERGED  **

                    Orbital Energies (a.u.)
 --------------------------------------------------------------

 Alpha MOs
 -- Occupied --
-14.677 -14.676 -10.494 -10.494 -10.493 -10.493 -10.486 -10.486
-10.473 -10.473 -10.472 -10.472 -10.468 -10.468 -10.468 -10.468
-10.468 -10.467 -10.467 -10.467 -10.467 -10.467 -10.462 -10.461
-10.461 -10.461 -10.458 -10.458 -10.457 -10.457 -10.457 -10.457
-10.456 -10.456 -10.453 -10.453 -10.452 -10.452 -10.451 -10.451
-10.451 -10.451 -10.450 -10.450 -10.450 -10.449 -10.449 -10.449
-10.449 -10.449 -10.444 -10.444 -10.444 -10.444 -10.444 -10.444
-10.444 -10.444 -10.444 -10.444 -10.444 -10.444 -10.441 -10.441
-10.440 -10.440 -10.439 -10.438 -10.438 -10.438 -10.437 -10.436
-10.436 -10.436 -10.436 -10.436 -10.436 -10.435 -10.433 -10.433
-10.433 -10.433 -10.432 -10.432 -10.423 -10.423 -10.423 -10.423
-10.423 -10.422 -10.422 -10.421  -6.955  -6.954  -1.089  -1.088
 -1.004  -1.003  -0.973  -0.973  -0.964  -0.964  -0.962  -0.959
 -0.959  -0.958  -0.952  -0.951  -0.909  -0.908  -0.908  -0.904
 -0.895  -0.894  -0.883  -0.881  -0.879  -0.874  -0.870  -0.868
 -0.852  -0.852  -0.851  -0.850  -0.836  -0.836  -0.830  -0.827
 -0.823  -0.821  -0.821  -0.815  -0.815  -0.811  -0.806  -0.806
 -0.796  -0.796  -0.791  -0.790  -0.767  -0.767  -0.755  -0.755
 -0.735  -0.728  -0.723  -0.720  -0.719  -0.719  -0.716  -0.710
 -0.708  -0.708  -0.707  -0.704  -0.691  -0.688  -0.687  -0.682
 -0.672  -0.670  -0.670  -0.669  -0.666  -0.663  -0.642  -0.641
 -0.636  -0.636  -0.625  -0.617  -0.616  -0.616  -0.615  -0.615
 -0.614  -0.608  -0.587  -0.587  -0.583  -0.573  -0.569  -0.566
 -0.562  -0.561  -0.555  -0.546  -0.543  -0.541  -0.536  -0.535
 -0.535  -0.531  -0.531  -0.530  -0.529  -0.524  -0.523  -0.521
 -0.520  -0.515  -0.512  -0.509  -0.505  -0.504  -0.504  -0.502
 -0.500  -0.499  -0.498  -0.498  -0.493  -0.492  -0.491  -0.490
 -0.489  -0.489  -0.488  -0.488  -0.484  -0.480  -0.480  -0.480
 -0.480  -0.479  -0.478  -0.478  -0.476  -0.475  -0.473  -0.473
 -0.472  -0.471  -0.470  -0.466  -0.465  -0.459  -0.455  -0.450
 -0.450  -0.449  -0.449  -0.448  -0.447  -0.446  -0.445  -0.440
 -0.439  -0.437  -0.436  -0.436  -0.433  -0.430  -0.430  -0.429
 -0.428  -0.425  -0.425  -0.423  -0.422  -0.421  -0.420  -0.418
 -0.416  -0.416  -0.412  -0.411  -0.411  -0.410  -0.410  -0.407
 -0.406  -0.406  -0.404  -0.399  -0.398  -0.396  -0.394  -0.393
 -0.392  -0.391  -0.388  -0.387  -0.385  -0.381  -0.377  -0.377
 -0.372  -0.372  -0.371  -0.369  -0.368  -0.367  -0.364  -0.360
 -0.355  -0.349  -0.343  -0.335  -0.333  -0.330  -0.325  -0.323
 -0.300  -0.300  -0.290  -0.290  -0.289  -0.286  -0.284  -0.284
 -0.282  -0.281  -0.280  -0.278  -0.271  -0.257  -0.257  -0.253
 -0.223  -0.223

          Ground-State Mulliken Net Atomic Charges

     Atom                 Charge (a.u.)
  ----------------------------------------
      1 N                    -0.715454
      2 C                     0.307460
      3 C                     0.307103
      4 C                     0.132719
      5 C                    -0.310929
      6 H                     0.231448
      7 C                    -0.252520
      8 H                     0.232531
      9 C                    -0.255362
     10 H                     0.238434
     11 C                    -0.323477
     12 H                     0.261605
     13 C                     0.132560
     14 C                    -0.311438
     15 H                     0.231650
     16 C                    -0.251949
     17 H                     0.232651
     18 C                    -0.257254
     19 H                     0.239893
     20 C                    -0.322889
     21 H                     0.259935
     22 C                     0.191890
     23 C                    -0.322106
     24 H                     0.242732
     25 C                    -0.295263
     26 H                     0.241166
     27 C                     0.054083
     28 C                     0.060934
     29 C                    -0.215548
     30 C                    -0.551194
     31 H                     0.245510
     32 H                     0.256217
     33 C                    -0.560719
     34 H                     0.259387
     35 H                     0.247301
     36 C                    -0.201950
     37 C                    -0.651877
     38 H                     0.230931
     39 H                     0.232238
     40 H                     0.223333
     41 C                    -0.655517
     42 H                     0.241134
     43 H                     0.228076
     44 H                     0.223063
     45 C                    -0.612158
     46 H                     0.232571
     47 H                     0.225877
     48 H                     0.225940
     49 C                    -0.618621
     50 H                     0.235752
     51 H                     0.226839
     52 H                     0.226721
     53 B                     0.654199
     54 C                    -0.111323
     55 C                    -0.429777
     56 H                     0.249661
     57 C                     0.102914
     58 C                     0.102728
     59 C                    -0.430283
     60 H                     0.250069
     61 C                    -0.107718
     62 C                     0.113042
     63 C                     0.070683
     64 C                    -0.326193
     65 H                     0.235332
     66 C                    -0.276570
     67 H                     0.239406
     68 C                     0.130450
     69 C                    -0.406319
     70 H                     0.235135
     71 C                     0.112996
     72 C                    -0.406638
     73 H                     0.235611
     74 C                     0.132223
     75 C                    -0.278077
     76 H                     0.239565
     77 C                    -0.325956
     78 H                     0.234996
     79 C                     0.069454
     80 C                    -0.725407
     81 H                     0.247009
     82 H                     0.242424
     83 H                     0.244285
     84 C                    -0.722918
     85 H                     0.244751
     86 H                     0.241366
     87 H                     0.245238
     88 C                    -0.112318
     89 C                    -0.430174
     90 H                     0.252867
     91 C                     0.104418
     92 C                     0.102143
     93 C                    -0.428485
     94 H                     0.248787
     95 C                    -0.111207
     96 C                     0.112244
     97 C                    -0.404895
     98 H                     0.234807
     99 C                     0.133048
    100 C                    -0.277296
    101 H                     0.239477
    102 C                    -0.326074
    103 H                     0.235041
    104 C                     0.071197
    105 C                     0.107145
    106 C                     0.072659
    107 C                    -0.326212
    108 H                     0.235050
    109 C                    -0.276334
    110 H                     0.239504
    111 C                     0.131279
    112 C                    -0.403181
    113 H                     0.232642
    114 C                    -0.724293
    115 H                     0.243426
    116 H                     0.244074
    117 H                     0.244022
    118 C                    -0.724209
    119 H                     0.243704
    120 H                     0.241926
    121 H                     0.245702
    122 B                     0.661378
    123 C                    -0.226610
    124 C                     0.056852
    125 C                    -0.297702
    126 H                     0.243229
    127 C                     0.193936
    128 C                    -0.317082
    129 H                     0.243204
    130 C                     0.058428
    131 N                    -0.717138
    132 C                     0.311505
    133 C                     0.309215
    134 C                     0.130583
    135 C                    -0.309491
    136 H                     0.231675
    137 C                    -0.254070
    138 H                     0.232711
    139 C                    -0.254040
    140 H                     0.240331
    141 C                    -0.326889
    142 H                     0.262219
    143 C                     0.129083
    144 C                    -0.309434
    145 H                     0.231615
    146 C                    -0.253098
    147 H                     0.232982
    148 C                    -0.256045
    149 H                     0.240223
    150 C                    -0.326741
    151 H                     0.258833
    152 C                    -0.552731
    153 H                     0.245348
    154 H                     0.259296
    155 C                    -0.556373
    156 H                     0.257055
    157 H                     0.246038
    158 C                    -0.202068
    159 C                    -0.650158
    160 H                     0.231736
    161 H                     0.229823
    162 H                     0.223357
    163 C                    -0.656195
    164 H                     0.238722
    165 H                     0.223527
    166 H                     0.228745
    167 C                    -0.613303
    168 H                     0.233625
    169 H                     0.226146
    170 H                     0.225888
    171 C                    -0.616071
    172 H                     0.226331
    173 H                     0.226300
    174 H                     0.235005
  ----------------------------------------
  Sum of atomic charges =     0.000000

                    Cartesian Multipole Moments
 -----------------------------------------------------------------
    Charge (ESU x 10^10)
                 0.0000
    Dipole Moment (Debye)
         X      -0.6788      Y      -1.5844      Z       0.0357
       Tot       1.7241
    Quadrupole Moments (Debye-Ang)
        XX    -494.3086     XY     -17.4555     YY    -551.2020
        XZ     -12.6937     YZ       9.0779     ZZ    -481.7088

 Total job time:  197326.71s(wall), 746226.14s(cpu)
        *  Thank you very much for using Q-Chem.  Have a nice day.  *
