 Q-Chem 5.1, Q-Chem, Inc., Pleasanton, CA (2018)
 Q-Chem 5.1.1 for Intel X86 EM64T Linux

User input:
--------------------------------------------------------------
$rem
threads 8
jobtype	sp
method PBEh-3c
basis def2-mSVP
mem_static	1024
mem_total	10000
sym_ignore	true
cis_n_roots             6
cis_singlets            true
cis_triplets		true
rpa                     false
calc_soc 		true
cis_moments             true
cis_relaxed_density	true
$end

$molecule
read gsopt.mol
$end

--------------------------------------------------------------

             Standard Nuclear Orientation (Angstroms)
    I     Atom           X                Y                Z
 ----------------------------------------------------------------
    1      C       0.0000000000     0.0000000000     0.0000000000
    2      C       0.0000000000     0.0000000000     1.3972280000
    3      H       0.9381938761     0.0000000000     1.9392524505
    4      C      -1.1985076434     0.0062007288     2.0837097420
    5      C      -2.4219934234     0.0202357543     1.3780450092
    6      C      -2.4328845006     0.0139329289    -0.0028646597
    7      H      -3.3733058805     0.0238369625    -0.5429710004
    8      C      -1.2258744680     0.0016845936    -0.7045062611
    9      C      -3.5146089470     0.0423661839     2.3529943670
   10      C      -4.8833327681     0.0737698668     2.2855959924
   11      H      -5.4110272143     0.0884536082     1.3400334613
   12      C      -2.9042953278     0.0325138545     3.6199130827
   13      C      -3.6032505489     0.0469615064     4.8228848526
   14      C      -1.5017388797     0.0107266623     3.5167921766
   15      C      -0.7654896886     0.0000927655     4.6721006847
   16      H       0.3167931152    -0.0173798059     4.6604997340
   17      C      -2.8187341915     0.0334593264     6.0000807213
   18      H      -3.2988483472     0.0424558751     6.9711728120
   19      C      -1.4470094701     0.0106748936     5.9120552776
   20      H      -0.8630545623     0.0011818424     6.8229611841
   21      C      -5.6215542353     0.0908007871     3.4928265079
   22      H      -6.7021603502     0.1170654868     3.4374854713
   23      C      -5.0155010533     0.0763784985     4.7267675810
   24      H      -5.6207264190     0.0896677407     5.6251750841
   25      B      -1.2302488225     0.0032906631    -2.2545222566
   26      B       1.3436143622     0.0209078266    -0.7776922444
   27      C       1.3451597411     0.0533652581    -2.3307233422
   28      C       2.5499369628     0.1073595736    -3.0371500930
   29      H       3.4866115904     0.1002373628    -2.4910980816
   30      C       2.5378882934     0.1880901958    -4.4201394179
   31      C       1.3076506135     0.2072159082    -5.1123976087
   32      C       0.1107901530     0.1310736863    -4.4243538762
   33      H      -0.8330934212     0.1429493167    -4.9582895987
   34      C       0.1142997989     0.0578925279    -3.0313822896
   35      C       1.5825902764     0.3430606380    -6.5381923993
   36      C       0.8097060773     0.4481374523    -7.6631375373
   37      H      -0.2722433162     0.4224178120    -7.6188702162
   38      C       2.9820392250     0.3966162235    -6.6648047755
   39      C       3.6474123538     0.5536608713    -7.8733475335
   40      C       3.6122172015     0.3028651893    -5.4090166311
   41      C       4.9791498459     0.3586783944    -5.3622422112
   42      H       5.5222192353     0.2958090580    -4.4276595976
   43      C       1.4592963057     0.6039129110    -8.9095104156
   44      H       0.8530537848     0.6894043261    -9.8017945011
   45      C       2.8289385638     0.6559521147    -9.0247914935
   46      H       3.2808666167     0.7812484784   -10.0009191653
   47      C       5.6883794461     0.5093041767    -6.5774190583
   48      H       6.7688146972     0.5537401798    -6.5402866715
   49      C       5.0596669824     0.6060935119    -7.7969570586
   50      H       5.6480680084     0.7268393150    -8.6979536150
   51      C       2.6768728003     0.0495069266     0.0505201205
   52      C       3.2356121814     1.2592184235     0.4077852015
   53      C       4.3856388950     1.2830201694     1.2273741359
   54      H       4.8170407562     2.2396978257     1.4983700925
   55      C       4.9533380111     0.1302224615     1.6890643545
   56      H       5.8314692253     0.1697149053     2.3224187695
   57      C       4.4011983629    -1.1245675996     1.3545911548
   58      C       4.9468349176    -2.3371330836     1.8315701805
   59      H       5.8235000052    -2.3016964160     2.4674692980
   60      C       4.3797273458    -3.5363328932     1.5042322942
   61      H       4.8032473995    -4.4588786251     1.8787739456
   62      C       3.2396680973    -3.5767697867     0.6777630748
   63      H       2.7947420824    -4.5296391539     0.4230719538
   64      C       2.6949056403    -2.4191088591     0.1987955023
   65      H       1.8175942018    -2.4647137729    -0.4372895243
   66      C       3.2541899420    -1.1595774809     0.5228974369
   67      C       2.5994331570     2.5521922772    -0.0242809113
   68      H       3.2441929647     3.4077876020     0.1754553463
   69      H       2.3712979913     2.5580933843    -1.0918022363
   70      H       1.6584586184     2.7244370493     0.5044686270
   71      C      -2.6029158574    -0.0573282976    -3.0188027277
   72      C      -3.1852734845    -1.2781694923    -3.2896336163
   73      C      -4.4271870949    -1.3328953245    -3.9600863211
   74      H      -4.8686142358    -2.3001894618    -4.1693627532
   75      C      -5.0771342039    -0.1960095905    -4.3447310117
   76      H      -6.0286331669    -0.2555414265    -4.8597291937
   77      C      -4.5208593320     1.0706442814    -4.0730941175
   78      C      -5.1734183915     2.2682130844    -4.4452930112
   79      H      -6.1249819159     2.2071267392    -4.9603139071
   80      C      -4.6215918513     3.4850293675    -4.1618548494
   81      H      -5.1310829500     4.3953627473    -4.4497468161
   82      C      -3.3855040261     3.5576239773    -3.4901748712
   83      H      -2.9539124901     4.5240990702    -3.2649866029
   84      C      -2.7310104298     2.4154233698    -3.1229082176
   85      H      -1.7813449138     2.4912103474    -2.6050068320
   86      C      -3.2721063561     1.1363345769    -3.4028093105
   87      C      -2.5226147403    -2.5529648742    -2.8479882238
   88      H      -3.0045389954    -3.4299711805    -3.2792736221
   89      H      -1.4699061775    -2.5857631396    -3.1366547570
   90      H      -2.5603447486    -2.6598413292    -1.7612596975
 ----------------------------------------------------------------

   15   -2123.3785973159      6.35e-09  Convergence criterion met
 Total energy in the final basis set =    -2123.3785973159

         TDDFT/TDA Excitation Energies
 ---------------------------------------------------

 Excited state   1: excitation energy (eV) =    2.3237
 Total energy for state  1:                 -2123.29320144 au
    Multiplicity: Triplet
    Trans. Mom.:  0.0000 X   0.0000 Y   0.0000 Z
    Strength   :     0.0000000000
    D(177) --> V(  2) amplitude = -0.2686
    D(181) --> V(  1) amplitude =  0.8564
    D(182) --> V(  1) amplitude =  0.2846

 Excited state   2: excitation energy (eV) =    2.4834
 Total energy for state  2:                 -2123.28733395 au
    Multiplicity: Triplet
    Trans. Mom.:  0.0000 X   0.0000 Y   0.0000 Z
    Strength   :     0.0000000000
    D(180) --> V(  2) amplitude = -0.4885
    D(181) --> V(  1) amplitude = -0.2369
    D(182) --> V(  1) amplitude =  0.7000
    D(183) --> V(  1) amplitude =  0.2841

 Excited state   3: excitation energy (eV) =    2.5407
 Total energy for state  3:                 -2123.28522786 au
    Multiplicity: Triplet
    Trans. Mom.:  0.0000 X   0.0000 Y   0.0000 Z
    Strength   :     0.0000000000
    D(180) --> V(  1) amplitude =  0.7167
    D(180) --> V(  4) amplitude =  0.2494
    D(182) --> V(  2) amplitude = -0.5245

 Excited state   4: excitation energy (eV) =    2.7597
 Total energy for state  4:                 -2123.27718027 au
    Multiplicity: Triplet
    Trans. Mom.:  0.0000 X   0.0000 Y   0.0000 Z
    Strength   :     0.0000000000
    D(177) --> V(  1) amplitude =  0.6859
    D(181) --> V(  2) amplitude = -0.5331

 Excited state   5: excitation energy (eV) =    2.8237
 Total energy for state  5:                 -2123.27482760 au
    Multiplicity: Triplet
    Trans. Mom.:  0.0000 X   0.0000 Y   0.0000 Z
    Strength   :     0.0000000000
    D(184) --> V(  1) amplitude =  0.9068

 Excited state   6: excitation energy (eV) =    2.8632
 Total energy for state  6:                 -2123.27337820 au
    Multiplicity: Singlet
    Trans. Mom.: -0.0811 X   0.0504 Y  -0.0628 Z
    Strength   :     0.0009162472
    D(184) --> V(  1) amplitude =  0.9603

 Excited state   7: excitation energy (eV) =    2.9049
 Total energy for state  7:                 -2123.27184514 au
    Multiplicity: Triplet
    Trans. Mom.:  0.0000 X   0.0000 Y   0.0000 Z
    Strength   :     0.0000000000
    D(182) --> V(  1) amplitude = -0.2367
    D(183) --> V(  1) amplitude =  0.8893

 Excited state   8: excitation energy (eV) =    2.9254
 Total energy for state  8:                 -2123.27109052 au
    Multiplicity: Singlet
    Trans. Mom.: -0.4422 X   0.0093 Y   0.4581 Z
    Strength   :     0.0290596785
    D(183) --> V(  1) amplitude =  0.9646

 Excited state   9: excitation energy (eV) =    2.9994
 Total energy for state  9:                 -2123.26837085 au
    Multiplicity: Singlet
    Trans. Mom.: -0.0254 X  -0.0093 Y   0.0748 Z
    Strength   :     0.0004645933
    D(181) --> V(  1) amplitude =  0.9145
    D(182) --> V(  1) amplitude =  0.2879

 Excited state  10: excitation energy (eV) =    3.2959
 Total energy for state 10:                 -2123.25747441 au
    Multiplicity: Singlet
    Trans. Mom.: -1.6936 X  -0.1129 Y   3.0213 Z
    Strength   :     0.9697412911
    D(181) --> V(  1) amplitude = -0.2842
    D(182) --> V(  1) amplitude =  0.8983

 Excited state  11: excitation energy (eV) =    3.5836
 Total energy for state 11:                 -2123.24690297 au
    Multiplicity: Singlet
    Trans. Mom.: -0.0150 X  -0.1104 Y   0.1117 Z
    Strength   :     0.0021849594
    D(180) --> V(  1) amplitude =  0.9278

 Excited state  12: excitation energy (eV) =    3.6927
 Total energy for state 12:                 -2123.24289465 au
    Multiplicity: Singlet
    Trans. Mom.:  0.7432 X  -0.0730 Y   0.3805 Z
    Strength   :     0.0635504393
    D(177) --> V(  1) amplitude =  0.7402
    D(181) --> V(  2) amplitude = -0.5408

 ---------------------------------------------------

                    Orbital Energies (a.u.)
 --------------------------------------------------------------

 Alpha MOs
 -- Occupied --
-10.463 -10.463 -10.463 -10.463 -10.462 -10.462 -10.462 -10.461
-10.461 -10.461 -10.460 -10.460 -10.460 -10.460 -10.460 -10.459
-10.459 -10.458 -10.458 -10.458 -10.458 -10.458 -10.453 -10.453
-10.453 -10.452 -10.452 -10.452 -10.451 -10.451 -10.451 -10.450
-10.445 -10.445 -10.444 -10.444 -10.443 -10.443 -10.443 -10.443
-10.443 -10.443 -10.443 -10.442 -10.441 -10.441 -10.433 -10.432
-10.432 -10.431 -10.428 -10.428 -10.427 -10.426  -6.948  -6.948
 -1.015  -1.014  -0.975  -0.975  -0.960  -0.958  -0.932  -0.931
 -0.922  -0.922  -0.908  -0.899  -0.870  -0.867  -0.853  -0.852
 -0.846  -0.845  -0.845  -0.845  -0.821  -0.815  -0.811  -0.809
 -0.807  -0.803  -0.765  -0.765  -0.734  -0.728  -0.725  -0.719
 -0.699  -0.697  -0.688  -0.686  -0.678  -0.673  -0.670  -0.669
 -0.664  -0.655  -0.646  -0.646  -0.595  -0.594  -0.591  -0.588
 -0.582  -0.576  -0.575  -0.574  -0.573  -0.566  -0.565  -0.548
 -0.548  -0.542  -0.531  -0.527  -0.524  -0.511  -0.506  -0.504
 -0.503  -0.501  -0.499  -0.495  -0.494  -0.489  -0.485  -0.483
 -0.482  -0.481  -0.479  -0.479  -0.478  -0.475  -0.471  -0.470
 -0.467  -0.464  -0.453  -0.452  -0.447  -0.442  -0.440  -0.440
 -0.437  -0.436  -0.433  -0.431  -0.429  -0.422  -0.419  -0.413
 -0.406  -0.399  -0.397  -0.393  -0.392  -0.392  -0.389  -0.387
 -0.385  -0.385  -0.379  -0.369  -0.367  -0.367  -0.352  -0.351
 -0.349  -0.338  -0.322  -0.317  -0.316  -0.311  -0.294  -0.293
 -0.279  -0.275  -0.275  -0.261  -0.255  -0.254  -0.244  -0.243

          Ground-State Mulliken Net Atomic Charges

     Atom                 Charge (a.u.)
  ----------------------------------------
      1 C                    -0.150640
      2 C                    -0.379890
      3 H                     0.234175
      4 C                     0.103150
      5 C                     0.092302
      6 C                    -0.381927
      7 H                     0.233265
      8 C                    -0.156141
      9 C                     0.199205
     10 C                    -0.381019
     11 H                     0.221456
     12 C                    -0.063415
     13 C                     0.251055
     14 C                     0.199590
     15 C                    -0.383055
     16 H                     0.221861
     17 C                    -0.334886
     18 H                     0.219858
     19 C                    -0.203723
     20 H                     0.226305
     21 C                    -0.204553
     22 H                     0.226437
     23 C                    -0.333411
     24 H                     0.219882
     25 B                     0.706861
     26 B                     0.706808
     27 C                    -0.157861
     28 C                    -0.391171
     29 H                     0.231185
     30 C                     0.107432
     31 C                     0.093066
     32 C                    -0.377778
     33 H                     0.232241
     34 C                    -0.156104
     35 C                     0.193906
     36 C                    -0.376197
     37 H                     0.222296
     38 C                    -0.062116
     39 C                     0.254352
     40 C                     0.196171
     41 C                    -0.382780
     42 H                     0.221309
     43 C                    -0.205949
     44 H                     0.226881
     45 C                    -0.333719
     46 H                     0.219960
     47 C                    -0.203713
     48 H                     0.226461
     49 C                    -0.336705
     50 H                     0.220323
     51 C                    -0.231184
     52 C                     0.018049
     53 C                    -0.266090
     54 H                     0.207973
     55 C                    -0.312892
     56 H                     0.209439
     57 C                     0.131952
     58 C                    -0.286793
     59 H                     0.210389
     60 C                    -0.230940
     61 H                     0.217628
     62 C                    -0.235482
     63 H                     0.219995
     64 C                    -0.324817
     65 H                     0.234443
     66 C                     0.088711
     67 C                    -0.757864
     68 H                     0.234936
     69 H                     0.250220
     70 H                     0.246302
     71 C                    -0.226116
     72 C                     0.017773
     73 C                    -0.267316
     74 H                     0.208194
     75 C                    -0.312303
     76 H                     0.209589
     77 C                     0.130750
     78 C                    -0.285645
     79 H                     0.210280
     80 C                    -0.231245
     81 H                     0.217672
     82 C                    -0.234526
     83 H                     0.220117
     84 C                    -0.327386
     85 H                     0.235009
     86 C                     0.086239
     87 C                    -0.757301
     88 H                     0.235362
     89 H                     0.248547
     90 H                     0.247290
  ----------------------------------------
  Sum of atomic charges =    -0.000000

                    Cartesian Multipole Moments
 -----------------------------------------------------------------
    Charge (ESU x 10^10)
                -0.0000
    Dipole Moment (Debye)
         X      -0.1058      Y       0.3266      Z       0.0778
       Tot       0.3520
    Quadrupole Moments (Debye-Ang)
        XX    -280.3595     XY       3.9909     YY    -314.5469
        XZ      -2.3118     YZ      -2.8702     ZZ    -274.9385

 Total job time:  6135.43s(wall), 30881.09s(cpu)
        *  Thank you very much for using Q-Chem.  Have a nice day.  *
