 Q-Chem 5.1, Q-Chem, Inc., Pleasanton, CA (2018)
 Q-Chem 5.1.1 for Intel X86 EM64T Linux

User input:
--------------------------------------------------------------
$rem
threads 4
jobtype	opt
method PBEh-3c
basis def2-mSVP
mem_static	512
mem_total	6096
sym_ignore	true
scf_convergence 9
$end

$molecule
read gsopt.mol
$end

--------------------------------------------------------------

   17   -2123.3784950156      7.01e-10  Convergence criterion met
 Total energy in the final basis set =    -2123.3784950156
   14   -2123.3786422156      5.60e-10  Convergence criterion met
 Total energy in the final basis set =    -2123.3786422156
   13   -2123.3786322865      5.50e-10  Convergence criterion met
 Total energy in the final basis set =    -2123.3786322865
   12   -2123.3787065743      8.70e-10  Convergence criterion met
 Total energy in the final basis set =    -2123.3787065743
   12   -2123.3787513841      6.13e-10  Convergence criterion met
 Total energy in the final basis set =    -2123.3787513841
   13   -2123.3788168398      4.52e-10  Convergence criterion met
 Total energy in the final basis set =    -2123.3788168398
   12   -2123.3788468716      6.54e-10  Convergence criterion met
 Total energy in the final basis set =    -2123.3788468716
   12   -2123.3788675960      7.28e-10  Convergence criterion met
 Total energy in the final basis set =    -2123.3788675960
   12   -2123.3788493235      7.36e-10  Convergence criterion met
 Total energy in the final basis set =    -2123.3788493235
   12   -2123.3788439644      5.33e-10  Convergence criterion met
 Total energy in the final basis set =    -2123.3788439644

             Standard Nuclear Orientation (Angstroms)
    I     Atom           X                Y                Z
 ----------------------------------------------------------------
    1      C      -0.0307864955     0.0869611881     0.0930317592
    2      C      -0.0422931186     0.0542816035     1.4920987412
    3      H       0.8956099710     0.0489865436     2.0364143093
    4      C      -1.2482242509     0.0285408931     2.1739755433
    5      C      -2.4610007721     0.0370506417     1.4513293575
    6      C      -2.4620482307     0.0624127513     0.0700831705
    7      H      -3.3984178442     0.0645441611    -0.4772156558
    8      C      -1.2531390998     0.0868854891    -0.6238420369
    9      C      -3.5690385200     0.0111201994     2.3988963423
   10      C      -4.9343789567     0.0096029868     2.2877217385
   11      H      -5.4302989908     0.0317192450     1.3250869435
   12      C      -2.9888344253    -0.0155096860     3.6780914181
   13      C      -3.7207363587    -0.0457293088     4.8588365003
   14      C      -1.5828169748    -0.0072117440     3.6010993368
   15      C      -0.8744505541    -0.0327620913     4.7720150889
   16      H       0.2080612940    -0.0305141326     4.7855454106
   17      C      -2.9624576717    -0.0707287990     6.0527895226
   18      H      -3.4616273355    -0.0952310369     7.0135634844
   19      C      -1.5886073054    -0.0644660020     5.9942240991
   20      H      -1.0255836125    -0.0848965646     6.9178963841
   21      C      -5.7053606029    -0.0199765077     3.4724293748
   22      H      -6.7843869846    -0.0207578243     3.3889078397
   23      C      -5.1305323573    -0.0473967525     4.7215957118
   24      H      -5.7605751723    -0.0697593254     5.6022724588
   25      B      -1.2544601125     0.1096299248    -2.1750525725
   26      B       1.3135459966     0.1292319560    -0.6868816284
   27      C       1.3202892424     0.1613037354    -2.2399094185
   28      C       2.5290001400     0.1827684921    -2.9458615581
   29      H       3.4676668633     0.1664881244    -2.4033120359
   30      C       2.5204773503     0.2204524698    -4.3303166007
   31      C       1.2892284250     0.2419988029    -5.0211161065
   32      C       0.0910550722     0.2138487299    -4.3364708752
   33      H      -0.8478784026     0.2239875080    -4.8791005282
   34      C       0.0915366440     0.1695999065    -2.9433581381
   35      C       1.5579774043     0.2817356861    -6.4545006303
   36      C       0.7832450963     0.3137578615    -7.5844114789
   37      H      -0.2987578368     0.3191420628    -7.5366418921
   38      C       2.9562818483     0.2784856317    -6.5891413041
   39      C       3.6153176093     0.3027979764    -7.8137777673
   40      C       3.5925747186     0.2415813455    -5.3335946642
   41      C       4.9618441731     0.2274974095    -5.3087838774
   42      H       5.5167271157     0.1958780126    -4.3797808925
   43      C       1.4264572428     0.3409391081    -8.8436252259
   44      H       0.8160117047     0.3664203555    -9.7369702429
   45      C       2.7957758095     0.3353517801    -8.9682128739
   46      H       3.2471431489     0.3553991690    -9.9526679514
   47      C       5.6643164099     0.2520365908    -6.5380669518
   48      H       6.7459592767     0.2402576560    -6.5122625048
   49      C       5.0281289562     0.2887208609    -7.7564120212
   50      H       5.6095819623     0.3056439790    -8.6700931784
   51      C       2.6702748251     0.1534397295     0.0974755929
   52      C       3.2404609833     1.3574087905     0.4534799239
   53      C       4.4535095456     1.3696456779     1.1758988546
   54      H       4.8907437259     2.3217334400     1.4529245602
   55      C       5.0789489185     0.2086206373     1.5317368748
   56      H       6.0081250576     0.2365972259     2.0883527390
   57      C       4.5260629590    -1.0406115527     1.1800501552
   58      C       5.1453812762    -2.2623064748     1.5292564966
   59      H       6.0743035716    -2.2378046692     2.0867420045
   60      C       4.5883495537    -3.4575926566     1.1721660937
   61      H       5.0715109772    -4.3865610505     1.4453358978
   62      C       3.3819658123    -3.4857662018     0.4449375530
   63      H       2.9475931733    -4.4359536077     0.1629688252
   64      C       2.7606706636    -2.3200922367     0.0959412090
   65      H       1.8327205693    -2.3591178209    -0.4645292856
   66      C       3.3098469853    -1.0634058785     0.4521725256
   67      C       2.5716508024     2.6500305014     0.0752844044
   68      H       3.1274301150     3.5157784511     0.4342140111
   69      H       2.4773954161     2.7482142622    -1.0086356380
   70      H       1.5630344831     2.7151653190     0.4902992457
   71      C      -2.6036132033     0.0439958013    -2.9826427384
   72      C      -3.1153184687    -1.1783812756    -3.3694198790
   73      C      -4.3070317902    -1.2350487386    -4.1251383431
   74      H      -4.6945226771    -2.2030138058    -4.4208406180
   75      C      -4.9729334850    -0.1005950786    -4.4891177495
   76      H      -5.8853311137    -0.1639546005    -5.0701578817
   77      C      -4.4821179737     1.1666920072    -4.1134032517
   78      C      -5.1447965913     2.3613304868    -4.4743101863
   79      H      -6.0573778314     2.2974429167    -5.0553485333
   80      C      -4.6491436098     3.5777608304    -4.1001001548
   81      H      -5.1646437548     4.4863508922    -4.3822784603
   82      C      -3.4629111986     3.6522955281    -3.3441768518
   83      H      -3.0745557875     4.6184244303    -3.0500530560
   84      C      -2.8023367753     2.5122583956    -2.9819873170
   85      H      -1.8905902121     2.5880853360    -2.3997600216
   86      C      -3.2874612937     1.2342506410    -3.3519796711
   87      C      -2.4070204971    -2.4541006617    -3.0059801844
   88      H      -2.9650578661    -3.3323846038    -3.3296828384
   89      H      -1.4189632077    -2.5076083618    -3.4689983126
   90      H      -2.2615126849    -2.5402732576    -1.9271009794
 ----------------------------------------------------------------

   11   -2123.3788434110      8.97e-10  Convergence criterion met
 Total energy in the final basis set =    -2123.3788434110
 Final energy is   -2123.37884341103
 **  OPTIMIZATION CONVERGED  **

                    Orbital Energies (a.u.)
 --------------------------------------------------------------

 Alpha MOs
 -- Occupied --
-10.463 -10.463 -10.463 -10.463 -10.463 -10.463 -10.462 -10.462
-10.461 -10.461 -10.461 -10.461 -10.460 -10.460 -10.460 -10.460
-10.458 -10.458 -10.458 -10.458 -10.458 -10.458 -10.453 -10.453
-10.453 -10.453 -10.452 -10.452 -10.451 -10.451 -10.451 -10.450
-10.445 -10.444 -10.444 -10.444 -10.444 -10.443 -10.443 -10.443
-10.443 -10.443 -10.443 -10.442 -10.442 -10.441 -10.433 -10.433
-10.432 -10.432 -10.428 -10.428 -10.427 -10.425  -6.948  -6.948
 -1.015  -1.014  -0.975  -0.975  -0.960  -0.958  -0.932  -0.932
 -0.922  -0.922  -0.908  -0.899  -0.870  -0.867  -0.853  -0.852
 -0.846  -0.845  -0.845  -0.845  -0.821  -0.815  -0.811  -0.809
 -0.807  -0.803  -0.765  -0.764  -0.734  -0.728  -0.725  -0.719
 -0.699  -0.697  -0.688  -0.686  -0.678  -0.673  -0.670  -0.669
 -0.664  -0.655  -0.646  -0.646  -0.595  -0.594  -0.591  -0.588
 -0.582  -0.576  -0.575  -0.574  -0.573  -0.566  -0.565  -0.548
 -0.547  -0.543  -0.531  -0.527  -0.524  -0.511  -0.506  -0.504
 -0.503  -0.501  -0.499  -0.495  -0.494  -0.489  -0.485  -0.483
 -0.482  -0.481  -0.480  -0.479  -0.478  -0.475  -0.471  -0.470
 -0.467  -0.464  -0.453  -0.452  -0.447  -0.442  -0.440  -0.440
 -0.437  -0.436  -0.433  -0.431  -0.429  -0.422  -0.419  -0.413
 -0.406  -0.399  -0.397  -0.393  -0.393  -0.392  -0.389  -0.388
 -0.386  -0.385  -0.379  -0.369  -0.367  -0.367  -0.352  -0.351
 -0.350  -0.337  -0.322  -0.317  -0.316  -0.311  -0.294  -0.293
 -0.279  -0.275  -0.275  -0.261  -0.255  -0.254  -0.244  -0.243

          Ground-State Mulliken Net Atomic Charges

     Atom                 Charge (a.u.)
  ----------------------------------------
      1 C                    -0.155068
      2 C                    -0.387953
      3 H                     0.232615
      4 C                     0.113807
      5 C                     0.086489
      6 C                    -0.378761
      7 H                     0.231912
      8 C                    -0.157325
      9 C                     0.195604
     10 C                    -0.376175
     11 H                     0.221615
     12 C                    -0.061548
     13 C                     0.254236
     14 C                     0.197259
     15 C                    -0.385867
     16 H                     0.221671
     17 C                    -0.337630
     18 H                     0.220276
     19 C                    -0.202704
     20 H                     0.226326
     21 C                    -0.205951
     22 H                     0.226808
     23 C                    -0.332914
     24 H                     0.219916
     25 B                     0.709615
     26 B                     0.710911
     27 C                    -0.156894
     28 C                    -0.389974
     29 H                     0.232780
     30 C                     0.113269
     31 C                     0.085427
     32 C                    -0.376151
     33 H                     0.233505
     34 C                    -0.153221
     35 C                     0.196973
     36 C                    -0.376528
     37 H                     0.221748
     38 C                    -0.062355
     39 C                     0.252639
     40 C                     0.198683
     41 C                    -0.386835
     42 H                     0.221492
     43 C                    -0.205895
     44 H                     0.226737
     45 C                    -0.331879
     46 H                     0.219829
     47 C                    -0.202559
     48 H                     0.226262
     49 C                    -0.337204
     50 H                     0.220292
     51 C                    -0.225999
     52 C                     0.019806
     53 C                    -0.268973
     54 H                     0.207994
     55 C                    -0.312134
     56 H                     0.209260
     57 C                     0.129655
     58 C                    -0.286873
     59 H                     0.210241
     60 C                    -0.230768
     61 H                     0.217467
     62 C                    -0.235572
     63 H                     0.219902
     64 C                    -0.327285
     65 H                     0.235152
     66 C                     0.087352
     67 C                    -0.759346
     68 H                     0.235563
     69 H                     0.248209
     70 H                     0.247686
     71 C                    -0.230774
     72 C                     0.018000
     73 C                    -0.267897
     74 H                     0.208373
     75 C                    -0.312652
     76 H                     0.209622
     77 C                     0.132536
     78 C                    -0.285885
     79 H                     0.210435
     80 C                    -0.231357
     81 H                     0.217696
     82 C                    -0.235191
     83 H                     0.220129
     84 C                    -0.327835
     85 H                     0.234666
     86 C                     0.088374
     87 C                    -0.758362
     88 H                     0.235698
     89 H                     0.247827
     90 H                     0.247957
  ----------------------------------------
  Sum of atomic charges =    -0.000000

                    Cartesian Multipole Moments
 -----------------------------------------------------------------
    Charge (ESU x 10^10)
                -0.0000
    Dipole Moment (Debye)
         X      -0.0966      Y      -0.0163      Z      -0.0752
       Tot       0.1235
    Quadrupole Moments (Debye-Ang)
        XX    -279.8965     XY       2.2925     YY    -314.9342
        XZ      -2.7592     YZ       0.6826     ZZ    -274.4434

 Total job time:  18296.03s(wall), 72669.46s(cpu)
        *  Thank you very much for using Q-Chem.  Have a nice day.  *
