 Q-Chem 5.0, Q-Chem, Inc., Pleasanton, CA (2017)
 Q-Chem 5.0.1 for Intel X86 EM64T Linux

User input:
--------------------------------------------------------------
$rem
threads 8
jobtype	opt
method PBEh-3c
basis def2-mSVP
mem_static	512
mem_total	6096
sym_ignore	true
$end

$molecule
read incoords.mol
$end

--------------------------------------------------------------

   15   -2123.3407020087      6.12E-09 Convergence criterion met
 Total energy in the final basis set = -2123.34070201
   12   -2123.3695397055      9.26E-09 Convergence criterion met
 Total energy in the final basis set = -2123.36953971
   13   -2123.3766143280      6.68E-09 Convergence criterion met
 Total energy in the final basis set = -2123.37661433
   13   -2123.3779758071      6.25E-09 Convergence criterion met
 Total energy in the final basis set = -2123.37797581
   13   -2123.3786810134      7.05E-09 Convergence criterion met
 Total energy in the final basis set = -2123.37868101
   13   -2123.3787565453      7.28E-09 Convergence criterion met
 Total energy in the final basis set = -2123.37875655
   12   -2123.3785720275      6.61E-09 Convergence criterion met
 Total energy in the final basis set = -2123.37857203
   11   -2123.3786430865      6.04E-09 Convergence criterion met
   10   -2123.3785956476      5.89E-09 Convergence criterion met
 Total energy in the final basis set = -2123.37859565
    9   -2123.3786185522      7.83E-09 Convergence criterion met
 Total energy in the final basis set = -2123.37861855
    9   -2123.3786240151      7.17E-09 Convergence criterion met
 Total energy in the final basis set = -2123.37862402
    8   -2123.3786211581      9.41E-09 Convergence criterion met
 Total energy in the final basis set = -2123.37862116
    9   -2123.3786176200      6.90E-09 Convergence criterion met
 Total energy in the final basis set = -2123.37861762
    8   -2123.3786152622      8.67E-09 Convergence criterion met
 Total energy in the final basis set = -2123.37861526

             Standard Nuclear Orientation (Angstroms)
    I     Atom           X                Y                Z
 ----------------------------------------------------------------
    1      C      -2.5792191630     0.3991952231    -0.1815217904
    2      C      -2.4221379803    -0.9947463761    -0.0162027116
    3      C      -1.1609331440    -1.5539641155     0.0446976079
    4      C      -0.0349708125    -0.7358738920    -0.0660292536
    5      C      -0.1902133953     0.6581785055    -0.2438458488
    6      C      -1.4706376865     1.2148224489    -0.2977736821
    7      B       1.3836955468    -1.3575669101    -0.0072533564
    8      C       2.6326372481    -0.4531925881    -0.1984462238
    9      C       2.4829560451     0.9442212335    -0.3739151016
   10      B       1.0596042083     1.5657287895    -0.4014827413
   11      C       3.9066994151    -1.0207889218    -0.2168059203
   12      C       5.0148645325    -0.2179251321    -0.4144361553
   13      C       4.8728434927     1.1774642525    -0.5750290989
   14      C       3.6114539575     1.7498136200    -0.5498596460
   15      C       6.7102196235     2.9968900743    -1.0110939700
   16      C       6.2071225470     1.7442175437    -0.7841300333
   17      C       7.1045074935     0.6595634632    -0.7503259800
   18      C       8.4758972011     0.7619836954    -0.9420528104
   19      C       8.9700316750     2.0680468212    -1.1724385016
   20      C       8.1053239707     3.1373214344    -1.2016488954
   21      C       6.4294793905    -0.5538515123    -0.5282529738
   22      C       7.1497138445    -1.7174285873    -0.4929995308
   23      C       8.5494767519    -1.6442472443    -0.6800471251
   24      C       9.2022202383    -0.4531880486    -0.8973509967
   25      C      -6.1869905645     1.6981425537    -0.3028454458
   26      C      -6.8166707956     0.4846601474    -0.1584186348
   27      C      -6.0518835088    -0.6984563890    -0.0289069376
   28      C      -4.6696888260    -0.5411505002    -0.0549859163
   29      C      -4.0138570269     0.6941858453    -0.2036491950
   30      C      -4.7779351621     1.8243830061    -0.3291636608
   31      C      -6.5291208919    -2.0229574416     0.1210856434
   32      C      -5.6409607325    -3.0667450873     0.2297040020
   33      C      -4.2391197448    -2.8751458623     0.2014725022
   34      C      -3.7529459833    -1.6013540598     0.0599656731
   35      C       0.8335127237     3.1026601927    -0.6274410264
   36      C       1.5358989252    -2.9006738668     0.2528810672
   37      C       1.6028863423    -3.8156475312    -0.8326811702
   38      C       1.7185902259    -5.2081310066    -0.5865407129
   39      C       1.7633096873    -5.6577168416     0.7489417573
   40      C       1.6872199896    -4.7673033047     1.7805750466
   41      C       1.5687849360    -3.3795460998     1.5461490932
   42      C       1.5443423966    -3.3781603332    -2.1789261545
   43      C       1.6026114374    -4.2664658743    -3.2159346575
   44      C       1.7247595839    -5.6471116684    -2.9644681576
   45      C       1.7813531151    -6.1038031059    -1.6784966932
   46      C       0.6490157981     3.9714076717     0.4814140058
   47      C       0.3451422314     5.3397710761     0.2721036196
   48      C       0.2413567202     5.8121691468    -1.0535273069
   49      C       0.4207201691     4.9636902666    -2.1081814427
   50      C       0.7121317113     3.5959594605    -1.9100762452
   51      C       0.7405077054     3.4972667258     1.8122330742
   52      C       0.5362069904     4.3324295184     2.8738915368
   53      C       0.2342630290     5.6916999501     2.6602652304
   54      C       0.1438065546     6.1820340186     1.3881684721
   55      C       0.8349308494     2.6789757783    -3.0963513615
   56      C       1.4475365375    -2.4370516127     2.7107402860
   57      H      -1.0422859014    -2.6243754703     0.1725563323
   58      H      -1.5920767172     2.2826944959    -0.4352495276
   59      H       4.0182785192    -2.0921406821    -0.0907101035
   60      H       3.4858192447     2.8188316807    -0.6802405264
   61      H       6.0718990953     3.8704864859    -1.0522980846
   62      H      10.0293214470     2.2277887465    -1.3304826000
   63      H       8.5028234009     4.1274669385    -1.3813673257
   64      H       6.6767431007    -2.6789405915    -0.3347919009
   65      H       9.1234387697    -2.5612815814    -0.6550571579
   66      H      10.2757055754    -0.4478914307    -1.0400525367
   67      H      -6.7880306489     2.5925317888    -0.4011378098
   68      H      -7.8987566663     0.4344004097    -0.1451727012
   69      H      -4.3341426915     2.8047959991    -0.4458483768
   70      H      -7.5947042397    -2.2163373370     0.1484238057
   71      H      -6.0228635296    -4.0734409422     0.3400466629
   72      H      -3.5838914133    -3.7329251327     0.2889663982
   73      H       1.8555198290    -6.7192071766     0.9460534040
   74      H       1.7164061462    -5.1264600309     2.8025663850
   75      H       1.4485035880    -2.3192800660    -2.3920390398
   76      H       1.5549212582    -3.9097954126    -4.2365061498
   77      H       1.7716394196    -6.3421470355    -3.7926577602
   78      H       1.8735807191    -7.1651603229    -1.4798348025
   79      H       0.0116273710     6.8567797923    -1.2262231123
   80      H       0.3311173702     5.3397045416    -3.1207831656
   81      H       0.9731556345     2.4531026263     1.9909929939
   82      H       0.6054033663     3.9501378570     3.8837682963
   83      H       0.0737654876     6.3447680714     3.5078996241
   84      H      -0.0887826827     7.2268518390     1.2195778447
   85      H       0.8974331858     3.2334107543    -4.0324857906
   86      H      -0.0284908130     2.0128970542    -3.1706389430
   87      H       1.7218722312     2.0457614467    -3.0326577710
   88      H       1.6626692983    -2.9331014884     3.6568108437
   89      H       0.4381071647    -2.0245514186     2.7794521761
   90      H       2.1336246577    -1.5918929581     2.6236188676
 ----------------------------------------------------------------

    7   -2123.3786150636      8.21E-09 Convergence criterion met
 Total energy in the final basis set = -2123.37861506
 Final energy is   -2123.37861506361
 **  OPTIMIZATION CONVERGED  **

                    Orbital Energies (a.u.)
 --------------------------------------------------------------

 Alpha MOs
 -- Occupied --
-10.463 -10.463 -10.463 -10.463 -10.462 -10.462 -10.462 -10.461
-10.461 -10.461 -10.460 -10.460 -10.460 -10.460 -10.460 -10.459
-10.459 -10.458 -10.458 -10.458 -10.458 -10.458 -10.453 -10.453
-10.453 -10.452 -10.452 -10.452 -10.451 -10.451 -10.451 -10.450
-10.445 -10.445 -10.444 -10.444 -10.443 -10.443 -10.443 -10.443
-10.443 -10.443 -10.443 -10.442 -10.441 -10.441 -10.433 -10.432
-10.432 -10.431 -10.428 -10.428 -10.427 -10.426  -6.948  -6.948
 -1.015  -1.014  -0.975  -0.975  -0.960  -0.958  -0.932  -0.931
 -0.922  -0.922  -0.908  -0.899  -0.870  -0.867  -0.853  -0.852
 -0.846  -0.845  -0.845  -0.845  -0.821  -0.815  -0.811  -0.809
 -0.807  -0.803  -0.765  -0.765  -0.734  -0.728  -0.725  -0.719
 -0.699  -0.697  -0.688  -0.686  -0.678  -0.673  -0.670  -0.669
 -0.664  -0.655  -0.646  -0.646  -0.595  -0.594  -0.591  -0.588
 -0.582  -0.576  -0.575  -0.574  -0.573  -0.566  -0.565  -0.548
 -0.548  -0.542  -0.531  -0.527  -0.524  -0.511  -0.506  -0.504
 -0.503  -0.501  -0.499  -0.495  -0.494  -0.489  -0.485  -0.483
 -0.482  -0.481  -0.479  -0.479  -0.478  -0.475  -0.471  -0.470
 -0.467  -0.464  -0.453  -0.452  -0.447  -0.442  -0.440  -0.440
 -0.437  -0.436  -0.433  -0.431  -0.429  -0.422  -0.419  -0.413
 -0.406  -0.399  -0.397  -0.393  -0.392  -0.392  -0.389  -0.387
 -0.385  -0.385  -0.379  -0.369  -0.367  -0.367  -0.352  -0.351
 -0.349  -0.338  -0.323  -0.317  -0.316  -0.311  -0.294  -0.293
 -0.279  -0.275  -0.275  -0.261  -0.255  -0.254  -0.244  -0.243

          Ground-State Mulliken Net Atomic Charges

     Atom                 Charge (a.u.)
  ----------------------------------------
      1 C                     0.103329
      2 C                     0.092236
      3 C                    -0.381844
      4 C                    -0.156094
      5 C                    -0.150712
      6 C                    -0.379978
      7 B                     0.705979
      8 C                    -0.156040
      9 C                    -0.157701
     10 B                     0.705407
     11 C                    -0.378006
     12 C                     0.093194
     13 C                     0.107427
     14 C                    -0.391240
     15 C                    -0.382612
     16 C                     0.195998
     17 C                    -0.061846
     18 C                     0.254266
     19 C                    -0.336578
     20 C                    -0.203754
     21 C                     0.194287
     22 C                    -0.376234
     23 C                    -0.205994
     24 C                    -0.333703
     25 C                    -0.203767
     26 C                    -0.335075
     27 C                     0.250824
     28 C                    -0.062685
     29 C                     0.200097
     30 C                    -0.383298
     31 C                    -0.333400
     32 C                    -0.204574
     33 C                    -0.380940
     34 C                     0.199073
     35 C                    -0.230846
     36 C                    -0.225659
     37 C                     0.085906
     38 C                     0.130905
     39 C                    -0.312286
     40 C                    -0.267338
     41 C                     0.017691
     42 C                    -0.327182
     43 C                    -0.234500
     44 C                    -0.231283
     45 C                    -0.285706
     46 C                     0.088801
     47 C                     0.131609
     48 C                    -0.312748
     49 C                    -0.266074
     50 C                     0.018337
     51 C                    -0.324781
     52 C                    -0.235365
     53 C                    -0.230927
     54 C                    -0.286732
     55 C                    -0.758000
     56 C                    -0.757438
     57 H                     0.233216
     58 H                     0.234205
     59 H                     0.232214
     60 H                     0.231137
     61 H                     0.221297
     62 H                     0.220304
     63 H                     0.226468
     64 H                     0.222351
     65 H                     0.226867
     66 H                     0.219969
     67 H                     0.226302
     68 H                     0.219872
     69 H                     0.221913
     70 H                     0.219860
     71 H                     0.226456
     72 H                     0.221471
     73 H                     0.209599
     74 H                     0.208211
     75 H                     0.235046
     76 H                     0.220110
     77 H                     0.217651
     78 H                     0.210276
     79 H                     0.209413
     80 H                     0.207978
     81 H                     0.234444
     82 H                     0.219977
     83 H                     0.217613
     84 H                     0.210341
     85 H                     0.234983
     86 H                     0.246379
     87 H                     0.250300
     88 H                     0.235409
     89 H                     0.247322
     90 H                     0.248619
  ----------------------------------------
  Sum of atomic charges =    -0.000000

                    Cartesian Multipole Moments
 -----------------------------------------------------------------
    Charge (ESU x 10^10)
                -0.0000
    Dipole Moment (Debye)
         X      -0.1209      Y      -0.1079      Z      -0.3129
       Tot       0.3523
    Quadrupole Moments (Debye-Ang)
        XX    -274.1993     XY      -1.1308     YY    -282.5270
        XZ      -4.6225     YZ      -6.8573     ZZ    -313.0684

 Total job time:  12599.43s(wall), 54473.30s(cpu)
        *  Thank you very much for using Q-Chem.  Have a nice day.  *
