 Q-Chem 5.1, Q-Chem, Inc., Pleasanton, CA (2018)
 Q-Chem 5.1.1 for Intel X86 EM64T Linux

User input:
--------------------------------------------------------------
$rem
threads 8
jobtype	opt
method PBEh-3c
basis def2-mSVP
mem_static	1024
mem_total	12000
sym_ignore	true
cis_n_roots             2
cis_singlets            true
cis_triplets		false
rpa                     false
cis_state_deriv         1
$end

$molecule
read s1opt.mol
$end

--------------------------------------------------------------

   15   -2123.3712089311      7.41e-09  Convergence criterion met
 Total energy in the final basis set =    -2123.3712089311
   12   -2123.3711669773      6.05e-09  Convergence criterion met
 Total energy in the final basis set =    -2123.3711669773
   11   -2123.3711240341      6.37e-09  Convergence criterion met
 Total energy in the final basis set =    -2123.3711240341
   10   -2123.3711192500      8.91e-09  Convergence criterion met
 Total energy in the final basis set =    -2123.3711192500
    9   -2123.3711536883      7.87e-09  Convergence criterion met
 Total energy in the final basis set =    -2123.3711536883
   10   -2123.3712006441      5.35e-09  Convergence criterion met
 Total energy in the final basis set =    -2123.3712006441
   10   -2123.3712314756      5.79e-09  Convergence criterion met
 Total energy in the final basis set =    -2123.3712314756
    9   -2123.3712302002      6.14e-09  Convergence criterion met
 Total energy in the final basis set =    -2123.3712302002
    9   -2123.3712005111      8.82e-09  Convergence criterion met
 Total energy in the final basis set =    -2123.3712005111
    8   -2123.3711966717      7.73e-09  Convergence criterion met
 Total energy in the final basis set =    -2123.3711966717

             Standard Nuclear Orientation (Angstroms)
    I     Atom           X                Y                Z
 ----------------------------------------------------------------
    1      C      -0.0219275575     0.0891274787     0.0835456997
    2      C      -0.0316870883     0.0678217704     1.4987696020
    3      H       0.9034760405     0.0646723530     2.0508983086
    4      C      -1.2174424745     0.0460162543     2.1925356245
    5      C      -2.4503582595     0.0412134172     1.4781042756
    6      C      -2.4634231975     0.0561805593     0.1042806331
    7      H      -3.4072904151     0.0500778512    -0.4309766149
    8      C      -1.2655810102     0.0831285709    -0.6250523976
    9      C      -3.5401590669     0.0192851664     2.4403427335
   10      C      -4.9096673194     0.0097620356     2.3513444892
   11      H      -5.4187538474     0.0188607314     1.3955241085
   12      C      -2.9431462913     0.0104430647     3.7152942550
   13      C      -3.6610707511    -0.0079300657     4.9069101247
   14      C      -1.5362947498     0.0254670276     3.6221168489
   15      C      -0.8163513793     0.0209905389     4.7888759193
   16      H       0.2664026769     0.0325735994     4.7919337399
   17      C      -1.5159154929     0.0016858349     6.0178390561
   18      H      -0.9432503228    -0.0012580335     6.9363742688
   19      C      -2.8895399965    -0.0124475731     6.0923030121
   20      H      -3.3785361528    -0.0261558430     7.0586116268
   21      C      -5.6621345939    -0.0093038719     3.5463287317
   22      H      -6.7425485239    -0.0159971989     3.4771355362
   23      C      -5.0728752607    -0.0183350305     4.7895525816
   24      H      -5.6908182359    -0.0323221992     5.6789249799
   25      B       1.2697917507     0.1253982521    -0.7228169821
   26      C       1.2790620064     0.1438498792    -2.2452587592
   27      C       2.4800619484     0.1653450399    -2.9947585102
   28      H       3.4403915019     0.1610973172    -2.4880474975
   29      C       2.4495321617     0.1845584345    -4.3678302619
   30      C       1.1943192004     0.1844337347    -5.0423049735
   31      C       0.0178650179     0.1619252207    -4.3351887805
   32      H      -0.9310964077     0.1611714239    -4.8612163787
   33      C       0.0251794901     0.1406671422    -2.9332322599
   34      C       1.4402214049     0.2051309343    -6.4757763808
   35      C       0.6471688002     0.2153688502    -7.5964065202
   36      H      -0.4337234024     0.2109678730    -7.5298692825
   37      C       2.8385607488     0.2151797742    -6.6369603796
   38      C       3.4757797162     0.2338074803    -7.8752822782
   39      C       3.4999651836     0.2038944878    -5.3918930690
   40      C       4.8716499217     0.2121151504    -5.3966608225
   41      H       5.4461940035     0.2049343753    -4.4789316060
   42      C       1.2692150015     0.2343247745    -8.8647199715
   43      H       0.6426697592     0.2428003281    -9.7476819171
   44      C       2.6362816538     0.2430854776    -9.0162130652
   45      H       3.0702290835     0.2575736928   -10.0085724472
   46      C       5.5490278297     0.2307006333    -6.6382195469
   47      H       6.6314857989     0.2372648644    -6.6343852706
   48      C       4.8893564201     0.2413215071    -7.8451322171
   49      H       5.4523462104     0.2559671090    -8.7704692149
   50      B      -1.3000300102     0.1001353523    -2.1599033160
   51      C       2.6480580425     0.1464867050     0.0428005373
   52      C       3.3253994929    -1.0515331483     0.3797420923
   53      C       2.7903613798    -2.2971407464     0.0119891932
   54      H       1.8583573774    -2.3307980303    -0.5350123525
   55      C       3.4454433781    -3.4777454461     0.3414972782
   56      H       3.0180677244    -4.4259724576     0.0478417165
   57      C       4.6397452451    -3.4403218088     1.0449062984
   58      H       5.1465359483    -4.3597323239     1.3028798610
   59      C       5.1899577902    -2.2199645661     1.4204360160
   60      H       6.1229613458    -2.1955433545     1.9694093109
   61      C       4.5485100905    -1.0227808828     1.0946243405
   62      C       5.0856919443     0.2307252434     1.4601521107
   63      H       6.0191381292     0.2654586399     2.0079583112
   64      C       4.4395835739     1.4053920542     1.1253244492
   65      H       4.8757280514     2.3520443762     1.4153300690
   66      C       3.2394853650     1.3900586372     0.4224747666
   67      C       2.5478044158     2.6548567261     0.0564439848
   68      H       3.0972272708     3.5350632987     0.3844186402
   69      H       2.4044947409     2.7095062824    -1.0245139316
   70      H       1.5472545485     2.6803585788     0.4930160617
   71      C      -2.6710948310     0.0451446146    -2.9490693131
   72      C      -3.2058919872    -1.1712551858    -3.3287473165
   73      C      -4.4114932041    -1.2205765997    -4.0628638496
   74      H      -4.8110547240    -2.1863080414    -4.3508943848
   75      C      -5.0773850735    -0.0828493970    -4.4165474111
   76      H      -6.0007434882    -0.1397435269    -4.9810911110
   77      C      -4.5695087301     1.1798073299    -4.0496341705
   78      C      -5.2314413084     2.3785861100    -4.3989278249
   79      H      -6.1550068675     2.3195340668    -4.9632902174
   80      C      -4.7222496609     3.5922939221    -4.0342982759
   81      H      -5.2377141454     4.5040179440    -4.3072269305
   82      C      -3.5219118091     3.6583297691    -3.3001537233
   83      H      -3.1220952347     4.6221247441    -3.0128621236
   84      C      -2.8618798907     2.5137866090    -2.9505849594
   85      H      -1.9389868343     2.5760181058    -2.3861759604
   86      C      -3.3597174427     1.2374614722    -3.3100963230
   87      C      -2.5080908154    -2.4565710096    -2.9786279416
   88      H      -3.0814649309    -3.3267654920    -3.2994955914
   89      H      -1.5254953280    -2.5156648261    -3.4516818855
   90      H      -2.3490115411    -2.5432329007    -1.9021622842
 ----------------------------------------------------------------

    7   -2123.3711961062      7.36e-09  Convergence criterion met
 Total energy in the final basis set =    -2123.3711961062

         TDDFT/TDA Excitation Energies
 ---------------------------------------------------

 Excited state   1: excitation energy (eV) =    2.4661
 Total energy for state  1:                 -2123.28057005 au
    Multiplicity: Singlet
    Trans. Mom.:  0.1043 X  -0.0032 Y  -0.1928 Z
    Strength   :     0.0029034422
    D(184) --> V(  1) amplitude =  0.9773

 Excited state   2: excitation energy (eV) =    2.7598
 Total energy for state  2:                 -2123.26977350 au
    Multiplicity: Singlet
    Trans. Mom.:  0.1587 X  -0.0055 Y  -0.2850 Z
    Strength   :     0.0071957734
    D(183) --> V(  1) amplitude =  0.9606

 ---------------------------------------------------

 Final energy is   -2123.28057005282
 **  OPTIMIZATION CONVERGED  **

                    Orbital Energies (a.u.)
 --------------------------------------------------------------

 Alpha MOs
 -- Occupied --
-10.464 -10.464 -10.464 -10.464 -10.464 -10.464 -10.464 -10.463
-10.462 -10.462 -10.462 -10.462 -10.462 -10.462 -10.461 -10.461
-10.459 -10.459 -10.459 -10.459 -10.459 -10.459 -10.455 -10.455
-10.453 -10.453 -10.452 -10.451 -10.451 -10.451 -10.448 -10.447
-10.446 -10.446 -10.445 -10.443 -10.443 -10.443 -10.443 -10.442
-10.442 -10.442 -10.442 -10.441 -10.441 -10.439 -10.435 -10.434
-10.434 -10.433 -10.429 -10.428 -10.427 -10.425  -6.947  -6.942
 -1.015  -1.014  -0.975  -0.972  -0.960  -0.958  -0.933  -0.932
 -0.922  -0.918  -0.907  -0.898  -0.869  -0.865  -0.854  -0.854
 -0.847  -0.846  -0.846  -0.845  -0.823  -0.815  -0.811  -0.808
 -0.804  -0.803  -0.765  -0.760  -0.735  -0.730  -0.727  -0.720
 -0.700  -0.698  -0.689  -0.687  -0.679  -0.672  -0.669  -0.666
 -0.664  -0.656  -0.645  -0.645  -0.597  -0.594  -0.592  -0.589
 -0.583  -0.576  -0.576  -0.575  -0.571  -0.566  -0.564  -0.548
 -0.545  -0.544  -0.531  -0.527  -0.526  -0.512  -0.507  -0.504
 -0.503  -0.502  -0.499  -0.496  -0.493  -0.489  -0.485  -0.483
 -0.482  -0.482  -0.479  -0.479  -0.477  -0.474  -0.471  -0.470
 -0.466  -0.464  -0.453  -0.450  -0.447  -0.443  -0.440  -0.437
 -0.436  -0.435  -0.433  -0.430  -0.430  -0.422  -0.421  -0.414
 -0.407  -0.400  -0.398  -0.394  -0.394  -0.393  -0.392  -0.388
 -0.385  -0.379  -0.379  -0.369  -0.368  -0.364  -0.354  -0.354
 -0.350  -0.335  -0.322  -0.319  -0.315  -0.312  -0.295  -0.294
 -0.281  -0.276  -0.275  -0.261  -0.255  -0.253  -0.244  -0.233

          Ground-State Mulliken Net Atomic Charges

     Atom                 Charge (a.u.)
  ----------------------------------------
      1 C                    -0.148127
      2 C                    -0.390339
      3 H                     0.231560
      4 C                     0.117681
      5 C                     0.093391
      6 C                    -0.384103
      7 H                     0.231611
      8 C                    -0.153289
      9 C                     0.195188
     10 C                    -0.374020
     11 H                     0.222453
     12 C                    -0.064599
     13 C                     0.253284
     14 C                     0.201935
     15 C                    -0.384555
     16 H                     0.222326
     17 C                    -0.202128
     18 H                     0.226941
     19 C                    -0.336582
     20 H                     0.220902
     21 C                    -0.205949
     22 H                     0.227098
     23 C                    -0.331256
     24 H                     0.220774
     25 B                     0.685458
     26 C                    -0.151258
     27 C                    -0.390739
     28 H                     0.231695
     29 C                     0.117666
     30 C                     0.091754
     31 C                    -0.382105
     32 H                     0.233094
     33 C                    -0.150162
     34 C                     0.196500
     35 C                    -0.374416
     36 H                     0.222479
     37 C                    -0.065023
     38 C                     0.251533
     39 C                     0.203113
     40 C                    -0.385548
     41 H                     0.222289
     42 C                    -0.205874
     43 H                     0.226976
     44 C                    -0.330235
     45 H                     0.220651
     46 C                    -0.201988
     47 H                     0.226864
     48 C                    -0.336237
     49 H                     0.220913
     50 B                     0.703675
     51 C                    -0.243794
     52 C                     0.096438
     53 C                    -0.342060
     54 H                     0.236137
     55 C                    -0.232369
     56 H                     0.218547
     57 C                    -0.230491
     58 H                     0.216771
     59 C                    -0.299333
     60 H                     0.210560
     61 C                     0.153810
     62 C                    -0.325932
     63 H                     0.208301
     64 C                    -0.262374
     65 H                     0.207224
     66 C                     0.025311
     67 C                    -0.755165
     68 H                     0.233888
     69 H                     0.248067
     70 H                     0.247681
     71 C                    -0.233077
     72 C                     0.015870
     73 C                    -0.265761
     74 H                     0.208357
     75 C                    -0.313845
     76 H                     0.209859
     77 C                     0.133128
     78 C                    -0.284630
     79 H                     0.210338
     80 C                    -0.231628
     81 H                     0.217712
     82 C                    -0.234934
     83 H                     0.219883
     84 C                    -0.327737
     85 H                     0.234503
     86 C                     0.085584
     87 C                    -0.756035
     88 H                     0.235129
     89 H                     0.247320
     90 H                     0.247472
  ----------------------------------------
  Sum of atomic charges =    -0.000000

                    Cartesian Multipole Moments
 -----------------------------------------------------------------
    Charge (ESU x 10^10)
                -0.0000
    Dipole Moment (Debye)
         X      -0.3553      Y       0.0611      Z      -0.1949
       Tot       0.4098
    Quadrupole Moments (Debye-Ang)
        XX    -280.1443     XY       2.8390     YY    -315.7254
        XZ      -4.3714     YZ       1.4681     ZZ    -271.5776

 Total job time:  24939.41s(wall), 179596.93s(cpu)
        *  Thank you very much for using Q-Chem.  Have a nice day.  *
