 Q-Chem 5.1, Q-Chem, Inc., Pleasanton, CA (2018)
 Q-Chem 5.1.1 for Intel X86 EM64T Linux

User input:
--------------------------------------------------------------
$rem
threads 8
jobtype	sp
method PBEh-3c
basis def2-mSVP
mem_static	1024
mem_total	10000
sym_ignore	true
cis_n_roots             6
cis_singlets            true
cis_triplets		true
rpa                     false
calc_soc 		true
cis_moments             true
cis_relaxed_density	true
$end

$molecule
read s1opt.mol
$end

--------------------------------------------------------------

             Standard Nuclear Orientation (Angstroms)
    I     Atom           X                Y                Z
 ----------------------------------------------------------------
    1      C       0.0000000000     0.0000000000     0.0000000000
    2      C       0.0000000000     0.0000000000     1.4130850000
    3      H       0.9346230733     0.0000000000     1.9643562752
    4      C      -1.1795513383     0.0010398936     2.1106553440
    5      C      -2.4217881123     0.0051897114     1.4116958158
    6      C      -2.4428293837     0.0008957786     0.0380866746
    7      H      -3.3900572260     0.0059325307    -0.4912094182
    8      C      -1.2464685127    -0.0011976367    -0.6972834069
    9      C      -3.4980022397     0.0202001915     2.3977751381
   10      C      -4.8702273775     0.0419784894     2.3484236622
   11      H      -5.4079371181     0.0514229587     1.4085902451
   12      C      -2.8740716967     0.0178822266     3.6611945697
   13      C      -3.5622068044     0.0318401816     4.8724372110
   14      C      -1.4704591114     0.0071364248     3.5451189217
   15      C      -0.7259032511     0.0090016119     4.6977925521
   16      H       0.3566193002     0.0037846439     4.6788409154
   17      C      -1.3960701154     0.0190320653     5.9420621319
   18      H      -0.8048231112     0.0201492190     6.8488716091
   19      C      -2.7676200857     0.0298754020     6.0427146529
   20      H      -3.2398314840     0.0396934357     7.0177583599
   21      C      -5.5931724720     0.0571722488     3.5631161330
   22      H      -6.6748423981     0.0762379760     3.5192478583
   23      C      -4.9759801443     0.0508169491     4.7921143311
   24      H      -5.5714074324     0.0631215369     5.6970460950
   25      B       1.2917718606     0.0206564819    -0.8056012201
   26      C       1.2950763290     0.0349778267    -2.3271812362
   27      C       2.4924838471     0.0776272848    -3.0773358203
   28      H       3.4500047294     0.0739757259    -2.5655379792
   29      C       2.4589796359     0.1344857269    -4.4496138082
   30      C       1.2046275565     0.1457436706    -5.1258587156
   31      C       0.0292209832     0.0892337283    -4.4150443512
   32      H      -0.9242425199     0.0996225593    -4.9328410219
   33      C       0.0396415204     0.0369410662    -3.0126246297
   34      C       1.4572217127     0.2517576440    -6.5538759328
   35      C       0.6664110684     0.3352908277    -7.6712815796
   36      H      -0.4145683691     0.3150889391    -7.6073964760
   37      C       2.8570601159     0.2962627162    -6.7083330823
   38      C       3.5010362576     0.4236417838    -7.9339398043
   39      C       3.5122693322     0.2247405287    -5.4617417173
   40      C       4.8824013959     0.2735721292    -5.4469277531
   41      H       5.4454510220     0.2271096704    -4.5230632677
   42      C       1.2952636783     0.4608405934    -8.9299105785
   43      H       0.6732008417     0.5294101162    -9.8132162444
   44      C       2.6630360186     0.5045313666    -9.0733604950
   45      H       3.0981891776     0.6062883143   -10.0597915851
   46      C       5.5667982612     0.3949676077    -6.6776222146
   47      H       6.6484558077     0.4343803789    -6.6640857030
   48      C       4.9146041247     0.4697911002    -7.8869483863
   49      H       5.4849870325     0.5683680478    -8.8022390228
   50      B      -1.2832495759     0.0056610287    -2.2311911605
   51      C       2.6438814708     0.0695178453     0.0083679428
   52      C       3.2846363019    -1.1105862216     0.4625933208
   53      C       2.7446771014    -2.3706999169     0.1601806263
   54      H       1.8429263522    -2.4276764647    -0.4334652186
   55      C       3.3506647479    -3.5323897822     0.6222702521
   56      H       2.9178430169    -4.4929197514     0.3818268144
   57      C       4.5018293029    -3.4601470429     1.3921324544
   58      H       4.9698229201    -4.3649371529     1.7537960315
   59      C       5.0565702287    -2.2242346580     1.7044985596
   60      H       5.9532587671    -2.1720398119     2.3091212474
   61      C       4.4618079037    -1.0460207932     1.2492741133
   62      C       4.9929506885     0.2240084095     1.5652452725
   63      H       5.8922401052     0.2867089558     2.1651280382
   64      C       4.3764920051     1.3803706841     1.1279327539
   65      H       4.8012906168     2.3402317772     1.3906434137
   66      C       3.2141612059     1.3314634206     0.3651625434
   67      C       2.5394264023     2.5822129961    -0.0756559135
   68      H       3.0767807827     3.4730670581     0.2437833397
   69      H       2.4362109675     2.6019160392    -1.1619163406
   70      H       1.5232341918     2.6235501317     0.3226369675
   71      C      -2.6754125861    -0.0293209633    -2.9807754291
   72      C      -3.2840153237    -1.2362868820    -3.2645633903
   73      C      -4.5327990555    -1.2662829582    -3.9240223181
   74      H      -4.9899361435    -2.2251182616    -4.1400570750
   75      C      -5.1715310090    -0.1171815199    -4.2911160074
   76      H      -6.1282445123    -0.1571886080    -4.7986844984
   77      C      -4.5939027572     1.1370237568    -4.0088331290
   78      C      -5.2334310653     2.3477054888    -4.3618541410
   79      H      -6.1899932600     2.3047747353    -4.8699086022
   80      C      -4.6634454378     3.5538820965    -4.0690160296
   81      H      -5.1631607340     4.4743483364    -4.3424016194
   82      C      -3.4210945285     3.6006624065    -3.4066534609
   83      H      -2.9743156051     4.5586143872    -3.1736069295
   84      C      -2.7795378986     2.4449977238    -3.0586023778
   85      H      -1.8252788936     2.4936219141    -2.5477951610
   86      C      -3.3383289952     1.1753118119    -3.3477710969
   87      C      -2.6380656137    -2.5293899872    -2.8519575596
   88      H      -3.1667976068    -3.3923471421    -3.2572765305
   89      H      -1.6015678008    -2.5859097577    -3.1891801461
   90      H      -2.6237915244    -2.6303539691    -1.7643350118
 ----------------------------------------------------------------

   15   -2123.3712089311      7.41e-09  Convergence criterion met
 Total energy in the final basis set =    -2123.3712089311

         TDDFT/TDA Excitation Energies
 ---------------------------------------------------

 Excited state   1: excitation energy (eV) =    2.1638
 Total energy for state  1:                 -2123.29168916 au
    Multiplicity: Triplet
    Trans. Mom.:  0.0000 X   0.0000 Y   0.0000 Z
    Strength   :     0.0000000000
    D(177) --> V(  2) amplitude = -0.2363
    D(181) --> V(  1) amplitude =  0.6175
    D(182) --> V(  1) amplitude =  0.6727

 Excited state   2: excitation energy (eV) =    2.3938
 Total energy for state  2:                 -2123.28323890 au
    Multiplicity: Triplet
    Trans. Mom.:  0.0000 X   0.0000 Y   0.0000 Z
    Strength   :     0.0000000000
    D(180) --> V(  2) amplitude =  0.4032
    D(181) --> V(  1) amplitude =  0.5477
    D(182) --> V(  1) amplitude = -0.4254
    D(184) --> V(  1) amplitude = -0.4677

 Excited state   3: excitation energy (eV) =    2.4528
 Total energy for state  3:                 -2123.28107130 au
    Multiplicity: Triplet
    Trans. Mom.:  0.0000 X   0.0000 Y   0.0000 Z
    Strength   :     0.0000000000
    D(180) --> V(  1) amplitude = -0.3407
    D(182) --> V(  1) amplitude = -0.3035
    D(184) --> V(  1) amplitude =  0.7433

 Excited state   4: excitation energy (eV) =    2.4736
 Total energy for state  4:                 -2123.28030707 au
    Multiplicity: Singlet
    Trans. Mom.: -0.1910 X   0.0146 Y   0.1601 Z
    Strength   :     0.0037782227
    D(184) --> V(  1) amplitude =  0.9770

 Excited state   5: excitation energy (eV) =    2.4815
 Total energy for state  5:                 -2123.28001543 au
    Multiplicity: Triplet
    Trans. Mom.:  0.0000 X   0.0000 Y   0.0000 Z
    Strength   :     0.0000000000
    D(180) --> V(  1) amplitude =  0.6662
    D(181) --> V(  2) amplitude =  0.3009
    D(182) --> V(  2) amplitude = -0.3771
    D(184) --> V(  1) amplitude =  0.3851

 Excited state   6: excitation energy (eV) =    2.6462
 Total energy for state  6:                 -2123.27396266 au
    Multiplicity: Triplet
    Trans. Mom.:  0.0000 X   0.0000 Y   0.0000 Z
    Strength   :     0.0000000000
    D(184) --> V(  5) amplitude =  0.9443

 Excited state   7: excitation energy (eV) =    2.6954
 Total energy for state  7:                 -2123.27215321 au
    Multiplicity: Triplet
    Trans. Mom.:  0.0000 X   0.0000 Y   0.0000 Z
    Strength   :     0.0000000000
    D(177) --> V(  1) amplitude =  0.7168
    D(181) --> V(  2) amplitude = -0.4340
    D(182) --> V(  2) amplitude = -0.3404

 Excited state   8: excitation energy (eV) =    2.7606
 Total energy for state  8:                 -2123.26975782 au
    Multiplicity: Singlet
    Trans. Mom.: -0.2032 X  -0.0161 Y   0.2856 Z
    Strength   :     0.0083256246
    D(183) --> V(  1) amplitude =  0.9589

 Excited state   9: excitation energy (eV) =    2.8378
 Total energy for state  9:                 -2123.26692068 au
    Multiplicity: Singlet
    Trans. Mom.: -0.1602 X  -0.0102 Y   0.2765 Z
    Strength   :     0.0071088962
    D(181) --> V(  1) amplitude =  0.6828
    D(182) --> V(  1) amplitude =  0.6656

 Excited state  10: excitation energy (eV) =    3.1766
 Total energy for state 10:                 -2123.25447244 au
    Multiplicity: Singlet
    Trans. Mom.: -1.7255 X  -0.0875 Y   3.1469 Z
    Strength   :     1.0029968973
    D(181) --> V(  1) amplitude = -0.6701
    D(182) --> V(  1) amplitude =  0.6725

 Excited state  11: excitation energy (eV) =    3.4818
 Total energy for state 11:                 -2123.24325361 au
    Multiplicity: Singlet
    Trans. Mom.:  0.0385 X  -0.0796 Y   0.1571 Z
    Strength   :     0.0027734033
    D(180) --> V(  1) amplitude =  0.9365

 Excited state  12: excitation energy (eV) =    3.6374
 Total energy for state 12:                 -2123.23753522 au
    Multiplicity: Singlet
    Trans. Mom.: -0.7986 X   0.0743 Y  -0.4099 Z
    Strength   :     0.0723045554
    D(177) --> V(  1) amplitude = -0.7656
    D(181) --> V(  2) amplitude =  0.3936
    D(182) --> V(  2) amplitude =  0.3605

 ---------------------------------------------------

                    Orbital Energies (a.u.)
 --------------------------------------------------------------

 Alpha MOs
 -- Occupied --
-10.465 -10.464 -10.464 -10.464 -10.464 -10.464 -10.463 -10.462
-10.462 -10.462 -10.462 -10.462 -10.462 -10.461 -10.461 -10.460
-10.460 -10.460 -10.459 -10.459 -10.459 -10.458 -10.455 -10.453
-10.453 -10.453 -10.452 -10.452 -10.452 -10.451 -10.448 -10.447
-10.447 -10.446 -10.445 -10.443 -10.443 -10.443 -10.443 -10.442
-10.442 -10.442 -10.442 -10.441 -10.441 -10.440 -10.435 -10.434
-10.433 -10.433 -10.428 -10.428 -10.428 -10.425  -6.947  -6.942
 -1.015  -1.014  -0.975  -0.972  -0.960  -0.958  -0.933  -0.932
 -0.922  -0.918  -0.907  -0.898  -0.869  -0.865  -0.855  -0.854
 -0.847  -0.846  -0.845  -0.845  -0.823  -0.815  -0.811  -0.808
 -0.804  -0.803  -0.765  -0.760  -0.735  -0.730  -0.727  -0.720
 -0.700  -0.698  -0.689  -0.687  -0.679  -0.672  -0.669  -0.666
 -0.664  -0.656  -0.646  -0.645  -0.597  -0.594  -0.592  -0.589
 -0.583  -0.576  -0.576  -0.575  -0.571  -0.566  -0.564  -0.548
 -0.545  -0.544  -0.531  -0.527  -0.526  -0.512  -0.507  -0.504
 -0.503  -0.502  -0.499  -0.496  -0.493  -0.489  -0.485  -0.483
 -0.482  -0.482  -0.479  -0.479  -0.478  -0.474  -0.471  -0.470
 -0.466  -0.464  -0.453  -0.450  -0.447  -0.443  -0.440  -0.437
 -0.436  -0.435  -0.433  -0.430  -0.430  -0.422  -0.421  -0.414
 -0.407  -0.400  -0.398  -0.394  -0.394  -0.393  -0.391  -0.388
 -0.385  -0.380  -0.379  -0.368  -0.368  -0.364  -0.354  -0.353
 -0.350  -0.335  -0.322  -0.319  -0.316  -0.312  -0.295  -0.293
 -0.280  -0.276  -0.275  -0.261  -0.255  -0.254  -0.244  -0.234

          Ground-State Mulliken Net Atomic Charges

     Atom                 Charge (a.u.)
  ----------------------------------------
      1 C                    -0.147032
      2 C                    -0.382517
      3 H                     0.233389
      4 C                     0.108118
      5 C                     0.098140
      6 C                    -0.386532
      7 H                     0.232819
      8 C                    -0.152227
      9 C                     0.198829
     10 C                    -0.378535
     11 H                     0.222246
     12 C                    -0.066258
     13 C                     0.249930
     14 C                     0.204244
     15 C                    -0.381882
     16 H                     0.222623
     17 C                    -0.203046
     18 H                     0.226959
     19 C                    -0.333934
     20 H                     0.220513
     21 C                    -0.204644
     22 H                     0.226716
     23 C                    -0.331653
     24 H                     0.220716
     25 B                     0.682536
     26 C                    -0.149622
     27 C                    -0.393002
     28 H                     0.230382
     29 C                     0.111933
     30 C                     0.099804
     31 C                    -0.383644
     32 H                     0.232036
     33 C                    -0.152337
     34 C                     0.193530
     35 C                    -0.373985
     36 H                     0.223026
     37 C                    -0.064809
     38 C                     0.253353
     39 C                     0.200237
     40 C                    -0.381775
     41 H                     0.222234
     42 C                    -0.205957
     43 H                     0.227172
     44 C                    -0.331951
     45 H                     0.220800
     46 C                    -0.203107
     47 H                     0.227090
     48 C                    -0.335805
     49 H                     0.220985
     50 B                     0.702037
     51 C                    -0.249246
     52 C                     0.099164
     53 C                    -0.340257
     54 H                     0.235235
     55 C                    -0.233262
     56 H                     0.218691
     57 C                    -0.230340
     58 H                     0.216883
     59 C                    -0.299600
     60 H                     0.210743
     61 C                     0.156342
     62 C                    -0.325345
     63 H                     0.208400
     64 C                    -0.262895
     65 H                     0.207511
     66 C                     0.024630
     67 C                    -0.754707
     68 H                     0.233979
     69 H                     0.248192
     70 H                     0.248064
     71 C                    -0.229343
     72 C                     0.016302
     73 C                    -0.265222
     74 H                     0.208194
     75 C                    -0.313530
     76 H                     0.209817
     77 C                     0.130646
     78 C                    -0.284348
     79 H                     0.210185
     80 C                    -0.231611
     81 H                     0.217684
     82 C                    -0.234239
     83 H                     0.219841
     84 C                    -0.327385
     85 H                     0.234837
     86 C                     0.083617
     87 C                    -0.755274
     88 H                     0.234830
     89 H                     0.247835
     90 H                     0.246844
  ----------------------------------------
  Sum of atomic charges =    -0.000000

                    Cartesian Multipole Moments
 -----------------------------------------------------------------
    Charge (ESU x 10^10)
                -0.0000
    Dipole Moment (Debye)
         X      -0.3327      Y       0.3396      Z      -0.1282
       Tot       0.4924
    Quadrupole Moments (Debye-Ang)
        XX    -280.3758     XY       4.0567     YY    -315.4537
        XZ      -4.1702     YZ      -1.9353     ZZ    -271.9535

 Total job time:  6666.61s(wall), 33833.94s(cpu)
        *  Thank you very much for using Q-Chem.  Have a nice day.  *
