 Q-Chem 5.0, Q-Chem, Inc., Pleasanton, CA (2017)
 Q-Chem 5.0.1 for Intel X86 EM64T Linux

User input:
--------------------------------------------------------------
$rem
threads 8
jobtype	opt
method PBEh-3c
basis def2-mSVP
mem_static	1024
mem_total	14000
sym_ignore	true
cis_n_roots             2
cis_singlets            true
cis_triplets		false
rpa                     false
cis_state_deriv         1
$end

$molecule
read incoords.mol
$end

--------------------------------------------------------------

   15   -2123.3407020089      6.12E-09 Convergence criterion met
 Total energy in the final basis set = -2123.34070201
   13   -2123.3669452053      5.74E-09 Convergence criterion met
 Total energy in the final basis set = -2123.36694521
   13   -2123.3731278731      7.20E-09 Convergence criterion met
 Total energy in the final basis set = -2123.37312787
   13   -2123.3736300605      6.89E-09 Convergence criterion met
 Total energy in the final basis set = -2123.37363006
   13   -2123.3698502902      6.94E-09 Convergence criterion met
 Total energy in the final basis set = -2123.36985029
   13   -2123.3708821383      7.63E-09 Convergence criterion met
 Total energy in the final basis set = -2123.37088214
   12   -2123.3714568251      9.69E-09 Convergence criterion met
 Total energy in the final basis set = -2123.37145683
   11   -2123.3710807575      6.93E-09 Convergence criterion met
   10   -2123.3710729774      5.60E-09 Convergence criterion met
 Total energy in the final basis set = -2123.37107298
   10   -2123.3710960695      5.68E-09 Convergence criterion met
 Total energy in the final basis set = -2123.37109607
   10   -2123.3710589218      4.72E-09 Convergence criterion met
 Total energy in the final basis set = -2123.37105892
    8   -2123.3710465955      8.89E-09 Convergence criterion met
 Total energy in the final basis set = -2123.37104660
    9   -2123.3710368181      7.90E-09 Convergence criterion met
 Total energy in the final basis set = -2123.37103682
    9   -2123.3710484671      6.72E-09 Convergence criterion met
 Total energy in the final basis set = -2123.37104847

             Standard Nuclear Orientation (Angstroms)
    I     Atom           X                Y                Z
 ----------------------------------------------------------------
    1      C      -2.5935084453     0.4049662730    -0.1570379116
    2      C      -2.4268323885    -1.0000596569     0.0156895559
    3      C      -1.1673867319    -1.5465678726     0.0645500571
    4      C      -0.0282763175    -0.7348994993    -0.0606506262
    5      C      -0.1918836352     0.6726711610    -0.2391594164
    6      C      -1.4957684280     1.2156544556    -0.2823342616
    7      B       1.3727973343    -1.3588152684    -0.0159819509
    8      C       2.6024454959    -0.4533936266    -0.1887077797
    9      C       2.4532776854     0.9582295013    -0.3648427027
   10      B       1.0482992714     1.5417030411    -0.3967168554
   11      C       3.8914237296    -1.0084619169    -0.1964113157
   12      C       4.9986288250    -0.2139763029    -0.3778544346
   13      C       4.8577189051     1.1943049789    -0.5443555289
   14      C       3.6055311381     1.7594801924    -0.5340926438
   15      C       6.7080289068     3.0093970665    -0.9551434932
   16      C       6.1952649873     1.7570492088    -0.7347709963
   17      C       7.0918646217     0.6698072104    -0.6855986603
   18      C       8.4680827429     0.7715152030    -0.8550739025
   19      C       8.9679300044     2.0762865557    -1.0792062529
   20      C       8.1046213094     3.1468728097    -1.1235888484
   21      C       6.4113881681    -0.5452121570    -0.4709702016
   22      C       7.1363450005    -1.7083386271    -0.4206830385
   23      C       8.5372491537    -1.6329159474    -0.5854423500
   24      C       9.1952418313    -0.4428852781    -0.7955859364
   25      C      -6.2125408852     1.6769208915    -0.2648423699
   26      C      -6.8335968819     0.4600511214    -0.1069979140
   27      C      -6.0596625376    -0.7164640398     0.0262657697
   28      C      -4.6768514220    -0.5508711206    -0.0090165496
   29      C      -4.0292241182     0.6893781259    -0.1704996295
   30      C      -4.8062500937     1.8128929420    -0.3007613614
   31      C      -6.5301456572    -2.0425189628     0.1868590193
   32      C      -5.6338316365    -3.0799449515     0.2953590843
   33      C      -4.2344126462    -2.8836895970     0.2570506016
   34      C      -3.7512883940    -1.6071715863     0.1053823293
   35      C       0.8167271579     3.0846449547    -0.6392800241
   36      C       1.5292623068    -2.9154094620     0.2158638086
   37      C       1.5884328124    -3.8159064408    -0.8845399852
   38      C       1.7158614619    -5.2131646053    -0.6692169280
   39      C       1.7792596052    -5.6902203086     0.6554594636
   40      C       1.7095698242    -4.8188677104     1.7038188316
   41      C       1.5811737173    -3.4273784901     1.4976174764
   42      C       1.5111177204    -3.3553996715    -2.2224209981
   43      C       1.5620168620    -4.2228534207    -3.2775174021
   44      C       1.6959067514    -5.6074397066    -3.0553882213
   45      C       1.7710182695    -6.0876747551    -1.7789740821
   46      C       0.6680426486     3.9952735154     0.4369085167
   47      C       0.3939929514     5.3657659211     0.2015015941
   48      C       0.2812968573     5.8112457172    -1.1340774853
   49      C       0.4242066052     4.9323541061    -2.1902798816
   50      C       0.6815906032     3.5826277710    -1.9729895242
   51      C       0.7646343861     3.5456799660     1.7633439950
   52      C       0.5949389531     4.4251953026     2.8253830620
   53      C       0.3262422149     5.7644671945     2.5861325651
   54      C       0.2266441151     6.2344818364     1.2815422292
   55      C       0.8034000589     2.6370887852    -3.1153915366
   56      C       1.4751699215    -2.5136121688     2.6864848656
   57      H      -1.0437202724    -2.6167518976     0.1942887504
   58      H      -1.6446655623     2.2821163238    -0.4161615388
   59      H       4.0019712812    -2.0806109554    -0.0715508614
   60      H       3.5019449215     2.8321767605    -0.6659587678
   61      H       6.0732350406     3.8851695006    -1.0077709095
   62      H      10.0300638569     2.2336050450    -1.2203891991
   63      H       8.5077086958     4.1361429098    -1.2984745017
   64      H       6.6616926556    -2.6696840463    -0.2672984977
   65      H       9.1114560661    -2.5498788778    -0.5485904930
   66      H      10.2708994568    -0.4369635401    -0.9208225052
   67      H      -6.8217022509     2.5658689077    -0.3676610859
   68      H      -7.9152618235     0.4016685772    -0.0874199406
   69      H      -4.3719526150     2.7961495923    -0.4305048670
   70      H      -7.5945972808    -2.2408291860     0.2215358856
   71      H      -6.0101147353    -4.0883230451     0.4131819186
   72      H      -3.5743839429    -3.7377155591     0.3437035964
   73      H       1.8801341306    -6.7549976027     0.8303900432
   74      H       1.7522672868    -5.1978756725     2.7184810031
   75      H       1.4061361924    -2.2927187089    -2.4056886288
   76      H       1.4996527769    -3.8466676115    -4.2905276473
   77      H       1.7372516257    -6.2865707443    -3.8972816359
   78      H       1.8724584112    -7.1521285301    -1.6011482494
   79      H       0.0726797011     6.8560978262    -1.3271453212
   80      H       0.3259711790     5.2995964574    -3.2033385931
   81      H       0.9664337244     2.5002454235     1.9508530580
   82      H       0.6695529428     4.0592580986     3.8394283734
   83      H       0.1909143777     6.4465179274     3.4137540757
   84      H       0.0128639729     7.2801135610     1.0990733201
   85      H       0.6975380242     3.1378335320    -4.0758397459
   86      H       0.0438812598     1.8556523890    -3.0413597394
   87      H       1.7655872463     2.1228002642    -3.0888220569
   88      H       1.6630318194    -3.0430221153     3.6208134147
   89      H       0.4791265671    -2.0697884691     2.7515899129
   90      H       2.1864605742    -1.6882091917     2.6231016091
 ----------------------------------------------------------------

    8   -2123.3710612054      7.64E-09 Convergence criterion met
 Total energy in the final basis set = -2123.37106121

         TDDFT/TDA Excitation Energies
 ---------------------------------------------------

 Excited state   1: excitation energy (eV) =    2.4730
 Total energy for state  1:                 -2123.28018160 au
    Multiplicity: Singlet
    Trans. Mom.: -0.2237 X  -0.1150 Y   0.0053 Z
    Strength   :     0.0038343334
    D(184) --> V(  1) amplitude =  0.9770

 Excited state   2: excitation energy (eV) =    2.7599
 Total energy for state  2:                 -2123.26963701 au
    Multiplicity: Singlet
    Trans. Mom.: -0.3339 X  -0.0714 Y   0.0310 Z
    Strength   :     0.0079479709
    D(183) --> V(  1) amplitude =  0.9593

 ---------------------------------------------------

 Final energy is   -2123.28018160116
 **  OPTIMIZATION CONVERGED  **

                    Orbital Energies (a.u.)
 --------------------------------------------------------------

 Alpha MOs
 -- Occupied --
-10.465 -10.464 -10.464 -10.464 -10.464 -10.464 -10.463 -10.462
-10.462 -10.462 -10.462 -10.462 -10.462 -10.461 -10.461 -10.460
-10.460 -10.460 -10.459 -10.459 -10.459 -10.458 -10.455 -10.453
-10.453 -10.453 -10.452 -10.452 -10.452 -10.451 -10.448 -10.447
-10.447 -10.446 -10.445 -10.443 -10.443 -10.443 -10.443 -10.442
-10.442 -10.442 -10.442 -10.441 -10.441 -10.440 -10.435 -10.434
-10.433 -10.433 -10.428 -10.428 -10.428 -10.425  -6.947  -6.942
 -1.015  -1.014  -0.975  -0.972  -0.960  -0.958  -0.933  -0.932
 -0.922  -0.918  -0.907  -0.898  -0.869  -0.865  -0.855  -0.854
 -0.847  -0.846  -0.845  -0.845  -0.823  -0.815  -0.811  -0.808
 -0.804  -0.803  -0.765  -0.760  -0.735  -0.730  -0.727  -0.720
 -0.700  -0.698  -0.689  -0.687  -0.679  -0.672  -0.669  -0.666
 -0.664  -0.656  -0.646  -0.645  -0.597  -0.594  -0.592  -0.589
 -0.583  -0.576  -0.576  -0.575  -0.571  -0.566  -0.564  -0.548
 -0.545  -0.544  -0.531  -0.527  -0.526  -0.512  -0.507  -0.504
 -0.503  -0.502  -0.499  -0.496  -0.493  -0.489  -0.485  -0.483
 -0.482  -0.482  -0.479  -0.479  -0.478  -0.474  -0.471  -0.470
 -0.466  -0.464  -0.453  -0.450  -0.447  -0.443  -0.440  -0.437
 -0.436  -0.435  -0.433  -0.430  -0.430  -0.422  -0.421  -0.414
 -0.407  -0.400  -0.398  -0.394  -0.393  -0.393  -0.391  -0.388
 -0.385  -0.380  -0.379  -0.368  -0.368  -0.364  -0.355  -0.353
 -0.350  -0.335  -0.322  -0.319  -0.316  -0.312  -0.295  -0.293
 -0.280  -0.276  -0.275  -0.261  -0.255  -0.254  -0.244  -0.234

          Ground-State Mulliken Net Atomic Charges

     Atom                 Charge (a.u.)
  ----------------------------------------
      1 C                     0.108265
      2 C                     0.098118
      3 C                    -0.386599
      4 C                    -0.152155
      5 C                    -0.147147
      6 C                    -0.382594
      7 B                     0.701431
      8 C                    -0.152391
      9 C                    -0.149265
     10 B                     0.681512
     11 C                    -0.383839
     12 C                     0.099949
     13 C                     0.111855
     14 C                    -0.393171
     15 C                    -0.381654
     16 C                     0.199957
     17 C                    -0.064516
     18 C                     0.253217
     19 C                    -0.335625
     20 C                    -0.203133
     21 C                     0.194051
     22 C                    -0.374005
     23 C                    -0.206028
     24 C                    -0.331955
     25 C                    -0.203103
     26 C                    -0.334129
     27 C                     0.249695
     28 C                    -0.065532
     29 C                     0.204798
     30 C                    -0.382101
     31 C                    -0.331604
     32 C                    -0.204650
     33 C                    -0.378494
     34 C                     0.198682
     35 C                    -0.248690
     36 C                    -0.228879
     37 C                     0.083346
     38 C                     0.130817
     39 C                    -0.313533
     40 C                    -0.265282
     41 C                     0.016091
     42 C                    -0.327209
     43 C                    -0.234227
     44 C                    -0.231647
     45 C                    -0.284409
     46 C                     0.098961
     47 C                     0.156089
     48 C                    -0.325240
     49 C                    -0.262879
     50 C                     0.024626
     51 C                    -0.340152
     52 C                    -0.233148
     53 C                    -0.230326
     54 C                    -0.299539
     55 C                    -0.754542
     56 C                    -0.755241
     57 H                     0.232756
     58 H                     0.233405
     59 H                     0.231996
     60 H                     0.230307
     61 H                     0.222214
     62 H                     0.220956
     63 H                     0.227101
     64 H                     0.223084
     65 H                     0.227161
     66 H                     0.220823
     67 H                     0.226948
     68 H                     0.220533
     69 H                     0.222680
     70 H                     0.220683
     71 H                     0.226734
     72 H                     0.222246
     73 H                     0.209827
     74 H                     0.208204
     75 H                     0.234848
     76 H                     0.219821
     77 H                     0.217674
     78 H                     0.210185
     79 H                     0.208368
     80 H                     0.207516
     81 H                     0.235204
     82 H                     0.218669
     83 H                     0.216871
     84 H                     0.210701
     85 H                     0.233945
     86 H                     0.248001
     87 H                     0.248170
     88 H                     0.234833
     89 H                     0.246850
     90 H                     0.247856
  ----------------------------------------
  Sum of atomic charges =    -0.000000

                    Cartesian Multipole Moments
 -----------------------------------------------------------------
    Charge (ESU x 10^10)
                -0.0000
    Dipole Moment (Debye)
         X      -0.0176      Y      -0.3973      Z      -0.2913
       Tot       0.4930
    Quadrupole Moments (Debye-Ang)
        XX    -270.3887     XY      -0.5978     YY    -283.9219
        XZ      -4.1491     YZ      -7.1902     ZZ    -313.8697

 Total job time:  34755.54s(wall), 208698.00s(cpu)
        *  Thank you very much for using Q-Chem.  Have a nice day.  *
