 Q-Chem 5.0, Q-Chem, Inc., Pleasanton, CA (2017)
 Q-Chem 5.0.1 for Intel X86 EM64T Linux

User input:
--------------------------------------------------------------
$rem
threads 8
jobtype	opt
method PBEh-3c
basis def2-mSVP
mem_static	1024
mem_total	14000
sym_ignore	true
cis_n_roots             3
cis_singlets            false
cis_triplets		true
rpa                     false
cis_state_deriv         2
state_follow		true
$end

$molecule
read incoords.mol
$end

--------------------------------------------------------------

   15   -2123.3407020086      6.12E-09 Convergence criterion met
 Total energy in the final basis set = -2123.34070201
   13   -2123.3654047220      6.17E-09 Convergence criterion met
 Total energy in the final basis set = -2123.36540472
   13   -2123.3684869411      7.36E-09 Convergence criterion met
 Total energy in the final basis set = -2123.36848694
   13   -2123.3685606196      6.37E-09 Convergence criterion met
 Total energy in the final basis set = -2123.36856062
   13   -2123.3690669237      6.72E-09 Convergence criterion met
 Total energy in the final basis set = -2123.36906692
   13   -2123.3689345483      7.04E-09 Convergence criterion met
 Total energy in the final basis set = -2123.36893455
   13   -2123.3682093302      5.45E-09 Convergence criterion met
 Total energy in the final basis set = -2123.36820933
   12   -2123.3673081118      8.19E-09 Convergence criterion met
   11   -2123.3721183571      7.33E-09 Convergence criterion met
 Total energy in the final basis set = -2123.37211836
   11   -2123.3722387566      5.83E-09 Convergence criterion met
 Total energy in the final basis set = -2123.37223876
   11   -2123.3719454298      6.29E-09 Convergence criterion met
 Total energy in the final basis set = -2123.37194543
   10   -2123.3721366599      7.56E-09 Convergence criterion met
 Total energy in the final basis set = -2123.37213666
   10   -2123.3721346573      5.55E-09 Convergence criterion met
 Total energy in the final basis set = -2123.37213466
    9   -2123.3721025272      9.91E-09 Convergence criterion met
 Total energy in the final basis set = -2123.37210253

             Standard Nuclear Orientation (Angstroms)
    I     Atom           X                Y                Z
 ----------------------------------------------------------------
    1      C      -2.5658339128     0.4169719716    -0.1879968322
    2      C      -2.4044761937    -1.0143202686    -0.0190754137
    3      C      -1.1507471931    -1.5697603024     0.0433049082
    4      C      -0.0154974666    -0.7551562508    -0.0641353930
    5      C      -0.1751710770     0.6756439603    -0.2497139331
    6      C      -1.4651022342     1.2269936303    -0.3028487435
    7      B       1.3811255956    -1.3822064546    -0.0015484412
    8      C       2.6063261857    -0.4792884032    -0.1941926353
    9      C       2.4506968304     0.9596631519    -0.3747549441
   10      B       1.0501355139     1.5849917320    -0.4035526284
   11      C       3.8873545453    -1.0401978250    -0.2210283793
   12      C       4.9885354179    -0.2415175543    -0.4209367601
   13      C       4.8406239493     1.1969336153    -0.5805028748
   14      C       3.5878284705     1.7636680126    -0.5500809479
   15      C       6.6685278869     3.0100217264    -1.0094853928
   16      C       6.1627434119     1.7514610165    -0.7879677504
   17      C       7.0603886012     0.6602497654    -0.7617701002
   18      C       8.4322219622     0.7651803268    -0.9559357797
   19      C       8.9236220294     2.0733436717    -1.1804540012
   20      C       8.0585326514     3.1459364858    -1.2019364203
   21      C       6.3881783985    -0.5624599719    -0.5410371738
   22      C       7.1160548186    -1.7289590340    -0.5105719787
   23      C       8.5090783657    -1.6469736606    -0.7008181632
   24      C       9.1588485055    -0.4502533231    -0.9163783419
   25      C      -6.1612250890     1.7029978359    -0.3038064691
   26      C      -6.7895894450     0.4863228680    -0.1597190877
   27      C      -6.0256038459    -0.6975175670    -0.0321278256
   28      C      -4.6424350450    -0.5401964020    -0.0595656456
   29      C      -3.9888142793     0.7012355014    -0.2080798291
   30      C      -4.7570056598     1.8341915471    -0.3318010122
   31      C      -6.5014336971    -2.0226083653     0.1178175662
   32      C      -5.6135695859    -3.0699773036     0.2255104501
   33      C      -4.2155658822    -2.8846588939     0.1967314560
   34      C      -3.7256606242    -1.6070877977     0.0548106984
   35      C       0.8262851889     3.1282761306    -0.6270190150
   36      C       1.5349395708    -2.9300574764     0.2599786346
   37      C       1.6148936956    -3.8490277362    -0.8233263780
   38      C       1.7348738840    -5.2416082553    -0.5762205844
   39      C       1.7700555597    -5.6911842081     0.7592942364
   40      C       1.6816162593    -4.8002438360     1.7892887335
   41      C       1.5601184838    -3.4126648285     1.5532942924
   42      C       1.5656450807    -3.4154051375    -2.1714547558
   43      C       1.6372656074    -4.3048061750    -3.2069812836
   44      C       1.7637383369    -5.6845751639    -2.9534686284
   45      C       1.8110684422    -6.1387158597    -1.6662433771
   46      C       0.6511047730     4.0000405440     0.4830488179
   47      C       0.3584624573     5.3722452219     0.2779418134
   48      C       0.2560612643     5.8492396381    -1.0457770017
   49      C       0.4272892364     5.0013958930    -2.1021081927
   50      C       0.7076569148     3.6305531572    -1.9076287375
   51      C       0.7418405533     3.5259545678     1.8142908832
   52      C       0.5485998453     4.3622211590     2.8774228306
   53      C       0.2572055103     5.7241249614     2.6667715948
   54      C       0.1669198015     6.2154707018     1.3951334657
   55      C       0.8310499540     2.7236379904    -3.1018476299
   56      C       1.4319442880    -2.4757561095     2.7220648191
   57      H      -1.0313697401    -2.6397770809     0.1717480284
   58      H      -1.5851577741     2.2948610685    -0.4398975659
   59      H       3.9995877403    -2.1115286193    -0.0974686718
   60      H       3.4600953342     2.8326172751    -0.6772049261
   61      H       6.0295659864     3.8829160626    -1.0426534635
   62      H       9.9824175142     2.2337991645    -1.3399454644
   63      H       8.4597243610     4.1354083194    -1.3772589502
   64      H       6.6449701568    -2.6910100937    -0.3534972422
   65      H       9.0890217722    -2.5603704301    -0.6807532188
   66      H      10.2318627850    -0.4424129514    -1.0612496148
   67      H      -6.7660618907     2.5950577332    -0.4001051859
   68      H      -7.8714770521     0.4352866889    -0.1452481263
   69      H      -4.3130186831     2.8142237658    -0.4473385234
   70      H      -7.5669956358    -2.2152002326     0.1461467673
   71      H      -5.9998387174    -4.0750205555     0.3356915396
   72      H      -3.5601929721    -3.7418842797     0.2832474523
   73      H       1.8647695483    -6.7523190822     0.9575562690
   74      H       1.7035364534    -5.1593329780     2.8115658879
   75      H       1.4659133760    -2.3572940057    -2.3838014592
   76      H       1.5963471131    -3.9492808103    -4.2283573136
   77      H       1.8208850711    -6.3806300034    -3.7802349834
   78      H       1.9062330680    -7.1993596669    -1.4648218437
   79      H       0.0344344058     6.8961523138    -1.2155798715
   80      H       0.3396016271     5.3809268958    -3.1136325879
   81      H       0.9653648209     2.4797248764     1.9888928976
   82      H       0.6182987990     3.9781817850     3.8867140638
   83      H       0.1048097788     6.3779750883     3.5153719667
   84      H      -0.0576392601     7.2622499782     1.2273894777
   85      H       0.8472484896     3.2857526305    -4.0355838318
   86      H      -0.0076475608     2.0253094813    -3.1573232426
   87      H       1.7412105909     2.1227347207    -3.0650357180
   88      H       1.6157522652    -2.9838772647     3.6684963483
   89      H       0.4305908972    -2.0418655872     2.7720863894
   90      H       2.1351307151    -1.6436268267     2.6545279983
 ----------------------------------------------------------------

    8   -2123.3720969963      7.12E-09 Convergence criterion met
 Total energy in the final basis set = -2123.37209700

         TDDFT/TDA Excitation Energies
 ---------------------------------------------------

 Excited state   1: excitation energy (eV) =    1.9652
 Total energy for state  1:                 -2123.29987836 au
    Multiplicity: Triplet
    Trans. Mom.:  0.0000 X   0.0000 Y   0.0000 Z
    Strength   :     0.0000000000
    D(177) --> V(  2) amplitude =  0.2221
    D(182) --> V(  1) amplitude =  0.8932
    D(184) --> V(  1) amplitude =  0.2486

 Excited state   2: excitation energy (eV) =    2.3475
 Total energy for state  2:                 -2123.28582954 au
    Multiplicity: Triplet
    Trans. Mom.:  0.0000 X   0.0000 Y   0.0000 Z
    Strength   :     0.0000000000
    D(180) --> V(  2) amplitude =  0.4632
    D(181) --> V(  1) amplitude = -0.7592
    D(183) --> V(  1) amplitude =  0.2855

 Excited state   3: excitation energy (eV) =    2.4209
 Total energy for state  3:                 -2123.28313141 au
    Multiplicity: Triplet
    Trans. Mom.:  0.0000 X   0.0000 Y   0.0000 Z
    Strength   :     0.0000000000
    D(180) --> V(  1) amplitude = -0.7239
    D(180) --> V(  4) amplitude = -0.2203
    D(181) --> V(  2) amplitude =  0.5174

 ---------------------------------------------------

 Final energy is   -2123.29987835588
 **  OPTIMIZATION CONVERGED  **

                    Orbital Energies (a.u.)
 --------------------------------------------------------------

 Alpha MOs
 -- Occupied --
-10.465 -10.465 -10.464 -10.464 -10.464 -10.463 -10.463 -10.463
-10.463 -10.462 -10.462 -10.462 -10.461 -10.461 -10.460 -10.459
-10.459 -10.459 -10.459 -10.459 -10.458 -10.458 -10.453 -10.452
-10.452 -10.452 -10.451 -10.451 -10.451 -10.450 -10.450 -10.450
-10.446 -10.445 -10.444 -10.444 -10.443 -10.443 -10.442 -10.442
-10.442 -10.442 -10.442 -10.442 -10.441 -10.441 -10.435 -10.434
-10.433 -10.433 -10.427 -10.427 -10.427 -10.426  -6.943  -6.943
 -1.013  -1.012  -0.974  -0.974  -0.957  -0.955  -0.933  -0.932
 -0.921  -0.921  -0.904  -0.895  -0.870  -0.866  -0.856  -0.855
 -0.848  -0.846  -0.845  -0.844  -0.817  -0.815  -0.811  -0.808
 -0.807  -0.797  -0.764  -0.764  -0.732  -0.732  -0.728  -0.717
 -0.699  -0.697  -0.688  -0.687  -0.677  -0.671  -0.669  -0.668
 -0.666  -0.656  -0.642  -0.642  -0.598  -0.593  -0.592  -0.589
 -0.582  -0.576  -0.575  -0.574  -0.573  -0.565  -0.565  -0.547
 -0.547  -0.541  -0.530  -0.526  -0.525  -0.510  -0.508  -0.503
 -0.502  -0.501  -0.500  -0.498  -0.491  -0.491  -0.484  -0.483
 -0.482  -0.481  -0.479  -0.479  -0.479  -0.473  -0.471  -0.470
 -0.464  -0.464  -0.452  -0.452  -0.444  -0.443  -0.440  -0.438
 -0.437  -0.434  -0.432  -0.429  -0.428  -0.421  -0.419  -0.411
 -0.406  -0.399  -0.398  -0.395  -0.394  -0.393  -0.388  -0.386
 -0.385  -0.384  -0.376  -0.368  -0.366  -0.365  -0.354  -0.351
 -0.347  -0.335  -0.322  -0.321  -0.316  -0.314  -0.295  -0.294
 -0.275  -0.275  -0.274  -0.261  -0.254  -0.248  -0.244  -0.243

          Ground-State Mulliken Net Atomic Charges

     Atom                 Charge (a.u.)
  ----------------------------------------
      1 C                     0.096507
      2 C                     0.086105
      3 C                    -0.378337
      4 C                    -0.155386
      5 C                    -0.151692
      6 C                    -0.376477
      7 B                     0.691245
      8 C                    -0.155956
      9 C                    -0.157965
     10 B                     0.690717
     11 C                    -0.373414
     12 C                     0.084663
     13 C                     0.098248
     14 C                    -0.386160
     15 C                    -0.374354
     16 C                     0.201656
     17 C                    -0.070829
     18 C                     0.252207
     19 C                    -0.334305
     20 C                    -0.204515
     21 C                     0.198629
     22 C                    -0.367748
     23 C                    -0.206250
     24 C                    -0.331894
     25 C                    -0.204557
     26 C                    -0.332997
     27 C                     0.248494
     28 C                    -0.069725
     29 C                     0.204580
     30 C                    -0.376111
     31 C                    -0.331623
     32 C                    -0.205101
     33 C                    -0.373645
     34 C                     0.202938
     35 C                    -0.231339
     36 C                    -0.225959
     37 C                     0.082416
     38 C                     0.132009
     39 C                    -0.313020
     40 C                    -0.265762
     41 C                     0.017002
     42 C                    -0.327126
     43 C                    -0.233875
     44 C                    -0.231648
     45 C                    -0.284996
     46 C                     0.085691
     47 C                     0.132408
     48 C                    -0.313398
     49 C                    -0.264806
     50 C                     0.017833
     51 C                    -0.324994
     52 C                    -0.234843
     53 C                    -0.231288
     54 C                    -0.285986
     55 C                    -0.756125
     56 C                    -0.755852
     57 H                     0.233639
     58 H                     0.234643
     59 H                     0.232591
     60 H                     0.231692
     61 H                     0.222786
     62 H                     0.220937
     63 H                     0.226999
     64 H                     0.223914
     65 H                     0.227385
     66 H                     0.220617
     67 H                     0.226740
     68 H                     0.220371
     69 H                     0.223167
     70 H                     0.220354
     71 H                     0.226868
     72 H                     0.222720
     73 H                     0.209414
     74 H                     0.208092
     75 H                     0.236554
     76 H                     0.219821
     77 H                     0.217378
     78 H                     0.209987
     79 H                     0.209182
     80 H                     0.207835
     81 H                     0.235818
     82 H                     0.219616
     83 H                     0.217298
     84 H                     0.209996
     85 H                     0.234145
     86 H                     0.246407
     87 H                     0.249467
     88 H                     0.234617
     89 H                     0.247249
     90 H                     0.248415
  ----------------------------------------
  Sum of atomic charges =    -0.000000

                    Cartesian Multipole Moments
 -----------------------------------------------------------------
    Charge (ESU x 10^10)
                -0.0000
    Dipole Moment (Debye)
         X      -0.0532      Y      -0.1102      Z      -0.3333
       Tot       0.3550
    Quadrupole Moments (Debye-Ang)
        XX    -270.8446     XY      -0.6804     YY    -282.5379
        XZ      -5.0320     YZ      -6.9732     ZZ    -313.4735

 Total job time:  55919.80s(wall), 334414.48s(cpu)
        *  Thank you very much for using Q-Chem.  Have a nice day.  *
