 Q-Chem 5.0, Q-Chem, Inc., Pleasanton, CA (2017)
 Q-Chem 5.0.1 for Intel X86 EM64T Linux

User input:
--------------------------------------------------------------
$rem
threads 8
jobtype	opt
method PBEh-3c
basis def2-mSVP
mem_static	1024
mem_total	14000
sym_ignore	true
cis_n_roots             3
cis_singlets            false
cis_triplets		true
rpa                     false
cis_state_deriv         2
state_follow		true
$end

$molecule
read s1opt.mol
$end

--------------------------------------------------------------

   15   -2123.3712089543      7.04E-09 Convergence criterion met
 Total energy in the final basis set = -2123.37120895
   12   -2123.3755450994      9.53E-09 Convergence criterion met
 Total energy in the final basis set = -2123.37554510
   13   -2123.3683565873      5.98E-09 Convergence criterion met
 Total energy in the final basis set = -2123.36835659
   11   -2123.3701423083      8.03E-09 Convergence criterion met
 Total energy in the final basis set = -2123.37014231
   12   -2123.3686895240      5.76E-09 Convergence criterion met
 Total energy in the final basis set = -2123.36868952
   12   -2123.3671632835      5.90E-09 Convergence criterion met
 Total energy in the final basis set = -2123.36716328
   12   -2123.3662773655      5.96E-09 Convergence criterion met
 Total energy in the final basis set = -2123.36627737
   12   -2123.3673526217      7.00E-09 Convergence criterion met
   11   -2123.3723112129      7.42E-09 Convergence criterion met
 Total energy in the final basis set = -2123.37231121
   11   -2123.3722440689      5.47E-09 Convergence criterion met
 Total energy in the final basis set = -2123.37224407
   10   -2123.3723293961      6.13E-09 Convergence criterion met
 Total energy in the final basis set = -2123.37232940
   10   -2123.3724219417      5.83E-09 Convergence criterion met
 Total energy in the final basis set = -2123.37242194
   11   -2123.3724164131      8.03E-09 Convergence criterion met
 Total energy in the final basis set = -2123.37241641
   11   -2123.3724834433      6.15E-09 Convergence criterion met
 Total energy in the final basis set = -2123.37248344

             Standard Nuclear Orientation (Angstroms)
    I     Atom           X                Y                Z
 ----------------------------------------------------------------
    1      C      -0.0185297670     0.0906575956     0.0725343979
    2      C      -0.0143065648     0.0675533493     1.4793519684
    3      H       0.9334523461     0.0647442415     2.0057217500
    4      C      -1.1985761373     0.0500669761     2.1763641726
    5      C      -2.4592458322     0.0546198816     1.4544413914
    6      C      -2.4829030073     0.0667526236     0.0798841662
    7      H      -3.4282280569     0.0644876616    -0.4512584033
    8      C      -1.2877068842     0.0832888258    -0.6440283750
    9      C      -3.5311642805     0.0409614243     2.4175205040
   10      C      -4.9048106974     0.0420349396     2.3335594238
   11      H      -5.4176545364     0.0561341063     1.3802332375
   12      C      -2.9215783186     0.0256491018     3.6905679448
   13      C      -3.6327304714     0.0094831552     4.8852075253
   14      C      -1.5125986522     0.0293280150     3.5936276401
   15      C      -0.7826503206     0.0139224914     4.7569414241
   16      H       0.2995180262     0.0135611954     4.7506990792
   17      C      -1.4777975171    -0.0033195636     5.9851035309
   18      H      -0.9025661641    -0.0157540946     6.9014115809
   19      C      -2.8528806497    -0.0052892057     6.0652235497
   20      H      -3.3362347877    -0.0185208411     7.0340847183
   21      C      -5.6458019758     0.0264787701     3.5308040735
   22      H      -6.7264632271     0.0277765687     3.4721298787
   23      C      -5.0448264759     0.0102349705     4.7713875959
   24      H      -5.6585542920    -0.0014356575     5.6635188718
   25      B       1.3038967818     0.1273434542    -0.7062568832
   26      C       1.2718535188     0.1485024374    -2.2397727065
   27      C       2.4726325636     0.1696004694    -2.9733942116
   28      H       3.4177652300     0.1626287516    -2.4426218429
   29      C       2.4450816496     0.1966375445    -4.3468155483
   30      C       1.1698778832     0.2087013942    -5.0396816011
   31      C      -0.0122778679     0.1817036802    -4.3415597455
   32      H      -0.9587283777     0.1855496322    -4.8705538131
   33      C      -0.0011758853     0.1455067967    -2.9444844644
   34      C       1.4257932764     0.2400433099    -6.4593076911
   35      C       0.6349294662     0.2629848956    -7.5853739439
   36      H      -0.4458673105     0.2643614993    -7.5231060447
   37      C       2.8286619073     0.2421378609    -6.6089783899
   38      C       3.4719777267     0.2634315412    -7.8431699413
   39      C       3.4878964460     0.2163728322    -5.3605727115
   40      C       4.8618780872     0.2106583203    -5.3555613101
   41      H       5.4283960737     0.1881337310    -4.4338341808
   42      C       1.2647086862     0.2861825938    -8.8455357585
   43      H       0.6466782495     0.3044030918    -9.7338462028
   44      C       2.6354877365     0.2861545956    -8.9859625932
   45      H       3.0740729139     0.3033740320    -9.9760823851
   46      C       5.5411027940     0.2319288191    -6.5929013486
   47      H       6.6230998673     0.2267372666    -6.5858986623
   48      C       4.8854362243     0.2578041826    -7.8036000993
   49      H       5.4536070144     0.2729617394    -8.7254600339
   50      B      -1.3265484645     0.0934397500    -2.1766625187
   51      C       2.6779291425     0.1540274650     0.0589216501
   52      C       3.3359399241    -1.0601489720     0.3940300465
   53      C       2.7920082526    -2.3188112506     0.0359776867
   54      H       1.8552928853    -2.3566950584    -0.5085566567
   55      C       3.4270564317    -3.4835348730     0.3634953231
   56      H       2.9941365332    -4.4338416252     0.0792495613
   57      C       4.6446917617    -3.4547228916     1.0713072653
   58      H       5.1392852588    -4.3826025416     1.3274019801
   59      C       5.1976598948    -2.2584123534     1.4309978981
   60      H       6.1350503250    -2.2312135861     1.9741258315
   61      C       4.5633972136    -1.0383789219     1.1032958445
   62      C       5.1131179401     0.2103691457     1.4596374067
   63      H       6.0505885646     0.2394008450     2.0022144187
   64      C       4.4736769527     1.3695383751     1.1241919369
   65      H       4.9091356646     2.3218083789     1.4035647040
   66      C       3.2495513576     1.3565996838     0.4198411250
   67      C       2.5739526790     2.6536068825     0.0689247617
   68      H       3.1481407235     3.5149297985     0.4096536165
   69      H       2.4394864174     2.7548618738    -1.0101437480
   70      H       1.5810723444     2.7226801844     0.5188338887
   71      C      -2.6939394527     0.0278832082    -2.9627053397
   72      C      -3.2228510411    -1.1943528000    -3.3297333176
   73      C      -4.4302929439    -1.2523138330    -4.0606091926
   74      H      -4.8281150203    -2.2209498179    -4.3402342572
   75      C      -5.0989145371    -0.1184695130    -4.4209881256
   76      H      -6.0232268129    -0.1823739556    -4.9829808753
   77      C      -4.5944696781     1.1492491352    -4.0659471410
   78      C      -5.2610031959     2.3428538454    -4.4234825405
   79      H      -6.1855339742     2.2765521092    -4.9851553277
   80      C      -4.7546826098     3.5610145236    -4.0698448090
   81      H      -5.2734303373     4.4688148551    -4.3488390729
   82      C      -3.5529641427     3.6372451038    -3.3392028984
   83      H      -3.1555133282     4.6044475529    -3.0607957482
   84      C      -2.8881809170     2.4979436969    -2.9816028490
   85      H      -1.9643429686     2.5726855532    -2.4197081545
   86      C      -3.3833587063     1.2174452760    -3.3299882163
   87      C      -2.5214400501    -2.4745633347    -2.9676980897
   88      H      -3.0802922603    -3.3485787827    -3.3020412785
   89      H      -1.5288440432    -2.5290720200    -3.4199673704
   90      H      -2.3849926636    -2.5664910814    -1.8884043613
 ----------------------------------------------------------------

    8   -2123.3724649706      5.07E-09 Convergence criterion met
 Total energy in the final basis set = -2123.37246497

         TDDFT/TDA Excitation Energies
 ---------------------------------------------------

 Excited state   1: excitation energy (eV) =    1.9647
 Total energy for state  1:                 -2123.30026386 au
    Multiplicity: Triplet
    Trans. Mom.:  0.0000 X   0.0000 Y   0.0000 Z
    Strength   :     0.0000000000
    D(177) --> V(  2) amplitude =  0.2447
    D(182) --> V(  1) amplitude =  0.8943
    D(184) --> V(  1) amplitude = -0.2319

 Excited state   2: excitation energy (eV) =    2.3496
 Total energy for state  2:                 -2123.28611857 au
    Multiplicity: Triplet
    Trans. Mom.:  0.0000 X   0.0000 Y   0.0000 Z
    Strength   :     0.0000000000
    D(180) --> V(  2) amplitude =  0.4634
    D(181) --> V(  1) amplitude =  0.7710
    D(183) --> V(  1) amplitude =  0.2614

 Excited state   3: excitation energy (eV) =    2.6715
 Total energy for state  3:                 -2123.27428817 au
    Multiplicity: Triplet
    Trans. Mom.:  0.0000 X   0.0000 Y   0.0000 Z
    Strength   :     0.0000000000
    D(182) --> V(  1) amplitude =  0.2450
    D(183) --> V(  1) amplitude = -0.2975
    D(184) --> V(  1) amplitude =  0.8863

 ---------------------------------------------------

 Final energy is   -2123.30026386121
 **  OPTIMIZATION CONVERGED  **

                    Orbital Energies (a.u.)
 --------------------------------------------------------------

 Alpha MOs
 -- Occupied --
-10.465 -10.465 -10.464 -10.464 -10.464 -10.464 -10.463 -10.463
-10.462 -10.462 -10.462 -10.462 -10.461 -10.461 -10.460 -10.460
-10.459 -10.459 -10.459 -10.459 -10.458 -10.458 -10.453 -10.453
-10.452 -10.452 -10.451 -10.451 -10.451 -10.450 -10.450 -10.449
-10.446 -10.446 -10.444 -10.443 -10.443 -10.443 -10.442 -10.442
-10.442 -10.442 -10.442 -10.441 -10.441 -10.441 -10.435 -10.434
-10.434 -10.433 -10.427 -10.427 -10.427 -10.425  -6.944  -6.942
 -1.013  -1.013  -0.974  -0.974  -0.957  -0.955  -0.933  -0.933
 -0.921  -0.921  -0.904  -0.896  -0.870  -0.866  -0.856  -0.855
 -0.847  -0.846  -0.845  -0.844  -0.818  -0.815  -0.811  -0.808
 -0.806  -0.797  -0.764  -0.763  -0.732  -0.732  -0.729  -0.717
 -0.699  -0.696  -0.688  -0.687  -0.677  -0.671  -0.669  -0.668
 -0.666  -0.656  -0.642  -0.642  -0.598  -0.593  -0.592  -0.589
 -0.582  -0.576  -0.575  -0.574  -0.573  -0.565  -0.565  -0.547
 -0.547  -0.542  -0.530  -0.526  -0.525  -0.510  -0.508  -0.503
 -0.502  -0.501  -0.499  -0.498  -0.491  -0.491  -0.484  -0.483
 -0.481  -0.481  -0.479  -0.479  -0.478  -0.473  -0.471  -0.470
 -0.464  -0.464  -0.452  -0.451  -0.444  -0.443  -0.440  -0.438
 -0.437  -0.434  -0.432  -0.429  -0.428  -0.421  -0.419  -0.411
 -0.406  -0.399  -0.398  -0.395  -0.394  -0.393  -0.389  -0.386
 -0.385  -0.384  -0.376  -0.368  -0.366  -0.365  -0.354  -0.352
 -0.347  -0.335  -0.322  -0.321  -0.316  -0.314  -0.295  -0.294
 -0.275  -0.275  -0.274  -0.261  -0.254  -0.248  -0.244  -0.243

          Ground-State Mulliken Net Atomic Charges

     Atom                 Charge (a.u.)
  ----------------------------------------
      1 C                    -0.156256
      2 C                    -0.383519
      3 H                     0.233141
      4 C                     0.104969
      5 C                     0.079651
      6 C                    -0.375107
      7 H                     0.232120
      8 C                    -0.155787
      9 C                     0.199119
     10 C                    -0.367828
     11 H                     0.223067
     12 C                    -0.070120
     13 C                     0.252163
     14 C                     0.203212
     15 C                    -0.378122
     16 H                     0.223003
     17 C                    -0.203767
     18 H                     0.226839
     19 C                    -0.335138
     20 H                     0.220842
     21 C                    -0.206090
     22 H                     0.227283
     23 C                    -0.331358
     24 H                     0.220523
     25 B                     0.694889
     26 C                    -0.158460
     27 C                    -0.384327
     28 H                     0.233302
     29 C                     0.105393
     30 C                     0.078949
     31 C                    -0.372872
     32 H                     0.233607
     33 C                    -0.152620
     34 C                     0.200107
     35 C                    -0.368593
     36 H                     0.223077
     37 C                    -0.069966
     38 C                     0.250358
     39 C                     0.204219
     40 C                    -0.379402
     41 H                     0.222859
     42 C                    -0.206123
     43 H                     0.227162
     44 C                    -0.330277
     45 H                     0.220374
     46 C                    -0.203553
     47 H                     0.226728
     48 C                    -0.334900
     49 H                     0.220832
     50 B                     0.695092
     51 C                    -0.226292
     52 C                     0.084135
     53 C                    -0.327265
     54 H                     0.236684
     55 C                    -0.234914
     56 H                     0.219490
     57 C                    -0.231351
     58 H                     0.217165
     59 C                    -0.285907
     60 H                     0.209856
     61 C                     0.130952
     62 C                    -0.313552
     63 H                     0.209020
     64 C                    -0.266487
     65 H                     0.207673
     66 C                     0.018612
     67 C                    -0.757122
     68 H                     0.234501
     69 H                     0.247766
     70 H                     0.247485
     71 C                    -0.231033
     72 C                     0.017543
     73 C                    -0.266177
     74 H                     0.208235
     75 C                    -0.313337
     76 H                     0.209448
     77 C                     0.133189
     78 C                    -0.285126
     79 H                     0.210135
     80 C                    -0.231654
     81 H                     0.217442
     82 C                    -0.234540
     83 H                     0.219845
     84 C                    -0.327713
     85 H                     0.236039
     86 C                     0.084972
     87 C                    -0.756665
     88 H                     0.234821
     89 H                     0.247768
     90 H                     0.247665
  ----------------------------------------
  Sum of atomic charges =    -0.000000

                    Cartesian Multipole Moments
 -----------------------------------------------------------------
    Charge (ESU x 10^10)
                -0.0000
    Dipole Moment (Debye)
         X      -0.1255      Y       0.0094      Z      -0.0562
       Tot       0.1378
    Quadrupole Moments (Debye-Ang)
        XX    -279.1673     XY       2.4208     YY    -315.3825
        XZ      -4.1070     YZ       1.1051     ZZ    -271.9866

 Total job time:  39457.22s(wall), 235783.87s(cpu)
        *  Thank you very much for using Q-Chem.  Have a nice day.  *
