 Q-Chem 5.0, Q-Chem, Inc., Pleasanton, CA (2017)
 Q-Chem 5.0.1 for Intel X86 EM64T Linux

User input:
--------------------------------------------------------------
$rem
threads 8
jobtype	opt
method PBEh-3c
basis def2-mSVP
mem_static	1024
mem_total	14000
sym_ignore	true
cis_n_roots             4
cis_singlets            false
cis_triplets		true
rpa                     false
cis_state_deriv         3
state_follow		true
$end

$molecule
read s1opt.mol
$end

--------------------------------------------------------------

   15   -2123.3712089543      7.04E-09 Convergence criterion met
 Total energy in the final basis set = -2123.37120895
   13   -2123.3735785228      6.49E-09 Convergence criterion met
 Total energy in the final basis set = -2123.37357852
   12   -2123.3737202368      6.08E-09 Convergence criterion met
 Total energy in the final basis set = -2123.37372024
   13   -2123.3715018447      6.97E-09 Convergence criterion met
 Total energy in the final basis set = -2123.37150184
   11   -2123.3732065328      6.55E-09 Convergence criterion met
 Total energy in the final basis set = -2123.37320653
   13   -2123.3750162434      6.78E-09 Convergence criterion met
 Total energy in the final basis set = -2123.37501624
   13   -2123.3742725856      5.19E-09 Convergence criterion met
 Total energy in the final basis set = -2123.37427259
   13   -2123.3712741119      7.83E-09 Convergence criterion met
   10   -2123.3734229581      9.22E-09 Convergence criterion met
 Total energy in the final basis set = -2123.37342296
   11   -2123.3734056341      9.20E-09 Convergence criterion met
 Total energy in the final basis set = -2123.37340563
   11   -2123.3734322849      4.92E-09 Convergence criterion met
 Total energy in the final basis set = -2123.37343228
   10   -2123.3735241921      4.70E-09 Convergence criterion met
 Total energy in the final basis set = -2123.37352419
    9   -2123.3735448168      6.63E-09 Convergence criterion met
 Total energy in the final basis set = -2123.37354482
    9   -2123.3735478483      9.08E-09 Convergence criterion met
 Total energy in the final basis set = -2123.37354785

             Standard Nuclear Orientation (Angstroms)
    I     Atom           X                Y                Z
 ----------------------------------------------------------------
    1      C      -0.0175378486     0.0387623992     0.0617229191
    2      C      -0.0191509327     0.0022489538     1.4686416747
    3      H       0.9215230005     0.0143031071     2.0081956904
    4      C      -1.2092135392    -0.0491361762     2.1649528482
    5      C      -2.4399799227    -0.0541513119     1.4560423217
    6      C      -2.4565001558    -0.0074679952     0.0808635831
    7      H      -3.3992718280    -0.0026703312    -0.4556524240
    8      C      -1.2552438120     0.0428910452    -0.6383645780
    9      C      -3.5273563242    -0.1108922825     2.4188491028
   10      C      -4.9046689406    -0.1355942227     2.3306653955
   11      H      -5.4146659112    -0.1093713955     1.3758367244
   12      C      -2.9274122529    -0.1436754694     3.6886997964
   13      C      -3.6412530671    -0.2017385683     4.8823155005
   14      C      -1.5223333904    -0.1070008355     3.5903168128
   15      C      -0.7913758190    -0.1329113456     4.7603693555
   16      H       0.2907620499    -0.1092203206     4.7559786476
   17      C      -1.4833804908    -0.1921253608     5.9831193807
   18      H      -0.9095735732    -0.2116094453     6.9003772232
   19      C      -2.8650708003    -0.2262212637     6.0627552162
   20      H      -3.3477628632    -0.2709984052     7.0310030146
   21      C      -5.6490430673    -0.1937902102     3.5207473828
   22      H      -6.7294357067    -0.2124708983     3.4574549678
   23      C      -5.0512079956    -0.2269468016     4.7682495234
   24      H      -5.6674439358    -0.2707162771     5.6575918184
   25      B       1.3027335663     0.1187703160    -0.7415488949
   26      C       1.2807635911     0.1740832993    -2.2868001157
   27      C       2.4730211810     0.1537933232    -3.0321195239
   28      H       3.4283094500     0.0830666182    -2.5224055370
   29      C       2.4359192711     0.2096755838    -4.4115632080
   30      C       1.1849163772     0.2828873974    -5.0775918952
   31      C       0.0090831895     0.2753946150    -4.3649178964
   32      H      -0.9435492209     0.3101113188    -4.8824456464
   33      C       0.0347127540     0.2088452812    -2.9663916806
   34      C       1.4260311539     0.3312770958    -6.5134535176
   35      C       0.6284488358     0.4020370653    -7.6327103240
   36      H      -0.4513218623     0.4439096804    -7.5621894381
   37      C       2.8197894313     0.2814678505    -6.6777075995
   38      C       3.4554529124     0.2944488077    -7.9167543485
   39      C       3.4807225743     0.2055817873    -5.4344885592
   40      C       4.8566095162     0.1396075184    -5.4401576173
   41      H       5.4280585482     0.0754746141    -4.5230705258
   42      C       1.2464456274     0.4200601800    -8.8992925736
   43      H       0.6207122353     0.4758792447    -9.7807812936
   44      C       2.6161262423     0.3673199874    -9.0535496755
   45      H       3.0475995057     0.3805152839   -10.0468831437
   46      C       5.5293328453     0.1518611349    -6.6784949000
   47      H       6.6101822506     0.0984188205    -6.6786560291
   48      C       4.8671773909     0.2264935141    -7.8880987919
   49      H       5.4308192648     0.2306861292    -8.8129264216
   50      B      -1.2921933938     0.1237425962    -2.1800276504
   51      C       2.6835881264     0.1641649456    -0.0102463657
   52      C       3.2334628282    -0.9935707214     0.6094328379
   53      C       2.5654432299    -2.2308869397     0.5665135830
   54      H       1.6161550851    -2.3033251851     0.0506289167
   55      C       3.0933789419    -3.3575924291     1.1822255034
   56      H       2.5555506381    -4.2947499614     1.1358625598
   57      C       4.3093505049    -3.2822585098     1.8475365638
   58      H       4.7210748860    -4.1590426527     2.3289791325
   59      C       5.0053188656    -2.0813524381     1.8840099493
   60      H       5.9579143922    -2.0254120271     2.3964416445
   61      C       4.4918604893    -0.9317266269     1.2671456025
   62      C       5.1879622832     0.2967259532     1.2785382889
   63      H       6.1464792427     0.3563600041     1.7787380345
   64      C       4.6527373487     1.4205262843     0.6663953849
   65      H       5.1999101126     2.3544065294     0.7033473119
   66      C       3.4210169374     1.3802642152     0.0279199476
   67      C       2.8490811761     2.6164813043    -0.5919451163
   68      H       3.3854480198     3.5100134130    -0.2750027543
   69      H       2.8837391336     2.5751284701    -1.6823425665
   70      H       1.7962349522     2.7378549712    -0.3237056345
   71      C      -2.6591907759     0.0806975057    -2.9654429200
   72      C      -3.1646203903    -1.1284416208    -3.4023650764
   73      C      -4.3685744025    -1.1661250258    -4.1394209686
   74      H      -4.7487870248    -2.1245741678    -4.4734989268
   75      C      -5.0554545578    -0.0254623555    -4.4396432875
   76      H      -5.9768521623    -0.0739442145    -5.0079632914
   77      C      -4.5735077656     1.2289582148    -4.0134530051
   78      C      -5.2569905236     2.4299114479    -4.3087682186
   79      H      -6.1782940677     2.3800672270    -4.8774205246
   80      C      -4.7704775744     3.6346746657    -3.8876520063
   81      H      -5.3019742462     4.5483388803    -4.1196091452
   82      C      -3.5728430470     3.6897581175    -3.1483160251
   83      H      -3.1913246249     4.6464830961    -2.8165287073
   84      C      -2.8920826258     2.5429830329    -2.8498351811
   85      H      -1.9708010016     2.6008164485    -2.2814025552
   86      C      -3.3669480695     1.2763901977    -3.2689821013
   87      C      -2.4348963898    -2.4118559579    -3.1161652997
   88      H      -2.9964403119    -3.2803972362    -3.4602827845
   89      H      -1.4612986874    -2.4347592701    -3.6109793762
   90      H      -2.2534755245    -2.5413022037    -2.0473759230
 ----------------------------------------------------------------

    9   -2123.3735448608      9.29E-09 Convergence criterion met
 Total energy in the final basis set = -2123.37354486

         TDDFT/TDA Excitation Energies
 ---------------------------------------------------

 Excited state   1: excitation energy (eV) =    2.2307
 Total energy for state  1:                 -2123.29156808 au
    Multiplicity: Triplet
    Trans. Mom.:  0.0000 X   0.0000 Y   0.0000 Z
    Strength   :     0.0000000000
    D(177) --> V(  2) amplitude = -0.2152
    D(181) --> V(  1) amplitude =  0.8765

 Excited state   2: excitation energy (eV) =    2.3576
 Total energy for state  2:                 -2123.28690629 au
    Multiplicity: Triplet
    Trans. Mom.:  0.0000 X   0.0000 Y   0.0000 Z
    Strength   :     0.0000000000
    D(180) --> V(  1) amplitude =  0.2566
    D(180) --> V(  2) amplitude = -0.3988
    D(181) --> V(  1) amplitude =  0.2182
    D(182) --> V(  1) amplitude =  0.5829
    D(184) --> V(  1) amplitude =  0.3970

 Excited state   3: excitation energy (eV) =    2.4275
 Total energy for state  3:                 -2123.28433747 au
    Multiplicity: Triplet
    Trans. Mom.:  0.0000 X   0.0000 Y   0.0000 Z
    Strength   :     0.0000000000
    D(180) --> V(  1) amplitude = -0.4824
    D(180) --> V(  2) amplitude = -0.2773
    D(182) --> V(  1) amplitude =  0.4347
    D(182) --> V(  2) amplitude =  0.3825
    D(184) --> V(  1) amplitude = -0.3904

 Excited state   4: excitation energy (eV) =    2.4850
 Total energy for state  4:                 -2123.28222436 au
    Multiplicity: Triplet
    Trans. Mom.:  0.0000 X   0.0000 Y   0.0000 Z
    Strength   :     0.0000000000
    D(180) --> V(  1) amplitude = -0.4614
    D(182) --> V(  2) amplitude =  0.3189
    D(184) --> V(  1) amplitude =  0.5462
    D(184) --> V(  3) amplitude =  0.2286
    D(184) --> V(  4) amplitude = -0.2160
    D(184) --> V(  5) amplitude = -0.3922

 ---------------------------------------------------

 Final energy is   -2123.28222435547
 **  OPTIMIZATION CONVERGED  **

                    Orbital Energies (a.u.)
 --------------------------------------------------------------

 Alpha MOs
 -- Occupied --
-10.464 -10.464 -10.464 -10.464 -10.463 -10.463 -10.462 -10.462
-10.462 -10.462 -10.462 -10.462 -10.461 -10.461 -10.460 -10.460
-10.459 -10.459 -10.459 -10.459 -10.458 -10.458 -10.455 -10.453
-10.453 -10.452 -10.452 -10.452 -10.451 -10.450 -10.450 -10.450
-10.446 -10.446 -10.445 -10.445 -10.444 -10.444 -10.443 -10.443
-10.443 -10.443 -10.443 -10.442 -10.442 -10.441 -10.434 -10.433
-10.432 -10.432 -10.430 -10.428 -10.428 -10.427  -6.947  -6.946
 -1.014  -1.014  -0.975  -0.973  -0.959  -0.957  -0.932  -0.931
 -0.922  -0.920  -0.907  -0.898  -0.869  -0.865  -0.853  -0.852
 -0.847  -0.847  -0.846  -0.845  -0.821  -0.814  -0.809  -0.808
 -0.805  -0.802  -0.764  -0.763  -0.733  -0.730  -0.727  -0.719
 -0.701  -0.698  -0.688  -0.686  -0.678  -0.672  -0.669  -0.667
 -0.664  -0.656  -0.645  -0.645  -0.596  -0.594  -0.591  -0.589
 -0.582  -0.575  -0.575  -0.574  -0.572  -0.566  -0.565  -0.547
 -0.547  -0.543  -0.531  -0.527  -0.524  -0.512  -0.506  -0.504
 -0.503  -0.502  -0.499  -0.495  -0.493  -0.489  -0.485  -0.483
 -0.482  -0.481  -0.479  -0.479  -0.478  -0.474  -0.471  -0.469
 -0.466  -0.464  -0.452  -0.451  -0.447  -0.444  -0.440  -0.439
 -0.437  -0.435  -0.433  -0.430  -0.429  -0.421  -0.420  -0.414
 -0.406  -0.400  -0.397  -0.393  -0.393  -0.392  -0.391  -0.388
 -0.385  -0.383  -0.378  -0.368  -0.367  -0.365  -0.354  -0.350
 -0.349  -0.338  -0.322  -0.318  -0.315  -0.311  -0.295  -0.294
 -0.279  -0.278  -0.275  -0.259  -0.254  -0.253  -0.244  -0.236

          Ground-State Mulliken Net Atomic Charges

     Atom                 Charge (a.u.)
  ----------------------------------------
      1 C                    -0.165357
      2 C                    -0.382972
      3 H                     0.233055
      4 C                     0.114075
      5 C                     0.090863
      6 C                    -0.380306
      7 H                     0.231584
      8 C                    -0.159896
      9 C                     0.184251
     10 C                    -0.367745
     11 H                     0.222580
     12 C                    -0.059733
     13 C                     0.259066
     14 C                     0.185385
     15 C                    -0.376636
     16 H                     0.223290
     17 C                    -0.202346
     18 H                     0.226717
     19 C                    -0.340056
     20 H                     0.220760
     21 C                    -0.205912
     22 H                     0.227076
     23 C                    -0.334860
     24 H                     0.220597
     25 B                     0.681655
     26 C                    -0.150755
     27 C                    -0.398976
     28 H                     0.236411
     29 C                     0.114438
     30 C                     0.089399
     31 C                    -0.381037
     32 H                     0.233417
     33 C                    -0.149626
     34 C                     0.191378
     35 C                    -0.372415
     36 H                     0.222489
     37 C                    -0.062188
     38 C                     0.255216
     39 C                     0.191255
     40 C                    -0.381070
     41 H                     0.221490
     42 C                    -0.205879
     43 H                     0.226966
     44 C                    -0.332817
     45 H                     0.220367
     46 C                    -0.201826
     47 H                     0.226477
     48 C                    -0.338768
     49 H                     0.220725
     50 B                     0.698827
     51 C                    -0.223253
     52 C                     0.084450
     53 C                    -0.337489
     54 H                     0.240676
     55 C                    -0.225089
     56 H                     0.220826
     57 C                    -0.230627
     58 H                     0.217970
     59 C                    -0.296724
     60 H                     0.210912
     61 C                     0.150246
     62 C                    -0.321428
     63 H                     0.210425
     64 C                    -0.262987
     65 H                     0.208954
     66 C                     0.022128
     67 C                    -0.745538
     68 H                     0.234605
     69 H                     0.252224
     70 H                     0.246475
     71 C                    -0.229676
     72 C                     0.017433
     73 C                    -0.265927
     74 H                     0.208266
     75 C                    -0.313647
     76 H                     0.209571
     77 C                     0.134397
     78 C                    -0.285319
     79 H                     0.210265
     80 C                    -0.231485
     81 H                     0.217570
     82 C                    -0.234843
     83 H                     0.219880
     84 C                    -0.327307
     85 H                     0.234104
     86 C                     0.086771
     87 C                    -0.756448
     88 H                     0.235029
     89 H                     0.248864
     90 H                     0.247112
  ----------------------------------------
  Sum of atomic charges =    -0.000000

                    Cartesian Multipole Moments
 -----------------------------------------------------------------
    Charge (ESU x 10^10)
                -0.0000
    Dipole Moment (Debye)
         X      -0.0494      Y      -0.0785      Z      -0.0839
       Tot       0.1250
    Quadrupole Moments (Debye-Ang)
        XX    -279.1187     XY       3.4864     YY    -315.9512
        XZ      -3.7325     YZ      -2.4017     ZZ    -272.8743

 Total job time:  55038.49s(wall), 337511.98s(cpu)
        *  Thank you very much for using Q-Chem.  Have a nice day.  *
