 Q-Chem 5.0, Q-Chem, Inc., Pleasanton, CA (2017)
 Q-Chem 5.0.1 for Intel X86 EM64T Linux

User input:
--------------------------------------------------------------
$rem
threads 8
jobtype	sp
method PBEh-3c
basis def2-mSVP
mem_static	1024
mem_total	8000
sym_ignore	true
unrestricted true
scf_convergence	9
solvent_method	pcm
$end

$molecule
read incoords.mol
$end

$solvent
dielectric	2.03
$end

$pcm
theory iefpcm
$end
--------------------------------------------------------------

   17   -3084.7898959950      6.10E-10 Convergence criterion met
 Total energy in the final basis set = -3084.78989599
 Total job time:  4396.11s(wall), 13821.15s(cpu)
        *  Thank you very much for using Q-Chem.  Have a nice day.  *
 Q-Chem 5.0, Q-Chem, Inc., Pleasanton, CA (2017)
 Q-Chem 5.0.1 for Intel X86 EM64T Linux

User input:
--------------------------------------------------------------

$rem
threads 8
jobtype opt
method PBEh-3c
basis def2-mSVP
scf_guess	read
mem_static      1024
mem_total       8000
sym_ignore      true
unrestricted true
mom_start       1
scf_algorithm	diis
scf_max_cycles	250
solvent_method	pcm
geom_opt_tol_energy 25
geom_opt_tol_gradient 75
$end

$solvent
dielectric      2.03
$end
$pcm
theory iefpcm
$end

$occupied
1 2 3 4 5 6 7 8 9 10 11 12 13 14 15 16 17 18 19 20 21 22 23 24 25 26 27 28 29 30 31 32 33 34 35 36 37 38 39 40 41 42 43 44 45 46 47 48 49 50 51 52 53 54 55 56 57 58 59 60 61 62 63 64 65 66 67 68 69 70 71 72 73 74 75 76 77 78 79 80 81 82 83 84 85 86 87 88 89 90 91 92 93 94 95 96 97 98 99 100 101 102 103 104 105 106 107 108 109 110 111 112 113 114 115 116 117 118 119 120 121 122 123 124 125 126 127 128 129 130 131 132 133 134 135 136 137 138 139 140 141 142 143 144 145 146 147 148 149 150 151 152 153 154 155 156 157 158 159 160 161 162 163 164 165 166 167 168 169 170 171 172 173 174 175 176 177 178 179 180 181 182 183 184 185 186 187 188 189 190 191 192 193 194 195 196 197 198 199 200 201 202 203 204 205 206 207 208 209 210 211 212 213 214 215 216 217 218 219 220 221 222 223 224 225 226 227 228 229 230 231 232 233 234 235 236 237 238 239 240 241 242 243 244 245 246 247 248 249 250 251 252 253 254 255 256 257 258 259 260 261 262 263 264 265 266 267 268 269  271
1 2 3 4 5 6 7 8 9 10 11 12 13 14 15 16 17 18 19 20 21 22 23 24 25 26 27 28 29 30 31 32 33 34 35 36 37 38 39 40 41 42 43 44 45 46 47 48 49 50 51 52 53 54 55 56 57 58 59 60 61 62 63 64 65 66 67 68 69 70 71 72 73 74 75 76 77 78 79 80 81 82 83 84 85 86 87 88 89 90 91 92 93 94 95 96 97 98 99 100 101 102 103 104 105 106 107 108 109 110 111 112 113 114 115 116 117 118 119 120 121 122 123 124 125 126 127 128 129 130 131 132 133 134 135 136 137 138 139 140 141 142 143 144 145 146 147 148 149 150 151 152 153 154 155 156 157 158 159 160 161 162 163 164 165 166 167 168 169 170 171 172 173 174 175 176 177 178 179 180 181 182 183 184 185 186 187 188 189 190 191 192 193 194 195 196 197 198 199 200 201 202 203 204 205 206 207 208 209 210 211 212 213 214 215 216 217 218 219 220 221 222 223 224 225 226 227 228 229 230 231 232 233 234 235 236 237 238 239 240 241 242 243 244 245 246 247 248 249 250 251 252 253 254 255 256 257 258 259 260 261 262 263 264 265 266 267 268 269 270
$end

$molecule
read
$end

--------------------------------------------------------------

   20   -3084.7199242512      9.81E-09 Convergence criterion met
 Total energy in the final basis set = -3084.71992425
   17   -3084.7908097839      6.69E-09 Convergence criterion met
 Total energy in the final basis set = -3084.79080978
   13   -3084.7908237387      5.33E-09 Convergence criterion met
 Total energy in the final basis set = -3084.79082374
   12   -3084.7926271840      7.81E-09 Convergence criterion met
 Total energy in the final basis set = -3084.79262718
   12   -3084.7947614446      8.35E-09 Convergence criterion met
 Total energy in the final basis set = -3084.79476144
   13   -3084.7955851240      4.48E-09 Convergence criterion met
 Total energy in the final basis set = -3084.79558512

             Standard Nuclear Orientation (Angstroms)
    I     Atom           X                Y                Z
 ----------------------------------------------------------------
    1      C      -0.0854138395     0.9454951201     0.2027263181
    2      C      -0.0858871090     0.9525383047     1.6024581011
    3      H       0.8564840040     0.9024957122     2.1366277229
    4      C      -1.2830772257     1.0102317418     2.2954319303
    5      C      -2.5023319867     1.0424864953     1.5818369135
    6      C      -2.5134157474     1.0152274566     0.2011945487
    7      H      -3.4530862229     1.0138395112    -0.3401601591
    8      C      -1.3096396695     0.9775848743    -0.5030245057
    9      C      -3.6015156028     1.0884717294     2.5393031061
   10      C      -4.9679165590     1.1315707315     2.4405936747
   11      H      -5.4728845423     1.1385821292     1.4824821162
   12      C      -3.0093707706     1.0804775776     3.8134983631
   13      C      -3.7310115698     1.1132111305     5.0014548408
   14      C      -1.6045513085     1.0330898271     3.7260188233
   15      C      -0.8866037657     1.0184834616     4.8920500178
   16      H       0.1953766498     0.9826268292     4.8978682606
   17      C      -5.7273729552     1.1660161544     3.6329523574
   18      H      -6.8067182649     1.1997142714     3.5600471686
   19      C      -5.1412880644     1.1574891402     4.8773728790
   20      H      -5.7627439919     1.1846551395     5.7640820896
   21      C      -1.5908872841     1.0513387852     6.1204564164
   22      H      -1.0211269449     1.0396968892     7.0402389850
   23      C      -2.9635988614     1.0971924970     6.1897907677
   24      H      -3.4550230963     1.1208690770     7.1546605245
   25      B      -1.3282757028     0.9388403400    -2.0548290143
   26      C       0.0188529005     1.0333375757    -2.8316142395
   27      C       0.0119572430     1.0886211454    -4.2263855768
   28      H      -0.9289663081     1.0922738979    -4.7650276159
   29      C       1.2037183469     1.1193383777    -4.9194668922
   30      C       2.4397713331     1.0662434167    -4.2369811727
   31      C       2.4547554634     0.9904192853    -2.8567642848
   32      H       3.3971577122     0.9160738793    -2.3260603769
   33      C       1.2505036326     0.9892096390    -2.1392855334
   34      C       1.4642009759     1.1659185033    -6.3541900725
   35      C       0.6828339272     1.2174951402    -7.4785834954
   36      H      -0.3986877323     1.2420930427    -7.4239610713
   37      C       2.8620919068     1.1354321382    -6.4967153414
   38      C       3.5140751522     1.1504631526    -7.7249082635
   39      C       3.5060327105     1.0747603301    -5.2457092117
   40      C       4.8744421669     1.0283895508    -5.2278073991
   41      H       5.4331171443     0.9785891594    -4.3016059928
   42      C       1.3193953501     1.2374662496    -8.7415172182
   43      H       0.7038869047     1.2785485775    -9.6308480002
   44      C       2.6879173634     1.2047621328    -8.8743586442
   45      H       3.1340386902     1.2190915116    -9.8612502894
   46      C       5.5695977840     1.0444217819    -6.4616111792
   47      H       6.6508087564     1.0075669887    -6.4424726180
   48      C       4.9268169509     1.1031036809    -7.6760822004
   49      H       5.5023428944     1.1112333014    -8.5935813697
   50      B       1.2513829774     0.8626219657    -0.5847994206
   51      C       2.6035797234     0.6061865226     0.1615309800
   52      C       2.9069397588    -0.7055767641     0.5629051736
   53      C       4.1335235016    -0.9790379630     1.1551217218
   54      H       4.3769765614    -1.9957075270     1.4436578346
   55      C       5.0589474513     0.0327307853     1.3737752926
   56      C       4.7481169018     1.3324815179     0.9968433369
   57      H       5.4646748241     2.1261794233     1.1757704065
   58      C       3.5389863217     1.6231799457     0.3822686921
   59      N       6.3118055588    -0.2512209766     1.9555485035
   60      C       6.3778686765    -1.0434095878     3.1082686383
   61      C       7.4046036896    -1.9727613946     3.2855864930
   62      H       8.1656426117    -2.0883572647     2.5249828973
   63      C       7.4506147803    -2.7551479581     4.4268384569
   64      H       8.2550455595    -3.4699808512     4.5438136193
   65      C       6.4686814866    -2.6469249694     5.4014246690
   66      H       6.5022774177    -3.2668926948     6.2871680153
   67      C       5.4402330281    -1.7341225878     5.2202853215
   68      H       4.6654640572    -1.6341349841     5.9697209195
   69      C       5.3957502275    -0.9314026077     4.0923628550
   70      H       4.5906176433    -0.2180985744     3.9712353745
   71      C       7.4717848267     0.1863391402     1.2991918604
   72      C       8.5574545730     0.6803221218     2.0214025014
   73      H       8.5069381196     0.7283960907     3.1015551261
   74      C       9.6959045676     1.1134327954     1.3622101493
   75      H      10.5284569032     1.4949295469     1.9392826476
   76      C       9.7663930123     1.0827424365    -0.0229240078
   77      H      10.6538271016     1.4307217905    -0.5342450808
   78      C       8.6830178207     0.6007817777    -0.7438552339
   79      H       8.7240552418     0.5648569147    -1.8250544869
   80      C       7.5477500260     0.1479068150    -0.0938729835
   81      H       6.7143410225    -0.2380955450    -0.6669030326
   82      C       1.9682080371    -1.8552208768     0.2867481638
   83      H       0.9283402375    -1.5267129173     0.3567175093
   84      H       2.0916008519    -2.6134133302     1.0637523761
   85      C       3.2205446272     3.0516769123     0.0174450130
   86      H       2.6481570300     3.0850469299    -0.9141088647
   87      H       4.1473065463     3.5948450826    -0.1818699699
   88      C       2.1984803401    -2.4982194785    -1.0802727240
   89      H       2.0367713528    -1.7886159485    -1.8919125354
   90      H       3.2170624062    -2.8769224111    -1.1702790003
   91      H       1.5152331126    -3.3349674193    -1.2318165469
   92      C       2.4367686372     3.7764223234     1.1107264310
   93      H       1.4746209542     3.2975104673     1.2910105741
   94      H       2.9875819996     3.7827649253     2.0518185874
   95      H       2.2403852257     4.8112970247     0.8288408302
   96      C      -2.6678726879     0.7400571997    -2.8504423852
   97      C      -3.1387038134    -0.5689236156    -3.0387966701
   98      C      -4.2882099181    -0.8025133332    -3.7807522850
   99      H      -4.6413115958    -1.8206742243    -3.9006414928
  100      C      -4.9843224172     0.2424139657    -4.3788697972
  101      N      -6.1252473719    -0.0094352540    -5.1541482553
  102      C      -4.5110021580     1.5388968747    -4.2041165132
  103      H      -5.0309007424     2.3684271347    -4.6695657686
  104      C      -3.3778371879     1.7913834717    -3.4437973860
  105      C      -6.2233920283    -1.1999310060    -5.8982501326
  106      C      -7.3790189478    -1.9738430201    -5.8327794988
  107      H      -8.1995367445    -1.6596673097    -5.2005441168
  108      C      -7.4818377835    -3.1396829512    -6.5747762333
  109      H      -8.3869116043    -3.7302537556    -6.5152052820
  110      C      -6.4289666619    -3.5601546493    -7.3740776416
  111      H      -6.5086705474    -4.4750460452    -7.9458138359
  112      C      -5.2723414644    -2.7951739968    -7.4330266215
  113      H      -4.4466074041    -3.1086360096    -8.0584485164
  114      C      -5.1705490609    -1.6172944074    -6.7105037986
  115      H      -4.2707053878    -1.0182010784    -6.7683602248
  116      C      -7.2271636369     0.8642414878    -5.1345311509
  117      C      -7.8979943141     1.1675994141    -6.3185365342
  118      H      -7.5528987092     0.7465792935    -7.2540247419
  119      C      -9.0059337152     1.9989836718    -6.3015019613
  120      H      -9.5164534472     2.2224114342    -7.2294542409
  121      C      -9.4526205554     2.5557321431    -5.1121690329
  122      H     -10.3139940227     3.2101301858    -5.1043639601
  123      C      -8.7827756375     2.2612748162    -3.9330472032
  124      H      -9.1267940497     2.6795225705    -2.9959768353
  125      C      -7.6862354180     1.4151202567    -3.9379894729
  126      H      -7.1843946000     1.1744747470    -3.0099654151
  127      C      -2.3883398735    -1.7689686878    -2.5191907691
  128      H      -1.7750990130    -1.5042291126    -1.6548527742
  129      H      -3.1011616612    -2.5146698015    -2.1571915067
  130      C      -2.9593591392     3.2254509950    -3.2446334979
  131      H      -1.8798552263     3.2935827110    -3.0858958717
  132      H      -3.1639790808     3.7960761589    -4.1543794725
  133      C      -1.5077221760    -2.3962229833    -3.5979853653
  134      H      -0.7697882883    -1.6843936383    -3.9687471523
  135      H      -0.9707080464    -3.2627509578    -3.2100418570
  136      H      -2.1072077151    -2.7259561435    -4.4476347215
  137      C      -3.6915806375     3.8778008991    -2.0736092038
  138      H      -3.4795260312     3.3626012137    -1.1367693347
  139      H      -3.3899655894     4.9185509408    -1.9541150324
  140      H      -4.7712117852     3.8571322864    -2.2283745392
 ----------------------------------------------------------------

   12   -3084.7965619789      8.93E-09 Convergence criterion met
 Total energy in the final basis set = -3084.79656198

                    Orbital Energies (a.u.)
 --------------------------------------------------------------

 Alpha MOs
 -- Occupied --
-14.669 -14.668 -10.491 -10.490 -10.490 -10.490 -10.485 -10.483
-10.464 -10.464 -10.464 -10.464 -10.464 -10.463 -10.463 -10.463
-10.462 -10.462 -10.461 -10.461 -10.461 -10.461 -10.461 -10.460
-10.459 -10.459 -10.458 -10.458 -10.458 -10.458 -10.454 -10.454
-10.452 -10.451 -10.451 -10.451 -10.449 -10.449 -10.448 -10.448
-10.448 -10.448 -10.447 -10.447 -10.446 -10.446 -10.446 -10.446
-10.446 -10.445 -10.445 -10.445 -10.444 -10.444 -10.444 -10.443
-10.442 -10.442 -10.442 -10.439 -10.436 -10.436 -10.435 -10.434
-10.434 -10.433 -10.433 -10.433 -10.433 -10.433 -10.433 -10.432
-10.422 -10.420 -10.420 -10.419 -10.419 -10.418  -6.949  -6.949
 -1.079  -1.079  -1.016  -1.016  -0.964  -0.961  -0.961  -0.959
 -0.959  -0.959  -0.940  -0.939  -0.933  -0.932  -0.909  -0.901
 -0.888  -0.888  -0.868  -0.866  -0.854  -0.854  -0.851  -0.850
 -0.846  -0.846  -0.840  -0.839  -0.838  -0.835  -0.824  -0.822
 -0.819  -0.813  -0.812  -0.805  -0.801  -0.798  -0.791  -0.790
 -0.735  -0.730  -0.726  -0.720  -0.717  -0.715  -0.711  -0.710
 -0.699  -0.699  -0.698  -0.697  -0.688  -0.683  -0.680  -0.679
 -0.679  -0.673  -0.667  -0.665  -0.649  -0.647  -0.638  -0.636
 -0.632  -0.630  -0.605  -0.605  -0.595  -0.594  -0.591  -0.588
 -0.586  -0.585  -0.583  -0.575  -0.573  -0.562  -0.561  -0.555
 -0.554  -0.544  -0.543  -0.542  -0.541  -0.537  -0.527  -0.524
 -0.524  -0.521  -0.516  -0.512  -0.509  -0.507  -0.502  -0.502
 -0.501  -0.499  -0.498  -0.496  -0.496  -0.495  -0.494  -0.489
 -0.489  -0.487  -0.485  -0.484  -0.484  -0.483  -0.483  -0.482
 -0.481  -0.480  -0.477  -0.477  -0.475  -0.468  -0.467  -0.466
 -0.462  -0.455  -0.453  -0.450  -0.442  -0.439  -0.436  -0.435
 -0.434  -0.434  -0.431  -0.428  -0.427  -0.426  -0.426  -0.425
 -0.424  -0.421  -0.419  -0.417  -0.413  -0.410  -0.406  -0.406
 -0.403  -0.403  -0.399  -0.398  -0.397  -0.397  -0.395  -0.395
 -0.394  -0.393  -0.392  -0.391  -0.390  -0.387  -0.387  -0.384
 -0.379  -0.372  -0.368  -0.365  -0.356  -0.355  -0.352  -0.350
 -0.343  -0.339  -0.318  -0.313  -0.305  -0.302  -0.299  -0.299
 -0.296  -0.295  -0.294  -0.294  -0.286  -0.284  -0.280  -0.275
 -0.273  -0.261  -0.257  -0.255  -0.221  -0.220

 Beta MOs
 -- Occupied --
-14.669 -14.668 -10.491 -10.490 -10.490 -10.490 -10.485 -10.483
-10.464 -10.464 -10.464 -10.464 -10.464 -10.463 -10.463 -10.463
-10.462 -10.462 -10.461 -10.461 -10.461 -10.461 -10.461 -10.460
-10.459 -10.459 -10.458 -10.458 -10.458 -10.458 -10.454 -10.454
-10.452 -10.451 -10.451 -10.451 -10.449 -10.449 -10.448 -10.448
-10.448 -10.448 -10.447 -10.447 -10.446 -10.446 -10.446 -10.446
-10.446 -10.445 -10.445 -10.445 -10.444 -10.444 -10.444 -10.443
-10.442 -10.442 -10.442 -10.439 -10.436 -10.436 -10.435 -10.434
-10.434 -10.433 -10.433 -10.433 -10.433 -10.433 -10.433 -10.432
-10.422 -10.420 -10.420 -10.419 -10.419 -10.418  -6.949  -6.949
 -1.079  -1.079  -1.016  -1.016  -0.964  -0.961  -0.961  -0.959
 -0.959  -0.959  -0.940  -0.939  -0.933  -0.932  -0.909  -0.901
 -0.888  -0.888  -0.868  -0.866  -0.854  -0.854  -0.851  -0.850
 -0.846  -0.846  -0.840  -0.839  -0.838  -0.835  -0.824  -0.822
 -0.819  -0.813  -0.812  -0.805  -0.801  -0.798  -0.791  -0.790
 -0.735  -0.730  -0.726  -0.720  -0.717  -0.715  -0.711  -0.710
 -0.699  -0.699  -0.698  -0.697  -0.688  -0.683  -0.680  -0.679
 -0.679  -0.673  -0.667  -0.665  -0.649  -0.647  -0.638  -0.636
 -0.632  -0.630  -0.605  -0.605  -0.595  -0.594  -0.591  -0.588
 -0.586  -0.585  -0.583  -0.575  -0.573  -0.562  -0.561  -0.555
 -0.554  -0.544  -0.543  -0.542  -0.541  -0.537  -0.527  -0.524
 -0.524  -0.521  -0.516  -0.512  -0.509  -0.507  -0.502  -0.502
 -0.501  -0.499  -0.498  -0.496  -0.496  -0.495  -0.494  -0.489
 -0.489  -0.487  -0.485  -0.484  -0.484  -0.483  -0.483  -0.482
 -0.481  -0.480  -0.477  -0.477  -0.475  -0.468  -0.467  -0.466
 -0.462  -0.455  -0.453  -0.450  -0.442  -0.439  -0.436  -0.435
 -0.434  -0.434  -0.431  -0.428  -0.427  -0.426  -0.426  -0.425
 -0.424  -0.421  -0.419  -0.417  -0.413  -0.410  -0.406  -0.406
 -0.403  -0.403  -0.399  -0.398  -0.397  -0.397  -0.395  -0.395
 -0.394  -0.393  -0.392  -0.391  -0.390  -0.387  -0.387  -0.384
 -0.379  -0.372  -0.368  -0.365  -0.356  -0.355  -0.352  -0.350
 -0.343  -0.339  -0.318  -0.313  -0.305  -0.302  -0.299  -0.299
 -0.296  -0.295  -0.294  -0.294  -0.286  -0.284  -0.280  -0.275
 -0.273  -0.261  -0.257  -0.255  -0.221  -0.220

          Ground-State Mulliken Net Atomic Charges

     Atom                 Charge (a.u.)    Spin (a.u.)
  --------------------------------------------------------
      1 C                    -0.149558      -0.000000
      2 C                    -0.397123      -0.000000
      3 H                     0.240043       0.000000
      4 C                     0.105271       0.000000
      5 C                     0.080709       0.000000
      6 C                    -0.390107       0.000000
      7 H                     0.237733       0.000000
      8 C                    -0.153365      -0.000000
      9 C                     0.187698      -0.000003
     10 C                    -0.383053       0.000003
     11 H                     0.232429      -0.000000
     12 C                    -0.063906       0.000003
     13 C                     0.241888      -0.000003
     14 C                     0.189856      -0.000003
     15 C                    -0.392307       0.000003
     16 H                     0.232200      -0.000000
     17 C                    -0.218026      -0.000003
     18 H                     0.240019       0.000000
     19 C                    -0.339511       0.000004
     20 H                     0.234892      -0.000000
     21 C                    -0.215091      -0.000003
     22 H                     0.239595       0.000000
     23 C                    -0.343962       0.000004
     24 H                     0.235262      -0.000000
     25 B                     0.657128      -0.000000
     26 C                    -0.153434      -0.000000
     27 C                    -0.386052      -0.000000
     28 H                     0.239104       0.000000
     29 C                     0.078097       0.000000
     30 C                     0.107431       0.000000
     31 C                    -0.393913      -0.000000
     32 H                     0.237836       0.000000
     33 C                    -0.153168      -0.000000
     34 C                     0.190368      -0.000003
     35 C                    -0.383775       0.000003
     36 H                     0.232985      -0.000000
     37 C                    -0.064961       0.000003
     38 C                     0.240274      -0.000003
     39 C                     0.192021      -0.000003
     40 C                    -0.391935       0.000003
     41 H                     0.231099      -0.000000
     42 C                    -0.218360      -0.000003
     43 H                     0.240129       0.000000
     44 C                    -0.339106       0.000004
     45 H                     0.234689      -0.000000
     46 C                    -0.215134      -0.000003
     47 H                     0.238740       0.000000
     48 C                    -0.343788       0.000004
     49 H                     0.235127      -0.000000
     50 B                     0.657505      -0.000000
     51 C                    -0.217538       0.000000
     52 C                     0.062576       0.000000
     53 C                    -0.350791      -0.000000
     54 H                     0.238888       0.000000
     55 C                     0.282767       0.000000
     56 C                    -0.348529      -0.000000
     57 H                     0.236438       0.000000
     58 C                     0.080788      -0.000000
     59 N                    -0.673273      -0.000000
     60 C                     0.311493      -0.000000
     61 C                    -0.298153       0.000000
     62 H                     0.254284      -0.000000
     63 C                    -0.225086      -0.000000
     64 H                     0.231764       0.000000
     65 C                    -0.254127       0.000000
     66 H                     0.228291      -0.000000
     67 C                    -0.223420      -0.000000
     68 H                     0.229802       0.000000
     69 C                    -0.293095       0.000000
     70 H                     0.249767      -0.000000
     71 C                     0.297659      -0.000000
     72 C                    -0.286097       0.000000
     73 H                     0.253807      -0.000000
     74 C                    -0.227191      -0.000000
     75 H                     0.232881       0.000000
     76 C                    -0.250633       0.000000
     77 H                     0.229531      -0.000000
     78 C                    -0.225128      -0.000000
     79 H                     0.228767       0.000000
     80 C                    -0.286823       0.000000
     81 H                     0.249658      -0.000000
     82 C                    -0.559856      -0.000000
     83 H                     0.260112       0.000000
     84 H                     0.239966       0.000000
     85 C                    -0.547669      -0.000000
     86 H                     0.252444       0.000000
     87 H                     0.236424       0.000000
     88 C                    -0.651500      -0.000000
     89 H                     0.244441       0.000000
     90 H                     0.220017      -0.000000
     91 H                     0.221793      -0.000000
     92 C                    -0.651523      -0.000000
     93 H                     0.239802       0.000000
     94 H                     0.218835      -0.000000
     95 H                     0.224823       0.000000
     96 C                    -0.229978      -0.000000
     97 C                     0.065781       0.000000
     98 C                    -0.374297      -0.000000
     99 H                     0.243106       0.000000
    100 C                     0.327025       0.000000
    101 N                    -0.674621      -0.000000
    102 C                    -0.364349      -0.000000
    103 H                     0.240780       0.000000
    104 C                     0.080890       0.000000
    105 C                     0.277434       0.000000
    106 C                    -0.278972      -0.000000
    107 H                     0.251524       0.000000
    108 C                    -0.227618       0.000000
    109 H                     0.233776      -0.000000
    110 C                    -0.247085      -0.000000
    111 H                     0.231251       0.000000
    112 C                    -0.228660       0.000000
    113 H                     0.233722      -0.000000
    114 C                    -0.274910      -0.000000
    115 H                     0.249261       0.000000
    116 C                     0.287042       0.000000
    117 C                    -0.283354      -0.000000
    118 H                     0.251299       0.000000
    119 C                    -0.225733       0.000000
    120 H                     0.233345      -0.000000
    121 C                    -0.249242      -0.000000
    122 H                     0.230720       0.000000
    123 C                    -0.227110       0.000000
    124 H                     0.232321      -0.000000
    125 C                    -0.282566      -0.000000
    126 H                     0.249702       0.000000
    127 C                    -0.559812      -0.000000
    128 H                     0.259198       0.000000
    129 H                     0.239492       0.000000
    130 C                    -0.543842      -0.000000
    131 H                     0.248973       0.000000
    132 H                     0.234753       0.000000
    133 C                    -0.648937       0.000000
    134 H                     0.241107       0.000000
    135 H                     0.221443       0.000000
    136 H                     0.220217      -0.000000
    137 C                    -0.647557       0.000000
    138 H                     0.233179      -0.000000
    139 H                     0.224420       0.000000
    140 H                     0.219002      -0.000000
  --------------------------------------------------------
  Sum of atomic charges =    -0.000000

                    Cartesian Multipole Moments
 -----------------------------------------------------------------
    Charge (ESU x 10^10)
                -0.0000
    Dipole Moment (Debye)
         X      -0.8836      Y      -0.0425      Z      -0.5684
       Tot       1.0515
    Quadrupole Moments (Debye-Ang)
        XX    -414.0638     XY      -1.3870     YY    -462.0374
        XZ     -14.4837     YZ       1.1817     ZZ    -399.7365
