 Q-Chem 5.0, Q-Chem, Inc., Pleasanton, CA (2017)
 Q-Chem 5.0.1 for Intel X86 EM64T Linux

User input:
--------------------------------------------------------------
$rem
threads 8
jobtype	sp
method PBEh-3c
basis def2-mSVP
mem_static	1024
mem_total	8000
sym_ignore	true
unrestricted true
scf_convergence	9
solvent_method	pcm
$end

$molecule
read incoords.mol
$end

$solvent
dielectric	2.38
$end

$pcm
theory iefpcm
$end
--------------------------------------------------------------

   17   -3084.7897621761      5.74E-10 Convergence criterion met
 Total energy in the final basis set = -3084.78976218

                    Orbital Energies (a.u.)
 --------------------------------------------------------------

 Alpha MOs
 -- Occupied --
-14.669 -14.668 -10.490 -10.490 -10.490 -10.490 -10.485 -10.481
-10.465 -10.464 -10.464 -10.464 -10.464 -10.464 -10.463 -10.463
-10.462 -10.462 -10.462 -10.461 -10.461 -10.461 -10.461 -10.460
-10.460 -10.459 -10.458 -10.458 -10.457 -10.457 -10.455 -10.453
-10.453 -10.451 -10.451 -10.451 -10.449 -10.449 -10.449 -10.449
-10.447 -10.447 -10.447 -10.447 -10.447 -10.447 -10.447 -10.446
-10.446 -10.445 -10.445 -10.445 -10.444 -10.444 -10.443 -10.443
-10.441 -10.440 -10.440 -10.437 -10.436 -10.436 -10.436 -10.435
-10.434 -10.433 -10.433 -10.432 -10.430 -10.428 -10.428 -10.426
-10.425 -10.419 -10.418 -10.417 -10.416 -10.416  -6.947  -6.941
 -1.084  -1.079  -1.015  -1.015  -0.963  -0.963  -0.960  -0.958
 -0.958  -0.957  -0.938  -0.938  -0.932  -0.932  -0.907  -0.898
 -0.888  -0.887  -0.867  -0.863  -0.855  -0.854  -0.851  -0.850
 -0.846  -0.845  -0.842  -0.841  -0.839  -0.834  -0.824  -0.820
 -0.819  -0.813  -0.811  -0.803  -0.801  -0.797  -0.790  -0.783
 -0.735  -0.730  -0.726  -0.720  -0.715  -0.714  -0.711  -0.710
 -0.699  -0.698  -0.697  -0.695  -0.688  -0.685  -0.681  -0.679
 -0.678  -0.674  -0.667  -0.665  -0.647  -0.645  -0.637  -0.635
 -0.631  -0.627  -0.605  -0.602  -0.595  -0.593  -0.590  -0.588
 -0.584  -0.584  -0.582  -0.575  -0.575  -0.561  -0.560  -0.554
 -0.553  -0.543  -0.543  -0.541  -0.540  -0.536  -0.526  -0.525
 -0.523  -0.519  -0.516  -0.513  -0.509  -0.507  -0.503  -0.501
 -0.500  -0.498  -0.496  -0.495  -0.495  -0.494  -0.493  -0.489
 -0.488  -0.487  -0.487  -0.485  -0.484  -0.484  -0.482  -0.482
 -0.481  -0.478  -0.477  -0.476  -0.474  -0.468  -0.465  -0.461
 -0.461  -0.455  -0.454  -0.450  -0.442  -0.440  -0.436  -0.434
 -0.433  -0.433  -0.430  -0.427  -0.426  -0.426  -0.425  -0.424
 -0.423  -0.421  -0.419  -0.415  -0.413  -0.410  -0.406  -0.404
 -0.402  -0.401  -0.399  -0.398  -0.397  -0.396  -0.395  -0.394
 -0.394  -0.393  -0.392  -0.390  -0.390  -0.386  -0.385  -0.382
 -0.378  -0.373  -0.367  -0.359  -0.357  -0.354  -0.352  -0.348
 -0.344  -0.335  -0.319  -0.313  -0.308  -0.300  -0.300  -0.299
 -0.297  -0.295  -0.294  -0.293  -0.285  -0.282  -0.280  -0.275
 -0.273  -0.261  -0.255  -0.254  -0.222  -0.213

 Beta MOs
 -- Occupied --
-14.669 -14.668 -10.490 -10.490 -10.490 -10.490 -10.485 -10.481
-10.465 -10.464 -10.464 -10.464 -10.464 -10.464 -10.463 -10.463
-10.462 -10.462 -10.462 -10.461 -10.461 -10.461 -10.461 -10.460
-10.460 -10.459 -10.458 -10.458 -10.457 -10.457 -10.455 -10.453
-10.453 -10.451 -10.451 -10.451 -10.449 -10.449 -10.449 -10.449
-10.447 -10.447 -10.447 -10.447 -10.447 -10.447 -10.447 -10.446
-10.446 -10.445 -10.445 -10.445 -10.444 -10.444 -10.443 -10.443
-10.441 -10.440 -10.440 -10.437 -10.436 -10.436 -10.436 -10.435
-10.434 -10.433 -10.433 -10.432 -10.430 -10.428 -10.428 -10.426
-10.425 -10.419 -10.418 -10.417 -10.416 -10.416  -6.947  -6.941
 -1.084  -1.079  -1.015  -1.015  -0.963  -0.963  -0.960  -0.958
 -0.958  -0.957  -0.938  -0.938  -0.932  -0.932  -0.907  -0.898
 -0.888  -0.887  -0.867  -0.863  -0.855  -0.854  -0.851  -0.850
 -0.846  -0.845  -0.842  -0.841  -0.839  -0.834  -0.824  -0.820
 -0.819  -0.813  -0.811  -0.803  -0.801  -0.797  -0.790  -0.783
 -0.735  -0.730  -0.726  -0.720  -0.715  -0.714  -0.711  -0.710
 -0.699  -0.698  -0.697  -0.695  -0.688  -0.685  -0.681  -0.679
 -0.678  -0.674  -0.667  -0.665  -0.647  -0.645  -0.637  -0.635
 -0.631  -0.627  -0.605  -0.602  -0.595  -0.593  -0.590  -0.588
 -0.584  -0.584  -0.582  -0.575  -0.575  -0.561  -0.560  -0.554
 -0.553  -0.543  -0.543  -0.541  -0.540  -0.536  -0.526  -0.525
 -0.523  -0.519  -0.516  -0.513  -0.509  -0.507  -0.503  -0.501
 -0.500  -0.498  -0.496  -0.495  -0.495  -0.494  -0.493  -0.489
 -0.488  -0.487  -0.487  -0.485  -0.484  -0.484  -0.482  -0.482
 -0.481  -0.478  -0.477  -0.476  -0.474  -0.468  -0.465  -0.461
 -0.461  -0.455  -0.454  -0.450  -0.442  -0.440  -0.436  -0.434
 -0.433  -0.433  -0.430  -0.427  -0.426  -0.426  -0.425  -0.424
 -0.423  -0.421  -0.419  -0.415  -0.413  -0.410  -0.406  -0.404
 -0.402  -0.401  -0.399  -0.398  -0.397  -0.396  -0.395  -0.394
 -0.394  -0.393  -0.392  -0.390  -0.390  -0.386  -0.385  -0.382
 -0.378  -0.373  -0.367  -0.359  -0.357  -0.354  -0.352  -0.348
 -0.344  -0.335  -0.319  -0.313  -0.308  -0.300  -0.300  -0.299
 -0.297  -0.295  -0.294  -0.293  -0.285  -0.282  -0.280  -0.275
 -0.273  -0.261  -0.255  -0.254  -0.222  -0.213

          Ground-State Mulliken Net Atomic Charges

     Atom                 Charge (a.u.)    Spin (a.u.)
  --------------------------------------------------------
      1 C                    -0.150434       0.000000
      2 C                    -0.401800      -0.000000
      3 H                     0.240599      -0.000000
      4 C                     0.110417      -0.000000
      5 C                     0.087482      -0.000000
      6 C                    -0.396940       0.000000
      7 H                     0.241790       0.000000
      8 C                    -0.147184      -0.000000
      9 C                     0.188203       0.000000
     10 C                    -0.384181       0.000000
     11 H                     0.236631       0.000000
     12 C                    -0.066663       0.000000
     13 C                     0.240400      -0.000000
     14 C                     0.188015       0.000000
     15 C                    -0.392397       0.000000
     16 H                     0.235842       0.000000
     17 C                    -0.219556      -0.000000
     18 H                     0.242965      -0.000000
     19 C                    -0.340844       0.000000
     20 H                     0.238162       0.000000
     21 C                    -0.217198      -0.000000
     22 H                     0.242287      -0.000000
     23 C                    -0.344334       0.000000
     24 H                     0.238668      -0.000000
     25 B                     0.624009      -0.000000
     26 C                    -0.143013       0.000000
     27 C                    -0.385927      -0.000000
     28 H                     0.242057      -0.000000
     29 C                     0.085288      -0.000000
     30 C                     0.112310      -0.000000
     31 C                    -0.396508       0.000000
     32 H                     0.239336       0.000000
     33 C                    -0.149320      -0.000000
     34 C                     0.190409       0.000000
     35 C                    -0.385579      -0.000000
     36 H                     0.236534       0.000000
     37 C                    -0.068651       0.000000
     38 C                     0.238567       0.000000
     39 C                     0.190087       0.000000
     40 C                    -0.393327      -0.000000
     41 H                     0.234663      -0.000000
     42 C                    -0.219522       0.000000
     43 H                     0.242854       0.000000
     44 C                    -0.340281      -0.000000
     45 H                     0.238020       0.000000
     46 C                    -0.216512       0.000000
     47 H                     0.240816       0.000000
     48 C                    -0.344148      -0.000000
     49 H                     0.238615      -0.000000
     50 B                     0.645072       0.000000
     51 C                    -0.213698       0.000000
     52 C                     0.056386      -0.000000
     53 C                    -0.334303       0.000000
     54 H                     0.238975       0.000000
     55 C                     0.256319      -0.000000
     56 C                    -0.340704       0.000000
     57 H                     0.234780       0.000000
     58 C                     0.073538      -0.000000
     59 N                    -0.670525       0.000000
     60 C                     0.322139      -0.000000
     61 C                    -0.310441       0.000000
     62 H                     0.256564      -0.000000
     63 C                    -0.226366      -0.000000
     64 H                     0.233241      -0.000000
     65 C                    -0.259295       0.000000
     66 H                     0.229525       0.000000
     67 C                    -0.224974      -0.000000
     68 H                     0.231473      -0.000000
     69 C                    -0.298963       0.000000
     70 H                     0.251657       0.000000
     71 C                     0.304277       0.000000
     72 C                    -0.286042      -0.000000
     73 H                     0.256387       0.000000
     74 C                    -0.230548      -0.000000
     75 H                     0.234973      -0.000000
     76 C                    -0.252531      -0.000000
     77 H                     0.231531      -0.000000
     78 C                    -0.228280       0.000000
     79 H                     0.229815       0.000000
     80 C                    -0.291562      -0.000000
     81 H                     0.252167      -0.000000
     82 C                    -0.556784      -0.000000
     83 H                     0.258156      -0.000000
     84 H                     0.239726       0.000000
     85 C                    -0.547573       0.000000
     86 H                     0.253143       0.000000
     87 H                     0.237824      -0.000000
     88 C                    -0.654679      -0.000000
     89 H                     0.247031       0.000000
     90 H                     0.219153       0.000000
     91 H                     0.223416       0.000000
     92 C                    -0.653662       0.000000
     93 H                     0.240714      -0.000000
     94 H                     0.219607       0.000000
     95 H                     0.225423      -0.000000
     96 C                    -0.252553      -0.000000
     97 C                     0.075294       0.000000
     98 C                    -0.389636      -0.000000
     99 H                     0.247384      -0.000000
    100 C                     0.333915       0.000000
    101 N                    -0.660454      -0.000000
    102 C                    -0.393710      -0.000000
    103 H                     0.245459       0.000000
    104 C                     0.098569       0.000000
    105 C                     0.256501       0.000000
    106 C                    -0.270454      -0.000000
    107 H                     0.253007      -0.000000
    108 C                    -0.232876       0.000000
    109 H                     0.237303       0.000000
    110 C                    -0.246003      -0.000000
    111 H                     0.233963      -0.000000
    112 C                    -0.233739       0.000000
    113 H                     0.238026       0.000000
    114 C                    -0.264916      -0.000000
    115 H                     0.255817      -0.000000
    116 C                     0.269642      -0.000000
    117 C                    -0.276743      -0.000000
    118 H                     0.252896       0.000000
    119 C                    -0.231792      -0.000000
    120 H                     0.237069       0.000000
    121 C                    -0.247258      -0.000000
    122 H                     0.233584       0.000000
    123 C                    -0.233414       0.000000
    124 H                     0.236837      -0.000000
    125 C                    -0.270596       0.000000
    126 H                     0.256750      -0.000000
    127 C                    -0.554878       0.000000
    128 H                     0.258780       0.000000
    129 H                     0.237077       0.000000
    130 C                    -0.542388       0.000000
    131 H                     0.248467      -0.000000
    132 H                     0.233945       0.000000
    133 C                    -0.652365       0.000000
    134 H                     0.243595      -0.000000
    135 H                     0.220381      -0.000000
    136 H                     0.218408      -0.000000
    137 C                    -0.653425      -0.000000
    138 H                     0.240103       0.000000
    139 H                     0.223175       0.000000
    140 H                     0.218464       0.000000
  --------------------------------------------------------
  Sum of atomic charges =    -0.000000

                    Cartesian Multipole Moments
 -----------------------------------------------------------------
    Charge (ESU x 10^10)
                -0.0000
    Dipole Moment (Debye)
         X      -1.8660      Y      -0.1439      Z      -1.3215
       Tot       2.2910
    Quadrupole Moments (Debye-Ang)
        XX    -411.0389     XY      -2.0136     YY    -461.2214
        XZ     -12.0069     YZ      -0.1722     ZZ    -392.8212

 Total job time:  5171.56s(wall), 15032.97s(cpu)
        *  Thank you very much for using Q-Chem.  Have a nice day.  *
 Q-Chem 5.0, Q-Chem, Inc., Pleasanton, CA (2017)
 Q-Chem 5.0.1 for Intel X86 EM64T Linux

User input:
--------------------------------------------------------------

$rem
threads 8
jobtype opt
method PBEh-3c
basis def2-mSVP
scf_guess	read
mem_static      1024
mem_total       8000
sym_ignore      true
unrestricted true
mom_start       1
scf_algorithm	diis
scf_max_cycles	250
solvent_method	pcm
geom_opt_tol_energy 25
geom_opt_tol_gradient 75
$end

$solvent
dielectric      2.38
$end

$pcm
theory iefpcm
$end

$occupied
1 2 3 4 5 6 7 8 9 10 11 12 13 14 15 16 17 18 19 20 21 22 23 24 25 26 27 28 29 30 31 32 33 34 35 36 37 38 39 40 41 42 43 44 45 46 47 48 49 50 51 52 53 54 55 56 57 58 59 60 61 62 63 64 65 66 67 68 69 70 71 72 73 74 75 76 77 78 79 80 81 82 83 84 85 86 87 88 89 90 91 92 93 94 95 96 97 98 99 100 101 102 103 104 105 106 107 108 109 110 111 112 113 114 115 116 117 118 119 120 121 122 123 124 125 126 127 128 129 130 131 132 133 134 135 136 137 138 139 140 141 142 143 144 145 146 147 148 149 150 151 152 153 154 155 156 157 158 159 160 161 162 163 164 165 166 167 168 169 170 171 172 173 174 175 176 177 178 179 180 181 182 183 184 185 186 187 188 189 190 191 192 193 194 195 196 197 198 199 200 201 202 203 204 205 206 207 208 209 210 211 212 213 214 215 216 217 218 219 220 221 222 223 224 225 226 227 228 229 230 231 232 233 234 235 236 237 238 239 240 241 242 243 244 245 246 247 248 249 250 251 252 253 254 255 256 257 258 259 260 261 262 263 264 265 266 267 268 269  271
1 2 3 4 5 6 7 8 9 10 11 12 13 14 15 16 17 18 19 20 21 22 23 24 25 26 27 28 29 30 31 32 33 34 35 36 37 38 39 40 41 42 43 44 45 46 47 48 49 50 51 52 53 54 55 56 57 58 59 60 61 62 63 64 65 66 67 68 69 70 71 72 73 74 75 76 77 78 79 80 81 82 83 84 85 86 87 88 89 90 91 92 93 94 95 96 97 98 99 100 101 102 103 104 105 106 107 108 109 110 111 112 113 114 115 116 117 118 119 120 121 122 123 124 125 126 127 128 129 130 131 132 133 134 135 136 137 138 139 140 141 142 143 144 145 146 147 148 149 150 151 152 153 154 155 156 157 158 159 160 161 162 163 164 165 166 167 168 169 170 171 172 173 174 175 176 177 178 179 180 181 182 183 184 185 186 187 188 189 190 191 192 193 194 195 196 197 198 199 200 201 202 203 204 205 206 207 208 209 210 211 212 213 214 215 216 217 218 219 220 221 222 223 224 225 226 227 228 229 230 231 232 233 234 235 236 237 238 239 240 241 242 243 244 245 246 247 248 249 250 251 252 253 254 255 256 257 258 259 260 261 262 263 264 265 266 267 268 269 270
$end

$molecule
read
$end

--------------------------------------------------------------

             Standard Nuclear Orientation (Angstroms)
    I     Atom           X                Y                Z
 ----------------------------------------------------------------
    1      C      -0.1891160000     0.9129910000     0.3733330000
    2      C      -0.1944740000     0.8611420000     1.7829750000
    3      H       0.7539100000     0.8230100000     2.3094920000
    4      C      -1.3773840000     0.8485740000     2.4851080000
    5      C      -2.6139890000     0.8795870000     1.7767180000
    6      C      -2.6345210000     0.9259080000     0.4081530000
    7      H      -3.5884970000     0.9386820000    -0.1128520000
    8      C      -1.4322420000     0.9532750000    -0.3293470000
    9      C      -3.7016480000     0.8443490000     2.7470980000
   10      C      -5.0710780000     0.8514260000     2.6678320000
   11      H      -5.5872530000     0.8928140000     1.7161620000
   12      C      -3.0962520000     0.7913030000     4.0163470000
   13      C      -3.8064250000     0.7428990000     5.2115990000
   14      C      -1.6891320000     0.7919080000     3.9127690000
   15      C      -0.9619050000     0.7407610000     5.0737510000
   16      H       0.1206510000     0.7374280000     5.0677670000
   17      C      -5.8171860000     0.8041840000     3.8662390000
   18      H      -6.8983400000     0.8100180000     3.8056030000
   19      C      -5.2184030000     0.7510130000     5.1037540000
   20      H      -5.8301080000     0.7155450000     5.9970180000
   21      C      -1.6548860000     0.6908170000     6.3062640000
   22      H      -1.0751710000     0.6505010000     7.2194750000
   23      C      -3.0275660000     0.6911570000     6.3918070000
   24      H      -3.5102630000     0.6517680000     7.3605280000
   25      B      -1.4375360000     0.9767830000    -1.8550620000
   26      C      -0.1289400000     1.0234160000    -2.6403800000
   27      C      -0.1206350000     1.0690430000    -4.0507590000
   28      H      -1.0561720000     1.0998600000    -4.6025100000
   29      C       1.0585700000     1.0688980000    -4.7433390000
   30      C       2.3056940000     1.0109370000    -4.0570900000
   31      C       2.3177470000     0.9593850000    -2.6837720000
   32      H       3.2617190000     0.8975160000    -2.1529960000
   33      C       1.1154980000     0.9709130000    -1.9448890000
   34      C       1.3217070000     1.0960700000    -6.1775190000
   35      C       0.5447900000     1.1484940000    -7.3077150000
   36      H      -0.5365900000     1.1922410000    -7.2546530000
   37      C       2.7208990000     1.0480330000    -6.3212040000
   38      C       3.3736160000     1.0456510000    -7.5514560000
   39      C       3.3651350000     0.9978560000    -5.0669020000
   40      C       4.7360740000     0.9450700000    -5.0547920000
   41      H       5.2959820000     0.9068320000    -4.1287790000
   42      C       1.1814790000     1.1486820000    -8.5689930000
   43      H       0.5683980000     1.1913570000    -9.4607260000
   44      C       2.5496490000     1.0978960000    -8.7020000000
   45      H       2.9966120000     1.0992660000    -9.6888200000
   46      C       5.4279730000     0.9417600000    -6.2888440000
   47      H       6.5095380000     0.8999480000    -6.2709520000
   48      C       4.7864630000     0.9892490000    -7.5045090000
   49      H       5.3615080000     0.9838370000    -8.4224400000
   50      B       1.1350790000     0.8757390000    -0.4085170000
   51      C       2.5190480000     0.6542200000     0.3143370000
   52      C       2.8990820000    -0.6415180000     0.6954200000
   53      C       4.1688270000    -0.8735380000     1.2087450000
   54      H       4.4678000000    -1.8817440000     1.4749570000
   55      C       5.0706100000     0.1674360000     1.3658570000
   56      C       4.6884990000     1.4574580000     1.0278460000
   57      H       5.3930620000     2.2712080000     1.1596170000
   58      C       3.4289110000     1.7059300000     0.4971040000
   59      N       6.3906720000    -0.0858420000     1.8114800000
   60      C       6.5909130000    -0.8296650000     2.9772670000
   61      C       7.6484660000    -1.7336520000     3.0971960000
   62      H       8.3401690000    -1.8703110000     2.2764700000
   63      C       7.8104240000    -2.4727360000     4.2571580000
   64      H       8.6362580000    -3.1695150000     4.3249500000
   65      C       6.9192840000    -2.3474010000     5.3116790000
   66      H       7.0447380000    -2.9346920000     6.2112640000
   67      C       5.8602970000    -1.4588870000     5.1902190000
   68      H       5.1523750000    -1.3448870000     6.0012160000
   69      C       5.6981100000    -0.7009590000     4.0443900000
   70      H       4.8688350000    -0.0098350000     3.9680320000
   71      C       7.4394170000     0.2211910000     0.9324060000
   72      C       8.6576860000     0.7021290000     1.4120180000
   73      H       8.7980530000     0.8352430000     2.4769270000
   74      C       9.6802510000     1.0154760000     0.5327030000
   75      H      10.6178530000     1.3896420000     0.9232980000
   76      C       9.5047410000     0.8763730000    -0.8367670000
   77      H      10.3028530000     1.1324110000    -1.5206040000
   78      C       8.2902300000     0.4095700000    -1.3165680000
   79      H       8.1368050000     0.2913800000    -2.3818670000
   80      C       7.2674390000     0.0759340000    -0.4449620000
   81      H       6.3274580000    -0.2961980000    -0.8319650000
   82      C       1.9879660000    -1.8252600000     0.4764280000
   83      H       0.9465390000    -1.5355030000     0.6296150000
   84      H       2.2031620000    -2.5898300000     1.2276970000
   85      C       3.0419090000     3.1224060000     0.1578540000
   86      H       2.4653130000     3.1409460000    -0.7702630000
   87      H       3.9427200000     3.7116110000    -0.0322080000
   88      C       2.1382640000    -2.4349330000    -0.9167260000
   89      H       1.9019080000    -1.7080940000    -1.6934780000
   90      H       3.1576900000    -2.7834880000    -1.0877170000
   91      H       1.4686860000    -3.2878080000    -1.0426320000
   92      C       2.2259940000     3.7853410000     1.2651790000
   93      H       1.2901950000     3.2537830000     1.4378230000
   94      H       2.7791320000     3.8014910000     2.2050950000
   95      H       1.9770180000     4.8148350000     1.0039840000
   96      C      -2.7718280000     0.7911440000    -2.6855860000
   97      C      -3.2720330000    -0.5272830000    -2.9013250000
   98      C      -4.3331500000    -0.7368330000    -3.7414030000
   99      H      -4.7156680000    -1.7405650000    -3.8776620000
  100      C      -4.9552170000     0.3407390000    -4.4079810000
  101      N      -5.9664610000     0.1012190000    -5.2892890000
  102      C      -4.5021430000     1.6568720000    -4.1611910000
  103      H      -4.9563390000     2.4862960000    -4.6885930000
  104      C      -3.4412140000     1.8809190000    -3.3217860000
  105      C      -6.0814550000    -1.1528250000    -5.9390200000
  106      C      -7.3095390000    -1.8057300000    -5.9562110000
  107      H      -8.1665360000    -1.3642490000    -5.4645400000
  108      C      -7.4204770000    -3.0300820000    -6.5913540000
  109      H      -8.3715560000    -3.5449430000    -6.5948610000
  110      C      -6.3170070000    -3.6003320000    -7.2112660000
  111      H      -6.4088250000    -4.5582010000    -7.7050490000
  112      C      -5.0973520000    -2.9392120000    -7.2006850000
  113      H      -4.2378110000    -3.3739860000    -7.6922090000
  114      C      -4.9742040000    -1.7124950000    -6.5702990000
  115      H      -4.0269890000    -1.1885200000    -6.5728130000
  116      C      -6.9421200000     1.0789000000    -5.5956900000
  117      C      -7.2843110000     1.3106900000    -6.9244180000
  118      H      -6.7830580000     0.7688180000    -7.7158500000
  119      C      -8.2607310000     2.2437860000    -7.2230030000
  120      H      -8.5208340000     2.4318360000    -8.2557420000
  121      C      -8.8988800000     2.9394280000    -6.2049740000
  122      H      -9.6630060000     3.6667590000    -6.4432140000
  123      C      -8.5605430000     2.6965830000    -4.8816030000
  124      H      -9.0657520000     3.2258420000    -4.0853160000
  125      C      -7.5863120000     1.7635970000    -4.5696610000
  126      H      -7.3375900000     1.5542210000    -3.5372800000
  127      C      -2.6184460000    -1.7259410000    -2.2723360000
  128      H      -2.1162910000    -1.4413710000    -1.3487780000
  129      H      -3.3880250000    -2.4535580000    -2.0005790000
  130      C      -2.9768700000     3.2886260000    -3.0878080000
  131      H      -1.8865690000     3.3149600000    -3.0462900000
  132      H      -3.2758360000     3.9158510000    -3.9312290000
  133      C      -1.6168210000    -2.3750270000    -3.2279680000
  134      H      -0.8381950000    -1.6717180000    -3.5210340000
  135      H      -1.1315930000    -3.2264930000    -2.7514100000
  136      H      -2.1092140000    -2.7331200000    -4.1341370000
  137      C      -3.5537640000     3.8609580000    -1.7943190000
  138      H      -3.2286490000     3.2870420000    -0.9275460000
  139      H      -3.2200470000     4.8882230000    -1.6516640000
  140      H      -4.6445860000     3.8609930000    -1.8151320000
 ----------------------------------------------------------------
