 Q-Chem 5.0, Q-Chem, Inc., Pleasanton, CA (2017)
 Q-Chem 5.0.1 for Intel X86 EM64T Linux

User input:
--------------------------------------------------------------
$rem
threads 8
jobtype	sp
method PBEh-3c
basis def2-mSVP
mem_static	1024
mem_total	8000
sym_ignore	true
unrestricted true
scf_convergence	9
solvent_method	pcm
$end

$molecule
read incoords.mol
$end

$solvent
dielectric	4.33
$end

$pcm
theory iefpcm
$end
--------------------------------------------------------------

   17   -3084.8015466152      4.77E-10 Convergence criterion met
 Total energy in the final basis set = -3084.80154662
 Total job time:  3897.29s(wall), 12602.37s(cpu)
        *  Thank you very much for using Q-Chem.  Have a nice day.  *
 Q-Chem 5.0, Q-Chem, Inc., Pleasanton, CA (2017)
 Q-Chem 5.0.1 for Intel X86 EM64T Linux

User input:
--------------------------------------------------------------

$rem
threads 8
jobtype opt
method PBEh-3c
basis def2-mSVP
scf_guess	read
mem_static      1024
mem_total       8000
sym_ignore      true
unrestricted true
mom_start       1
scf_algorithm	diis
scf_max_cycles	250
solvent_method	pcm
geom_opt_tol_energy 25
geom_opt_tol_gradient 75
$end

$solvent
dielectric      4.33
$end

$pcm
theory iefpcm
$end

$occupied
1 2 3 4 5 6 7 8 9 10 11 12 13 14 15 16 17 18 19 20 21 22 23 24 25 26 27 28 29 30 31 32 33 34 35 36 37 38 39 40 41 42 43 44 45 46 47 48 49 50 51 52 53 54 55 56 57 58 59 60 61 62 63 64 65 66 67 68 69 70 71 72 73 74 75 76 77 78 79 80 81 82 83 84 85 86 87 88 89 90 91 92 93 94 95 96 97 98 99 100 101 102 103 104 105 106 107 108 109 110 111 112 113 114 115 116 117 118 119 120 121 122 123 124 125 126 127 128 129 130 131 132 133 134 135 136 137 138 139 140 141 142 143 144 145 146 147 148 149 150 151 152 153 154 155 156 157 158 159 160 161 162 163 164 165 166 167 168 169 170 171 172 173 174 175 176 177 178 179 180 181 182 183 184 185 186 187 188 189 190 191 192 193 194 195 196 197 198 199 200 201 202 203 204 205 206 207 208 209 210 211 212 213 214 215 216 217 218 219 220 221 222 223 224 225 226 227 228 229 230 231 232 233 234 235 236 237 238 239 240 241 242 243 244 245 246 247 248 249 250 251 252 253 254 255 256 257 258 259 260 261 262 263 264 265 266 267 268 269  271
1 2 3 4 5 6 7 8 9 10 11 12 13 14 15 16 17 18 19 20 21 22 23 24 25 26 27 28 29 30 31 32 33 34 35 36 37 38 39 40 41 42 43 44 45 46 47 48 49 50 51 52 53 54 55 56 57 58 59 60 61 62 63 64 65 66 67 68 69 70 71 72 73 74 75 76 77 78 79 80 81 82 83 84 85 86 87 88 89 90 91 92 93 94 95 96 97 98 99 100 101 102 103 104 105 106 107 108 109 110 111 112 113 114 115 116 117 118 119 120 121 122 123 124 125 126 127 128 129 130 131 132 133 134 135 136 137 138 139 140 141 142 143 144 145 146 147 148 149 150 151 152 153 154 155 156 157 158 159 160 161 162 163 164 165 166 167 168 169 170 171 172 173 174 175 176 177 178 179 180 181 182 183 184 185 186 187 188 189 190 191 192 193 194 195 196 197 198 199 200 201 202 203 204 205 206 207 208 209 210 211 212 213 214 215 216 217 218 219 220 221 222 223 224 225 226 227 228 229 230 231 232 233 234 235 236 237 238 239 240 241 242 243 244 245 246 247 248 249 250 251 252 253 254 255 256 257 258 259 260 261 262 263 264 265 266 267 268 269 270
$end

$molecule
read
$end

--------------------------------------------------------------

   21   -3084.7380013313      6.50E-09 Convergence criterion met
 Total energy in the final basis set = -3084.73800133
   24   -3084.8027697334      7.77E-09 Convergence criterion met
 Total energy in the final basis set = -3084.80276973
   12   -3084.8028644395      9.14E-09 Convergence criterion met
 Total energy in the final basis set = -3084.80286444
   12   -3084.8047472072      8.48E-09 Convergence criterion met
 Total energy in the final basis set = -3084.80474721
   12   -3084.8068750062      8.52E-09 Convergence criterion met
 Total energy in the final basis set = -3084.80687501
   12   -3084.8075091742      9.74E-09 Convergence criterion met
 Total energy in the final basis set = -3084.80750917

             Standard Nuclear Orientation (Angstroms)
    I     Atom           X                Y                Z
 ----------------------------------------------------------------
    1      C      -0.0868943950     0.9672392614     0.2053774961
    2      C      -0.0876430562     0.9717977460     1.6053366910
    3      H       0.8534809095     0.9182983894     2.1413982828
    4      C      -1.2849229587     1.0324535382     2.2984914132
    5      C      -2.5041617815     1.0724685757     1.5849670078
    6      C      -2.5152228904     1.0471704941     0.2039457008
    7      H      -3.4560937607     1.0511647554    -0.3355414078
    8      C      -1.3113857827     1.0046952500    -0.5004988709
    9      C      -3.6030317352     1.1210241960     2.5425442940
   10      C      -4.9694028133     1.1717887303     2.4436941629
   11      H      -5.4743985531     1.1853036258     1.4855561286
   12      C      -3.0107031434     1.1054676974     3.8167860085
   13      C      -3.7321422319     1.1368765077     5.0049834328
   14      C      -1.6060250171     1.0516475793     3.7291030195
   15      C      -0.8875671327     1.0282740180     4.8949932225
   16      H       0.1942502456     0.9867156579     4.9003477021
   17      C      -5.7286780370     1.2056443415     3.6364396263
   18      H      -6.8078716803     1.2453063022     3.5633831181
   19      C      -5.1424830651     1.1889192112     4.8812122776
   20      H      -5.7635119654     1.2155091239     5.7682568804
   21      C      -1.5918546774     1.0593006366     6.1237222095
   22      H      -1.0218312129     1.0404389859     7.0432699934
   23      C      -2.9647639545     1.1119102930     6.1935423849
   24      H      -3.4563123364     1.1338014484     7.1583939814
   25      B      -1.3293311608     0.9580100327    -2.0523397493
   26      C       0.0172837255     1.0529210185    -2.8289925340
   27      C       0.0100297655     1.1123700149    -4.2237705195
   28      H      -0.9303013473     1.1211295195    -4.7636222402
   29      C       1.2016273726     1.1418618179    -4.9174294130
   30      C       2.4377433318     1.0835002828    -4.2352344823
   31      C       2.4528560869     1.0058381207    -2.8549290643
   32      H       3.3961795008     0.9303117055    -2.3260653343
   33      C       1.2488384716     1.0064335218    -2.1371080634
   34      C       1.4620962720     1.1911276446    -6.3521702919
   35      C       0.6806520945     1.2472556004    -7.4768030254
   36      H      -0.4008711288     1.2746625066    -7.4223691063
   37      C       2.8600074690     1.1562896312    -6.4948120236
   38      C       3.5121044088     1.1713307513    -7.7234010594
   39      C       3.5040773142     1.0903880478    -5.2440471823
   40      C       4.8727210622     1.0380818656    -5.2264598242
   41      H       5.4315371506     0.9830309642    -4.3006469470
   42      C       1.3174197245     1.2677121825    -8.7399992937
   43      H       0.7018820000     1.3123211765    -9.6292338522
   44      C       2.6861650469     1.2307478129    -8.8731067543
   45      H       3.1326183837     1.2453849512    -9.8598915042
   46      C       5.5677774923     1.0541462725    -6.4607149351
   47      H       6.6488740044     1.0125364772    -6.4416724263
   48      C       4.9249749502     1.1182784539    -7.6753401650
   49      H       5.5000981467     1.1259234737    -8.5931588770
   50      B       1.2497971052     0.8783735178    -0.5829838747
   51      C       2.6014083929     0.6129746908     0.1607890442
   52      C       2.9014297355    -0.7012351366     0.5546664672
   53      C       4.1282794754    -0.9821693852     1.1425131424
   54      H       4.3676585070    -2.0017937627     1.4239717831
   55      C       5.0576672748     0.0254975776     1.3647978288
   56      C       4.7505519520     1.3285775785     0.9948864914
   57      H       5.4691213848     2.1199092187     1.1767235665
   58      C       3.5405398783     1.6264129712     0.3844106327
   59      N       6.3094202566    -0.2673578425     1.9441596586
   60      C       6.3738499214    -1.0711858869     3.0891881325
   61      C       7.3977498154    -2.0061510123     3.2554495569
   62      H       8.1574970375    -2.1176771367     2.4928527705
   63      C       7.4433105900    -2.8001887480     4.3890867022
   64      H       8.2456399907    -3.5188448217     4.4975042803
   65      C       6.4631760853    -2.6982701052     5.3667043718
   66      H       6.4962175340    -3.3272963598     6.2461836396
   67      C       5.4374405481    -1.7796836054     5.1966658459
   68      H       4.6644078952    -1.6840687387     5.9485506049
   69      C       5.3938644597    -0.9652978407     4.0765393105
   70      H       4.5909599292    -0.2476918665     3.9656313834
   71      C       7.4719256292     0.1732185680     1.2930699793
   72      C       8.5551307152     0.6636303162     2.0214508681
   73      H       8.5011871617     0.7079539670     3.1016642243
   74      C       9.6968221832     1.0981357052     1.3679644280
   75      H      10.5277001613     1.4765418467     1.9495540688
   76      C       9.7722260427     1.0722120016    -0.0174226974
   77      H      10.6619700796     1.4210440697    -0.5243339628
   78      C       8.6907704507     0.5941145114    -0.7445455518
   79      H       8.7352274425     0.5623479229    -1.8257788780
   80      C       7.5524333490     0.1399276172    -0.0999036451
   81      H       6.7213951572    -0.2431662453    -0.6784003072
   82      C       1.9572337686    -1.8452293373     0.2732879973
   83      H       0.9189292486    -1.5119108837     0.3443654867
   84      H       2.0770870953    -2.6089347275     1.0454071872
   85      C       3.2255907348     3.0579558246     0.0287245350
   86      H       2.6409840360     3.0983114945    -0.8949228083
   87      H       4.1524958053     3.5970847286    -0.1800898081
   88      C       2.1838311806    -2.4804173007    -1.0981799683
   89      H       2.0282118201    -1.7626817935    -1.9040286710
   90      H       3.1994550151    -2.8668973832    -1.1899018509
   91      H       1.4937703621    -3.3102862266    -1.2567160925
   92      C       2.4595329567     3.7818765615     1.1352053649
   93      H       1.4998234022     3.3033554894     1.3292771750
   94      H       3.0246205540     3.7856054342     2.0678464495
   95      H       2.2608513938     4.8176058124     0.8578669839
   96      C      -2.6667699699     0.7492091046    -2.8490416237
   97      C      -3.1340952130    -0.5636065557    -3.0242741368
   98      C      -4.2823318560    -0.8071912275    -3.7650903145
   99      H      -4.6341015504    -1.8270545666    -3.8733099767
  100      C      -4.9775565866     0.2308018791    -4.3773704322
  101      N      -6.1174269880    -0.0297766571    -5.1529697107
  102      C      -4.5077255084     1.5305949894    -4.2157453075
  103      H      -5.0283920863     2.3535140568    -4.6919570314
  104      C      -3.3776286145     1.7942739165    -3.4541367686
  105      C      -6.2111128759    -1.2255546992    -5.8903692613
  106      C      -7.3635405660    -2.0041944916    -5.8186223286
  107      H      -8.1851692465    -1.6901115465    -5.1875242019
  108      C      -7.4625878142    -3.1762475653    -6.5518676390
  109      H      -8.3653182599    -3.7699943034    -6.4866346815
  110      C      -6.4084219628    -3.5985131605    -7.3492537728
  111      H      -6.4845230428    -4.5179435761    -7.9142800654
  112      C      -5.2551992205    -2.8284284077    -7.4150245711
  113      H      -4.4283504762    -3.1428081341    -8.0387412856
  114      C      -5.1575954734    -1.6443859746    -6.7011773510
  115      H      -4.2597004986    -1.0428302192    -6.7659700726
  116      C      -7.2243408714     0.8375553100    -5.1317313752
  117      C      -7.9010606842     1.1324974517    -6.3147559056
  118      H      -7.5572775162     0.7100526219    -7.2503093874
  119      C      -9.0132901610     1.9586933212    -6.2977356229
  120      H      -9.5281169307     2.1750882272    -7.2251003799
  121      C      -9.4582831150     2.5192650725    -5.1090475285
  122      H     -10.3228577046     3.1695333303    -5.1009754893
  123      C      -8.7820118298     2.2337819643    -3.9310172807
  124      H      -9.1236863882     2.6551761641    -2.9943878847
  125      C      -7.6811102974     1.3924895219    -3.9361213331
  126      H      -7.1764377967     1.1595130336    -3.0075487503
  127      C      -2.3824820545    -1.7551833945    -2.4870832247
  128      H      -1.7612384108    -1.4749039552    -1.6332060437
  129      H      -3.0939769158    -2.4921635324    -2.1051857549
  130      C      -2.9616040090     3.2305657373    -3.2696533987
  131      H      -1.8854962766     3.3000522643    -3.0892450025
  132      H      -3.1467199174     3.7862397706    -4.1926402242
  133      C      -1.5104521535    -2.4061291532    -3.5589638683
  134      H      -0.7752590837    -1.7025566078    -3.9504279622
  135      H      -0.9705529442    -3.2634974955    -3.1550876135
  136      H      -2.1158877672    -2.7556792150    -4.3965550067
  137      C      -3.7171739668     3.9021856331    -2.1246549694
  138      H      -3.5272800973     3.3998179571    -1.1761803643
  139      H      -3.4146974512     4.9436968132    -2.0144160060
  140      H      -4.7934502001     3.8824427070    -2.3024038549
 ----------------------------------------------------------------

   12   -3084.8083101268      8.61E-09 Convergence criterion met
 Total energy in the final basis set = -3084.80831013

                    Orbital Energies (a.u.)
 --------------------------------------------------------------

 Alpha MOs
 -- Occupied --
-14.671 -14.671 -10.492 -10.492 -10.492 -10.491 -10.487 -10.485
-10.466 -10.466 -10.465 -10.465 -10.465 -10.464 -10.464 -10.464
-10.464 -10.463 -10.463 -10.463 -10.461 -10.461 -10.461 -10.461
-10.460 -10.460 -10.458 -10.458 -10.458 -10.458 -10.456 -10.455
-10.454 -10.453 -10.453 -10.453 -10.451 -10.451 -10.449 -10.449
-10.449 -10.449 -10.449 -10.448 -10.448 -10.448 -10.447 -10.447
-10.447 -10.446 -10.446 -10.446 -10.445 -10.445 -10.444 -10.444
-10.444 -10.444 -10.443 -10.441 -10.438 -10.438 -10.437 -10.436
-10.435 -10.435 -10.435 -10.435 -10.434 -10.434 -10.434 -10.434
-10.424 -10.422 -10.421 -10.420 -10.420 -10.419  -6.951  -6.951
 -1.081  -1.081  -1.018  -1.017  -0.966  -0.963  -0.962  -0.961
 -0.961  -0.960  -0.941  -0.941  -0.933  -0.933  -0.910  -0.902
 -0.890  -0.890  -0.870  -0.867  -0.856  -0.855  -0.852  -0.852
 -0.847  -0.846  -0.841  -0.841  -0.839  -0.837  -0.826  -0.823
 -0.821  -0.814  -0.813  -0.806  -0.803  -0.800  -0.793  -0.792
 -0.736  -0.731  -0.727  -0.721  -0.718  -0.717  -0.713  -0.711
 -0.700  -0.700  -0.699  -0.698  -0.689  -0.683  -0.681  -0.680
 -0.680  -0.674  -0.668  -0.666  -0.650  -0.648  -0.639  -0.637
 -0.633  -0.631  -0.607  -0.605  -0.596  -0.595  -0.591  -0.588
 -0.587  -0.586  -0.583  -0.575  -0.574  -0.563  -0.562  -0.556
 -0.555  -0.545  -0.544  -0.543  -0.542  -0.538  -0.528  -0.525
 -0.524  -0.522  -0.517  -0.512  -0.511  -0.509  -0.503  -0.503
 -0.502  -0.499  -0.499  -0.497  -0.497  -0.496  -0.495  -0.490
 -0.490  -0.489  -0.487  -0.486  -0.485  -0.484  -0.483  -0.482
 -0.482  -0.481  -0.478  -0.477  -0.476  -0.470  -0.468  -0.467
 -0.462  -0.457  -0.454  -0.452  -0.444  -0.439  -0.437  -0.437
 -0.435  -0.435  -0.433  -0.430  -0.429  -0.428  -0.427  -0.426
 -0.425  -0.422  -0.420  -0.418  -0.413  -0.411  -0.407  -0.407
 -0.404  -0.404  -0.400  -0.399  -0.398  -0.397  -0.397  -0.396
 -0.396  -0.394  -0.393  -0.392  -0.391  -0.389  -0.388  -0.385
 -0.381  -0.374  -0.369  -0.366  -0.358  -0.357  -0.354  -0.352
 -0.345  -0.341  -0.320  -0.315  -0.307  -0.304  -0.301  -0.301
 -0.298  -0.296  -0.296  -0.295  -0.288  -0.286  -0.282  -0.277
 -0.275  -0.263  -0.259  -0.256  -0.223  -0.222

 Beta MOs
 -- Occupied --
-14.671 -14.671 -10.492 -10.492 -10.492 -10.491 -10.487 -10.485
-10.466 -10.466 -10.465 -10.465 -10.465 -10.464 -10.464 -10.464
-10.464 -10.463 -10.463 -10.463 -10.461 -10.461 -10.461 -10.461
-10.460 -10.460 -10.458 -10.458 -10.458 -10.458 -10.456 -10.456
-10.454 -10.453 -10.453 -10.453 -10.451 -10.451 -10.449 -10.449
-10.449 -10.449 -10.449 -10.448 -10.448 -10.448 -10.447 -10.447
-10.447 -10.446 -10.446 -10.446 -10.445 -10.445 -10.444 -10.444
-10.444 -10.444 -10.443 -10.441 -10.438 -10.438 -10.437 -10.436
-10.435 -10.435 -10.435 -10.435 -10.434 -10.434 -10.434 -10.434
-10.424 -10.422 -10.421 -10.420 -10.420 -10.419  -6.951  -6.951
 -1.081  -1.081  -1.018  -1.017  -0.966  -0.963  -0.962  -0.961
 -0.961  -0.960  -0.941  -0.941  -0.933  -0.933  -0.910  -0.902
 -0.890  -0.890  -0.870  -0.867  -0.856  -0.855  -0.852  -0.852
 -0.847  -0.846  -0.841  -0.841  -0.839  -0.837  -0.826  -0.823
 -0.821  -0.814  -0.813  -0.806  -0.803  -0.800  -0.793  -0.792
 -0.736  -0.731  -0.727  -0.721  -0.718  -0.717  -0.713  -0.711
 -0.700  -0.700  -0.699  -0.698  -0.689  -0.683  -0.681  -0.680
 -0.680  -0.674  -0.668  -0.666  -0.650  -0.648  -0.639  -0.637
 -0.633  -0.631  -0.607  -0.605  -0.596  -0.595  -0.591  -0.588
 -0.587  -0.586  -0.583  -0.575  -0.574  -0.563  -0.562  -0.556
 -0.555  -0.545  -0.544  -0.543  -0.542  -0.538  -0.528  -0.525
 -0.524  -0.522  -0.517  -0.512  -0.511  -0.509  -0.503  -0.503
 -0.502  -0.499  -0.499  -0.497  -0.497  -0.496  -0.495  -0.490
 -0.490  -0.489  -0.487  -0.486  -0.485  -0.484  -0.483  -0.482
 -0.482  -0.481  -0.478  -0.477  -0.476  -0.470  -0.468  -0.467
 -0.462  -0.457  -0.454  -0.452  -0.444  -0.439  -0.437  -0.437
 -0.435  -0.435  -0.433  -0.430  -0.429  -0.428  -0.427  -0.426
 -0.425  -0.422  -0.420  -0.418  -0.413  -0.411  -0.407  -0.407
 -0.404  -0.404  -0.400  -0.399  -0.398  -0.397  -0.397  -0.396
 -0.396  -0.394  -0.393  -0.392  -0.391  -0.389  -0.388  -0.385
 -0.381  -0.374  -0.369  -0.366  -0.358  -0.357  -0.354  -0.352
 -0.345  -0.341  -0.320  -0.315  -0.307  -0.304  -0.301  -0.301
 -0.298  -0.296  -0.296  -0.295  -0.288  -0.286  -0.282  -0.277
 -0.275  -0.263  -0.259  -0.256  -0.223  -0.222

          Ground-State Mulliken Net Atomic Charges

     Atom                 Charge (a.u.)    Spin (a.u.)
  --------------------------------------------------------
      1 C                    -0.149877      -0.000000
      2 C                    -0.398659      -0.000000
      3 H                     0.245575       0.000000
      4 C                     0.098334       0.000000
      5 C                     0.074760       0.000000
      6 C                    -0.391443      -0.000000
      7 H                     0.242170       0.000000
      8 C                    -0.154597      -0.000000
      9 C                     0.181205      -0.000004
     10 C                    -0.387166       0.000004
     11 H                     0.244212      -0.000000
     12 C                    -0.065233       0.000003
     13 C                     0.230907      -0.000003
     14 C                     0.183157      -0.000004
     15 C                    -0.396233       0.000004
     16 H                     0.244095      -0.000000
     17 C                    -0.227988      -0.000004
     18 H                     0.251104       0.000000
     19 C                    -0.344314       0.000005
     20 H                     0.247078      -0.000000
     21 C                    -0.225298      -0.000004
     22 H                     0.250599       0.000000
     23 C                    -0.348486       0.000005
     24 H                     0.247443      -0.000000
     25 B                     0.655315      -0.000000
     26 C                    -0.153804      -0.000000
     27 C                    -0.387600      -0.000000
     28 H                     0.243585       0.000000
     29 C                     0.072852       0.000000
     30 C                     0.100287       0.000000
     31 C                    -0.395138      -0.000000
     32 H                     0.243454       0.000000
     33 C                    -0.153516      -0.000000
     34 C                     0.183760      -0.000004
     35 C                    -0.387868       0.000004
     36 H                     0.244464      -0.000000
     37 C                    -0.066373       0.000003
     38 C                     0.229036      -0.000004
     39 C                     0.185324      -0.000004
     40 C                    -0.396041       0.000004
     41 H                     0.243091      -0.000000
     42 C                    -0.228197      -0.000004
     43 H                     0.251139       0.000000
     44 C                    -0.343845       0.000005
     45 H                     0.246903      -0.000000
     46 C                    -0.225359      -0.000004
     47 H                     0.249921       0.000000
     48 C                    -0.348260       0.000005
     49 H                     0.247342      -0.000000
     50 B                     0.655506      -0.000000
     51 C                    -0.217155       0.000000
     52 C                     0.058104       0.000000
     53 C                    -0.356029      -0.000000
     54 H                     0.244202       0.000000
     55 C                     0.285070       0.000000
     56 C                    -0.354403      -0.000000
     57 H                     0.242154       0.000000
     58 C                     0.077628       0.000000
     59 N                    -0.672667      -0.000000
     60 C                     0.310331      -0.000000
     61 C                    -0.303740       0.000000
     62 H                     0.259136      -0.000000
     63 C                    -0.234648      -0.000000
     64 H                     0.241938       0.000000
     65 C                    -0.264258       0.000000
     66 H                     0.238345      -0.000000
     67 C                    -0.233290      -0.000000
     68 H                     0.240672       0.000000
     69 C                    -0.300186       0.000000
     70 H                     0.256072      -0.000000
     71 C                     0.296288      -0.000000
     72 C                    -0.291449       0.000000
     73 H                     0.259069      -0.000000
     74 C                    -0.236729      -0.000000
     75 H                     0.243075       0.000000
     76 C                    -0.260318       0.000000
     77 H                     0.239752      -0.000000
     78 C                    -0.235152      -0.000000
     79 H                     0.240421       0.000000
     80 C                    -0.293756       0.000000
     81 H                     0.255826      -0.000000
     82 C                    -0.560257      -0.000000
     83 H                     0.260048       0.000000
     84 H                     0.244031       0.000000
     85 C                    -0.548110      -0.000000
     86 H                     0.252308       0.000000
     87 H                     0.240808       0.000000
     88 C                    -0.656381      -0.000000
     89 H                     0.242480       0.000000
     90 H                     0.222251      -0.000000
     91 H                     0.225779      -0.000000
     92 C                    -0.655581      -0.000000
     93 H                     0.238007       0.000000
     94 H                     0.221177      -0.000000
     95 H                     0.227918       0.000000
     96 C                    -0.230803      -0.000000
     97 C                     0.060615       0.000000
     98 C                    -0.377556      -0.000000
     99 H                     0.247210       0.000000
    100 C                     0.325667       0.000000
    101 N                    -0.674050      -0.000000
    102 C                    -0.367336      -0.000000
    103 H                     0.245719       0.000000
    104 C                     0.077921       0.000000
    105 C                     0.278580       0.000000
    106 C                    -0.286148      -0.000000
    107 H                     0.257012       0.000000
    108 C                    -0.236981       0.000000
    109 H                     0.243769      -0.000000
    110 C                    -0.256743      -0.000000
    111 H                     0.241166       0.000000
    112 C                    -0.237769       0.000000
    113 H                     0.243829      -0.000000
    114 C                    -0.281909      -0.000000
    115 H                     0.255697       0.000000
    116 C                     0.287083       0.000000
    117 C                    -0.290332      -0.000000
    118 H                     0.256990       0.000000
    119 C                    -0.235246       0.000000
    120 H                     0.243361      -0.000000
    121 C                    -0.259095      -0.000000
    122 H                     0.240634       0.000000
    123 C                    -0.236487       0.000000
    124 H                     0.242794      -0.000000
    125 C                    -0.289313      -0.000000
    126 H                     0.255904       0.000000
    127 C                    -0.560803      -0.000000
    128 H                     0.260545       0.000000
    129 H                     0.243706       0.000000
    130 C                    -0.544291      -0.000000
    131 H                     0.249458       0.000000
    132 H                     0.239124       0.000000
    133 C                    -0.653229       0.000000
    134 H                     0.238559       0.000000
    135 H                     0.225168       0.000000
    136 H                     0.222409      -0.000000
    137 C                    -0.651601       0.000000
    138 H                     0.231900      -0.000000
    139 H                     0.227455       0.000000
    140 H                     0.221315      -0.000000
  --------------------------------------------------------
  Sum of atomic charges =    -0.000000

                    Cartesian Multipole Moments
 -----------------------------------------------------------------
    Charge (ESU x 10^10)
                -0.0000
    Dipole Moment (Debye)
         X      -0.8472      Y      -0.0545      Z      -0.5788
       Tot       1.0274
    Quadrupole Moments (Debye-Ang)
        XX    -407.9859     XY      -1.6568     YY    -460.4042
        XZ     -16.0182     YZ       1.0021     ZZ    -393.1630
