 Q-Chem 5.0, Q-Chem, Inc., Pleasanton, CA (2017)
 Q-Chem 5.0.1 for Intel X86 EM64T Linux

User input:
--------------------------------------------------------------
$rem
threads 8
jobtype	sp
method PBEh-3c
basis def2-mSVP
mem_static	1024
mem_total	8000
sym_ignore	true
unrestricted true
scf_convergence	9
solvent_method	pcm
$end

$molecule
read incoords.mol
$end

$solvent
dielectric	2.03
$end

$pcm
theory iefpcm
$end
--------------------------------------------------------------

   17   -3084.7974190385      5.01E-10 Convergence criterion met
 Total energy in the final basis set = -3084.79741904
 Total job time:  5614.11s(wall), 16299.70s(cpu)
        *  Thank you very much for using Q-Chem.  Have a nice day.  *
 Q-Chem 5.0, Q-Chem, Inc., Pleasanton, CA (2017)
 Q-Chem 5.0.1 for Intel X86 EM64T Linux

User input:
--------------------------------------------------------------

$rem
threads 8
jobtype opt
method PBEh-3c
basis def2-mSVP
scf_guess	read
mem_static      1024
mem_total       8000
sym_ignore      true
unrestricted true
mom_start       1
scf_algorithm	diis
scf_max_cycles	250
solvent_method	pcm
geom_opt_tol_energy 25
geom_opt_tol_gradient 75
$end

$solvent
dielectric      2.03
$end
$pcm
theory iefpcm
$end

$occupied
1 2 3 4 5 6 7 8 9 10 11 12 13 14 15 16 17 18 19 20 21 22 23 24 25 26 27 28 29 30 31 32 33 34 35 36 37 38 39 40 41 42 43 44 45 46 47 48 49 50 51 52 53 54 55 56 57 58 59 60 61 62 63 64 65 66 67 68 69 70 71 72 73 74 75 76 77 78 79 80 81 82 83 84 85 86 87 88 89 90 91 92 93 94 95 96 97 98 99 100 101 102 103 104 105 106 107 108 109 110 111 112 113 114 115 116 117 118 119 120 121 122 123 124 125 126 127 128 129 130 131 132 133 134 135 136 137 138 139 140 141 142 143 144 145 146 147 148 149 150 151 152 153 154 155 156 157 158 159 160 161 162 163 164 165 166 167 168 169 170 171 172 173 174 175 176 177 178 179 180 181 182 183 184 185 186 187 188 189 190 191 192 193 194 195 196 197 198 199 200 201 202 203 204 205 206 207 208 209 210 211 212 213 214 215 216 217 218 219 220 221 222 223 224 225 226 227 228 229 230 231 232 233 234 235 236 237 238 239 240 241 242 243 244 245 246 247 248 249 250 251 252 253 254 255 256 257 258 259 260 261 262 263 264 265 266 267 268 269  271
1 2 3 4 5 6 7 8 9 10 11 12 13 14 15 16 17 18 19 20 21 22 23 24 25 26 27 28 29 30 31 32 33 34 35 36 37 38 39 40 41 42 43 44 45 46 47 48 49 50 51 52 53 54 55 56 57 58 59 60 61 62 63 64 65 66 67 68 69 70 71 72 73 74 75 76 77 78 79 80 81 82 83 84 85 86 87 88 89 90 91 92 93 94 95 96 97 98 99 100 101 102 103 104 105 106 107 108 109 110 111 112 113 114 115 116 117 118 119 120 121 122 123 124 125 126 127 128 129 130 131 132 133 134 135 136 137 138 139 140 141 142 143 144 145 146 147 148 149 150 151 152 153 154 155 156 157 158 159 160 161 162 163 164 165 166 167 168 169 170 171 172 173 174 175 176 177 178 179 180 181 182 183 184 185 186 187 188 189 190 191 192 193 194 195 196 197 198 199 200 201 202 203 204 205 206 207 208 209 210 211 212 213 214 215 216 217 218 219 220 221 222 223 224 225 226 227 228 229 230 231 232 233 234 235 236 237 238 239 240 241 242 243 244 245 246 247 248 249 250 251 252 253 254 255 256 257 258 259 260 261 262 263 264 265 266 267 268 269 270
$end

$molecule
read
$end

--------------------------------------------------------------

   24   -3084.7102919515      6.31E-09 Convergence criterion met
 Total energy in the final basis set = -3084.71029195
   20   -3084.7143334351      7.94E-09 Convergence criterion met
 Total energy in the final basis set = -3084.71433344
   20   -3084.7139590120      8.24E-09 Convergence criterion met
 Total energy in the final basis set = -3084.71395901
   19   -3084.7171721155      7.82E-09 Convergence criterion met
 Total energy in the final basis set = -3084.71717212
   17   -3084.7177668964      5.16E-09 Convergence criterion met
 Total energy in the final basis set = -3084.71776690
   16   -3084.7193512298      7.20E-09 Convergence criterion met
 Total energy in the final basis set = -3084.71935123
   16   -3084.7191475120      8.74E-09 Convergence criterion met
 Total energy in the final basis set = -3084.71914751
   17   -3084.7877867303      7.83E-09 Convergence criterion met
 Total energy in the final basis set = -3084.78778673
   12   -3084.7913614945      8.74E-09 Convergence criterion met
 Total energy in the final basis set = -3084.79136149

                    Orbital Energies (a.u.)
 --------------------------------------------------------------

 Alpha MOs
 -- Occupied --
-14.670 -14.669 -10.491 -10.491 -10.490 -10.490 -10.486 -10.484
-10.464 -10.464 -10.464 -10.464 -10.464 -10.464 -10.463 -10.463
-10.462 -10.462 -10.461 -10.461 -10.461 -10.461 -10.461 -10.461
-10.460 -10.459 -10.458 -10.458 -10.458 -10.458 -10.454 -10.454
-10.451 -10.451 -10.449 -10.449 -10.449 -10.449 -10.449 -10.449
-10.448 -10.448 -10.447 -10.447 -10.447 -10.447 -10.447 -10.447
-10.447 -10.446 -10.446 -10.446 -10.445 -10.444 -10.444 -10.444
-10.443 -10.443 -10.442 -10.441 -10.434 -10.434 -10.434 -10.433
-10.433 -10.433 -10.433 -10.432 -10.431 -10.430 -10.430 -10.429
-10.421 -10.419 -10.418 -10.417 -10.417 -10.416  -6.946  -6.942
 -1.084  -1.078  -1.015  -1.014  -0.962  -0.962  -0.959  -0.959
 -0.958  -0.957  -0.939  -0.939  -0.932  -0.932  -0.907  -0.898
 -0.888  -0.886  -0.867  -0.864  -0.854  -0.854  -0.852  -0.850
 -0.846  -0.845  -0.842  -0.840  -0.839  -0.836  -0.824  -0.821
 -0.819  -0.813  -0.811  -0.803  -0.798  -0.798  -0.790  -0.786
 -0.734  -0.730  -0.726  -0.719  -0.716  -0.715  -0.710  -0.709
 -0.698  -0.697  -0.697  -0.696  -0.688  -0.684  -0.681  -0.680
 -0.678  -0.674  -0.668  -0.665  -0.647  -0.645  -0.637  -0.636
 -0.629  -0.628  -0.604  -0.604  -0.595  -0.593  -0.591  -0.588
 -0.585  -0.584  -0.582  -0.574  -0.574  -0.562  -0.561  -0.554
 -0.553  -0.543  -0.543  -0.541  -0.540  -0.536  -0.527  -0.525
 -0.523  -0.522  -0.516  -0.513  -0.510  -0.507  -0.502  -0.501
 -0.501  -0.498  -0.497  -0.496  -0.495  -0.495  -0.493  -0.489
 -0.488  -0.487  -0.485  -0.485  -0.484  -0.483  -0.483  -0.482
 -0.482  -0.480  -0.477  -0.476  -0.475  -0.466  -0.465  -0.462
 -0.461  -0.454  -0.453  -0.450  -0.441  -0.440  -0.435  -0.435
 -0.433  -0.433  -0.430  -0.428  -0.427  -0.426  -0.425  -0.424
 -0.421  -0.420  -0.419  -0.415  -0.412  -0.411  -0.408  -0.404
 -0.404  -0.402  -0.399  -0.398  -0.397  -0.397  -0.395  -0.395
 -0.394  -0.393  -0.392  -0.390  -0.390  -0.386  -0.384  -0.383
 -0.378  -0.370  -0.366  -0.362  -0.356  -0.355  -0.350  -0.348
 -0.343  -0.335  -0.318  -0.313  -0.306  -0.303  -0.300  -0.298
 -0.296  -0.295  -0.294  -0.294  -0.286  -0.283  -0.279  -0.274
 -0.272  -0.260  -0.256  -0.253  -0.220  -0.215

 Beta MOs
 -- Occupied --
-14.670 -14.669 -10.491 -10.491 -10.490 -10.490 -10.486 -10.484
-10.464 -10.464 -10.464 -10.464 -10.464 -10.464 -10.463 -10.463
-10.462 -10.462 -10.461 -10.461 -10.461 -10.461 -10.461 -10.461
-10.460 -10.459 -10.458 -10.458 -10.458 -10.458 -10.454 -10.454
-10.451 -10.451 -10.449 -10.449 -10.449 -10.449 -10.449 -10.449
-10.448 -10.448 -10.447 -10.447 -10.447 -10.447 -10.447 -10.447
-10.447 -10.446 -10.446 -10.446 -10.445 -10.444 -10.444 -10.444
-10.443 -10.443 -10.442 -10.441 -10.434 -10.434 -10.434 -10.433
-10.433 -10.433 -10.433 -10.432 -10.431 -10.430 -10.430 -10.429
-10.421 -10.419 -10.418 -10.417 -10.417 -10.416  -6.946  -6.942
 -1.084  -1.078  -1.015  -1.014  -0.962  -0.962  -0.959  -0.959
 -0.958  -0.957  -0.939  -0.939  -0.932  -0.932  -0.907  -0.898
 -0.888  -0.886  -0.867  -0.864  -0.854  -0.854  -0.852  -0.850
 -0.846  -0.845  -0.842  -0.840  -0.839  -0.836  -0.824  -0.821
 -0.819  -0.813  -0.811  -0.803  -0.798  -0.798  -0.790  -0.786
 -0.734  -0.730  -0.726  -0.719  -0.716  -0.715  -0.710  -0.709
 -0.698  -0.697  -0.697  -0.696  -0.688  -0.684  -0.681  -0.680
 -0.678  -0.674  -0.668  -0.665  -0.647  -0.645  -0.637  -0.636
 -0.629  -0.628  -0.604  -0.604  -0.595  -0.593  -0.591  -0.588
 -0.585  -0.584  -0.582  -0.574  -0.574  -0.562  -0.561  -0.554
 -0.553  -0.543  -0.542  -0.541  -0.540  -0.536  -0.527  -0.525
 -0.523  -0.522  -0.516  -0.513  -0.510  -0.507  -0.502  -0.501
 -0.501  -0.498  -0.497  -0.496  -0.495  -0.495  -0.493  -0.489
 -0.488  -0.487  -0.485  -0.485  -0.484  -0.483  -0.483  -0.482
 -0.482  -0.480  -0.477  -0.476  -0.475  -0.466  -0.465  -0.462
 -0.461  -0.454  -0.453  -0.450  -0.441  -0.440  -0.435  -0.435
 -0.433  -0.433  -0.430  -0.428  -0.427  -0.426  -0.425  -0.424
 -0.421  -0.420  -0.419  -0.415  -0.412  -0.411  -0.408  -0.404
 -0.404  -0.402  -0.399  -0.398  -0.397  -0.397  -0.395  -0.395
 -0.394  -0.393  -0.392  -0.390  -0.390  -0.386  -0.384  -0.383
 -0.378  -0.370  -0.366  -0.362  -0.356  -0.355  -0.350  -0.348
 -0.343  -0.335  -0.318  -0.313  -0.306  -0.303  -0.300  -0.298
 -0.296  -0.295  -0.294  -0.294  -0.286  -0.283  -0.279  -0.274
 -0.272  -0.260  -0.256  -0.253  -0.220  -0.215

          Ground-State Mulliken Net Atomic Charges

     Atom                 Charge (a.u.)    Spin (a.u.)
  --------------------------------------------------------
      1 C                    -0.158743      -0.000549
      2 C                    -0.393544       0.000318
      3 H                     0.237413      -0.000021
      4 C                     0.110346      -0.000292
      5 C                     0.084275       0.000600
      6 C                    -0.392548      -0.000508
      7 H                     0.240342       0.000038
      8 C                    -0.147058       0.000290
      9 C                     0.190694      -0.001276
     10 C                    -0.389980       0.001355
     11 H                     0.231697      -0.000096
     12 C                    -0.066864       0.001267
     13 C                     0.240353      -0.001300
     14 C                     0.188363      -0.001645
     15 C                    -0.381445       0.001731
     16 H                     0.232074      -0.000124
     17 C                    -0.215371      -0.001460
     18 H                     0.239097       0.000097
     19 C                    -0.343317       0.001569
     20 H                     0.235382      -0.000110
     21 C                    -0.338503       0.001905
     22 H                     0.235076      -0.000137
     23 C                    -0.217809      -0.001690
     24 H                     0.239824       0.000112
     25 B                     0.640685      -0.000167
     26 C                    -0.145049      -0.000641
     27 C                    -0.399398       0.000397
     28 H                     0.241003      -0.000026
     29 C                     0.109125      -0.000371
     30 C                     0.082863       0.000694
     31 C                    -0.392944      -0.000595
     32 H                     0.238533       0.000044
     33 C                    -0.149371       0.000372
     34 C                     0.191840      -0.001299
     35 C                    -0.391094       0.001384
     36 H                     0.232216      -0.000098
     37 C                    -0.067450       0.001316
     38 C                     0.238232      -0.001350
     39 C                     0.190460      -0.001733
     40 C                    -0.382652       0.001823
     41 H                     0.233296      -0.000131
     42 C                    -0.215177      -0.001497
     43 H                     0.239030       0.000100
     44 C                    -0.342545       0.001602
     45 H                     0.235443      -0.000112
     46 C                    -0.337583       0.001990
     47 H                     0.235164      -0.000143
     48 C                    -0.217719      -0.001764
     49 H                     0.240176       0.000116
     50 B                     0.644118       0.000028
     51 C                    -0.224261      -0.000038
     52 C                     0.074732       0.000032
     53 C                    -0.354800      -0.000031
     54 H                     0.239206       0.000002
     55 C                     0.306419       0.000027
     56 C                    -0.360502      -0.000031
     57 H                     0.241626       0.000002
     58 C                     0.062854       0.000032
     59 N                    -0.675456      -0.000001
     60 C                     0.287962       0.000007
     61 C                    -0.282754      -0.000007
     62 H                     0.252444       0.000001
     63 C                    -0.226335       0.000008
     64 H                     0.233066      -0.000001
     65 C                    -0.249935      -0.000007
     66 H                     0.230274       0.000001
     67 C                    -0.226337       0.000008
     68 H                     0.231466      -0.000001
     69 C                    -0.282901      -0.000007
     70 H                     0.247880       0.000001
     71 C                     0.295061       0.000007
     72 C                    -0.289416      -0.000008
     73 H                     0.253137       0.000001
     74 C                    -0.225092       0.000008
     75 H                     0.232502      -0.000001
     76 C                    -0.251589      -0.000008
     77 H                     0.229689       0.000001
     78 C                    -0.225535       0.000008
     79 H                     0.232118      -0.000001
     80 C                    -0.285577      -0.000008
     81 H                     0.249069       0.000001
     82 C                    -0.554798      -0.000002
     83 H                     0.237707       0.000001
     84 H                     0.258653      -0.000001
     85 C                    -0.547332      -0.000004
     86 H                     0.235652       0.000001
     87 H                     0.250926      -0.000000
     88 C                    -0.650653      -0.000002
     89 H                     0.237869       0.000001
     90 H                     0.224321       0.000000
     91 H                     0.219675       0.000000
     92 C                    -0.648346      -0.000002
     93 H                     0.239845       0.000001
     94 H                     0.219691       0.000000
     95 H                     0.222386       0.000000
     96 C                    -0.239874      -0.000570
     97 C                     0.090987       0.000559
     98 C                    -0.382860      -0.000553
     99 H                     0.245389       0.000040
    100 C                     0.323905       0.000509
    101 C                    -0.385928      -0.000551
    102 H                     0.246827       0.000040
    103 C                     0.078076       0.000563
    104 N                    -0.663356      -0.000008
    105 C                     0.280851       0.000435
    106 C                    -0.277594      -0.000468
    107 H                     0.256002       0.000035
    108 C                    -0.229133       0.000471
    109 H                     0.232598      -0.000036
    110 C                    -0.247302      -0.000474
    111 H                     0.230363       0.000036
    112 C                    -0.228812       0.000474
    113 H                     0.234289      -0.000036
    114 C                    -0.281202      -0.000463
    115 H                     0.253178       0.000034
    116 C                     0.262464       0.000410
    117 C                    -0.267409      -0.000437
    118 H                     0.253726       0.000033
    119 C                    -0.229287       0.000437
    120 H                     0.233392      -0.000034
    121 C                    -0.245200      -0.000439
    122 H                     0.231301       0.000034
    123 C                    -0.230715       0.000441
    124 H                     0.234865      -0.000034
    125 C                    -0.272937      -0.000430
    126 H                     0.253184       0.000032
    127 C                    -0.554917      -0.000070
    128 H                     0.235559       0.000008
    129 H                     0.261696       0.000015
    130 C                    -0.548473      -0.000065
    131 H                     0.233548       0.000008
    132 H                     0.253143       0.000012
    133 C                    -0.647318       0.000018
    134 H                     0.240084      -0.000000
    135 H                     0.219706       0.000003
    136 H                     0.219717      -0.000002
    137 C                    -0.648863       0.000018
    138 H                     0.238213      -0.000001
    139 H                     0.222844       0.000003
    140 H                     0.219705      -0.000001
  --------------------------------------------------------
  Sum of atomic charges =    -0.000000

                    Cartesian Multipole Moments
 -----------------------------------------------------------------
    Charge (ESU x 10^10)
                -0.0000
    Dipole Moment (Debye)
         X       0.6373      Y       0.0296      Z       0.5855
       Tot       0.8660
    Quadrupole Moments (Debye-Ang)
        XX    -408.5651     XY       1.8125     YY    -461.4223
        XZ     -12.9263     YZ      -3.6221     ZZ    -398.6259

             Standard Nuclear Orientation (Angstroms)
    I     Atom           X                Y                Z
 ----------------------------------------------------------------
    1      C       0.0971816504     0.1722700511     0.0138115858
    2      C       0.0995027325     0.1907325698     1.4175973071
    3      H       1.0457296707     0.2154953147     1.9472169425
    4      C      -1.0848792500     0.1770017585     2.1231750738
    5      C      -2.3138370340     0.1257469419     1.4213260059
    6      C      -2.3340132782     0.0932862793     0.0444752339
    7      H      -3.2803342949     0.0421864360    -0.4835902481
    8      C      -1.1369652243     0.1221506506    -0.6826760697
    9      C      -1.3921823471     0.2025755129     3.5569632887
   10      C      -0.6636991989     0.2577944133     4.7167706947
   11      H       0.4183655110     0.2949763302     4.7104682404
   12      C      -2.7968730698     0.1615744757     3.6594907788
   13      C      -3.5055107537     0.1704002297     4.8551097623
   14      C      -3.4016333680     0.1121529856     2.3898743674
   15      C      -4.7686492587     0.0655279789     2.3072444904
   16      H      -5.2829568374     0.0249585984     1.3547260831
   17      C      -1.3548266578     0.2693864361     5.9517133104
   18      H      -0.7763129699     0.3144741187     6.8653639072
   19      C      -2.7267586192     0.2270004825     6.0359692400
   20      H      -3.2081084620     0.2380712432     7.0060707785
   21      C      -4.9167609520     0.1227697015     4.7467779446
   22      H      -5.5281564437     0.1264200235     5.6406641372
   23      C      -5.5146279694     0.0714166736     3.5084692036
   24      H      -6.5946224113     0.0347033210     3.4470020364
   25      B       1.4293725994     0.1704664865    -0.7868259352
   26      C       1.4055175668     0.2250898117    -2.3395618237
   27      C       2.5993471464     0.2802648248    -3.0754748121
   28      H       3.5481765211     0.3032188570    -2.5506133346
   29      C       2.5760675278     0.2936287595    -4.4527738516
   30      C       1.3349581512     0.2290583234    -5.1326912571
   31      C       0.1544593974     0.1561810864    -4.4280526674
   32      H      -0.7894377950     0.0852841852    -4.9584056348
   33      C       0.1660712353     0.1648948971    -3.0264365689
   34      C       3.6367895946     0.3537745392    -5.4645973468
   35      C       5.0056174957     0.4324350784    -5.4519862106
   36      H       5.5677784076     0.4635654882    -4.5270490118
   37      C       2.9881039970     0.3208417690    -6.7146631387
   38      C       3.6368133311     0.3618329906    -7.9445417703
   39      C       1.5908688777     0.2442549570    -6.5681134462
   40      C       0.8087699422     0.2054113225    -7.6934540309
   41      H      -0.2715297132     0.1473679477    -7.6385356187
   42      C       5.6955020863     0.4750947137    -6.6865255682
   43      H       6.7759884818     0.5370381337    -6.6711174063
   44      C       5.0489869902     0.4420446857    -7.8998311066
   45      H       5.6216345574     0.4782319617    -8.8184700138
   46      C       2.8097518225     0.3207610294    -9.0928135493
   47      H       3.2539210013     0.3490520142   -10.0801690121
   48      C       1.4428004634     0.2446126313    -8.9567404863
   49      H       0.8259328522     0.2139922475    -9.8456318560
   50      B      -1.1659484900     0.0639520016    -2.2360600941
   51      C      -2.5364936648    -0.1504894852    -2.9890022637
   52      C      -3.2594580637     0.9136705199    -3.5516594760
   53      C      -4.4671681903     0.6819809023    -4.1971245102
   54      H      -5.0058690762     1.5137923039    -4.6342834871
   55      C      -5.0003664343    -0.6013688182    -4.2759080794
   56      C      -4.2811306781    -1.6601286228    -3.7289745416
   57      H      -4.6841988957    -2.6644622794    -3.7811608599
   58      C      -3.0590656778    -1.4486906665    -3.1075219359
   59      N      -6.2498418735    -0.8250889846    -4.8864284660
   60      C      -7.3234432378     0.0429276314    -4.6219934529
   61      C      -8.1894353112     0.4240514780    -5.6471593561
   62      H      -8.0187574328     0.0647600091    -6.6535292750
   63      C      -9.2651946871     1.2554189884    -5.3825695204
   64      H      -9.9272451277     1.5395587065    -6.1901909002
   65      C      -9.4870959567     1.7368857940    -4.1003987333
   66      H     -10.3246704380     2.3910773261    -3.8978941064
   67      C      -8.6203552835     1.3697565545    -3.0816488325
   68      H      -8.7850152130     1.7318630815    -2.0751127802
   69      C      -7.5517112324     0.5241857991    -3.3325570274
   70      H      -6.8927739559     0.2306145355    -2.5262664204
   71      C      -6.4565459055    -1.9657068225    -5.6794080886
   72      C      -7.6324462167    -2.7096768471    -5.5641820241
   73      H      -8.3907726908    -2.4151249157    -4.8507917299
   74      C      -7.8321077255    -3.8307551271    -6.3530595447
   75      H      -8.7485679665    -4.3967641972    -6.2471838730
   76      C      -6.8635858327    -4.2416189789    -7.2569645443
   77      H      -7.0199824249    -5.1216480462    -7.8666749356
   78      C      -5.6907330728    -3.5094164171    -7.3675820514
   79      H      -4.9281319569    -3.8126640361    -8.0731599489
   80      C      -5.4868948842    -2.3782875666    -6.5942701711
   81      H      -4.5721574463    -1.8100682255    -6.6998181869
   82      C      -2.2858894590    -2.6489724256    -2.6220969843
   83      H      -2.9775044201    -3.3916656856    -2.2174003005
   84      H      -1.6217236123    -2.3763992286    -1.7985910826
   85      C      -2.7801190783     2.3370140747    -3.4207270143
   86      H      -3.0463470603     2.8969525841    -4.3203893869
   87      H      -1.6900155724     2.3742412333    -3.3531218150
   88      C      -3.3891898516     3.0293883772    -2.2019858149
   89      H      -3.1138998599     2.5166752050    -1.2805083704
   90      H      -3.0472537322     4.0618275337    -2.1217121443
   91      H      -4.4782827177     3.0406773120    -2.2643305989
   92      C      -1.4634759437    -3.2787545996    -3.7453034652
   93      H      -0.7519945821    -2.5620634144    -4.1558642360
   94      H      -2.1057322559    -3.6158045950    -4.5600821789
   95      H      -0.9005563637    -4.1406139466    -3.3846592966
   96      C       2.7946749765     0.0179537789    -0.0229512476
   97      C       3.6398192615     1.1124462503     0.2316670939
   98      C       4.8180383384     0.9411268169     0.9443138163
   99      H       5.4409417224     1.8008713994     1.1622329564
  100      C       5.1979296052    -0.3122285849     1.4179974625
  101      C       4.3743885404    -1.4003573245     1.1460286340
  102      H       4.6744499842    -2.3855754748     1.4839861119
  103      C       3.1907269424    -1.2517597932     0.4408493300
  104      N       6.3664141571    -0.4889525162     2.1651884451
  105      C       7.4859482319     0.3451722716     1.9799627486
  106      C       7.9038243453     0.6880990599     0.6948808859
  107      H       7.3706654427     0.2990876998    -0.1625993484
  108      C       9.0018360948     1.5151115659     0.5180628995
  109      H       9.3180071783     1.7741156653    -0.4842493915
  110      C       9.7051186651     1.9963768319     1.6130783650
  111      H      10.5639277434     2.6392007600     1.4716498558
  112      C       9.2979768497     1.6425855215     2.8911095968
  113      H       9.8369233012     2.0162816446     3.7520917668
  114      C       8.1933849431     0.8261565846     3.0789970992
  115      H       7.8710937523     0.5655670152     4.0787247273
  116      C       6.4365053110    -1.5293988538     3.1131151791
  117      C       5.3792437653    -1.7553568832     3.9910289719
  118      H       4.5076297367    -1.1149002839     3.9538911877
  119      C       5.4446474765    -2.7989712279     4.9005863894
  120      H       4.6173638469    -2.9682301625     5.5776599676
  121      C       6.5642122447    -3.6179154200     4.9547101785
  122      H       6.6122817064    -4.4322314874     5.6656354050
  123      C       7.6195464814    -3.3861374918     4.0855831932
  124      H       8.4927136077    -4.0252306608     4.1129245178
  125      C       7.5573889803    -2.3527127874     3.1636751571
  126      H       8.3740152558    -2.1875021547     2.4728222891
  127      C       2.3855631576    -2.4960810787     0.1429436419
  128      H       2.5304745922    -3.2150731807     0.9531550146
  129      H       1.3179730191    -2.2681898007     0.1310669512
  130      C       3.2656229604     2.5097573853    -0.2017861040
  131      H       4.1772471227     3.0893355410    -0.3666762075
  132      H       2.7452590205     2.4832133809    -1.1613293104
  133      C       2.7715227646    -3.1609660883    -1.1773416292
  134      H       2.5889231813    -2.5025805032    -2.0253087820
  135      H       2.1858144767    -4.0678937288    -1.3331270430
  136      H       3.8263738662    -3.4370670546    -1.1862498471
  137      C       2.3949818734     3.2429487910     0.8174194035
  138      H       1.4423778806     2.7370359153     0.9649784307
  139      H       2.1760895188     4.2571561799     0.4806865939
  140      H       2.8926147228     3.3112155758     1.7853251503
 ----------------------------------------------------------------
