 Q-Chem 5.0, Q-Chem, Inc., Pleasanton, CA (2017)
 Q-Chem 5.0.1 for Intel X86 EM64T Linux

User input:
--------------------------------------------------------------
$rem
threads 8
jobtype	sp
method PBEh-3c
basis def2-mSVP
mem_static	1024
mem_total	8000
sym_ignore	true
unrestricted true
scf_convergence	9
solvent_method	pcm
$end

$molecule
read incoords.mol
$end

$solvent
dielectric	4.33
$end

$pcm
theory iefpcm
$end
--------------------------------------------------------------

   17   -3084.8089890423      4.10E-10 Convergence criterion met
 Total energy in the final basis set = -3084.80898904
 Total job time:  5122.97s(wall), 15254.79s(cpu)
        *  Thank you very much for using Q-Chem.  Have a nice day.  *
 Q-Chem 5.0, Q-Chem, Inc., Pleasanton, CA (2017)
 Q-Chem 5.0.1 for Intel X86 EM64T Linux

User input:
--------------------------------------------------------------

$rem
threads 8
jobtype opt
method PBEh-3c
basis def2-mSVP
scf_guess	read
mem_static      1024
mem_total       8000
sym_ignore      true
unrestricted true
mom_start       1
scf_algorithm	diis
scf_max_cycles	250
solvent_method	pcm
geom_opt_tol_energy 25
geom_opt_tol_gradient 75
$end

$solvent
dielectric      4.33
$end

$pcm
theory iefpcm
$end

$occupied
1 2 3 4 5 6 7 8 9 10 11 12 13 14 15 16 17 18 19 20 21 22 23 24 25 26 27 28 29 30 31 32 33 34 35 36 37 38 39 40 41 42 43 44 45 46 47 48 49 50 51 52 53 54 55 56 57 58 59 60 61 62 63 64 65 66 67 68 69 70 71 72 73 74 75 76 77 78 79 80 81 82 83 84 85 86 87 88 89 90 91 92 93 94 95 96 97 98 99 100 101 102 103 104 105 106 107 108 109 110 111 112 113 114 115 116 117 118 119 120 121 122 123 124 125 126 127 128 129 130 131 132 133 134 135 136 137 138 139 140 141 142 143 144 145 146 147 148 149 150 151 152 153 154 155 156 157 158 159 160 161 162 163 164 165 166 167 168 169 170 171 172 173 174 175 176 177 178 179 180 181 182 183 184 185 186 187 188 189 190 191 192 193 194 195 196 197 198 199 200 201 202 203 204 205 206 207 208 209 210 211 212 213 214 215 216 217 218 219 220 221 222 223 224 225 226 227 228 229 230 231 232 233 234 235 236 237 238 239 240 241 242 243 244 245 246 247 248 249 250 251 252 253 254 255 256 257 258 259 260 261 262 263 264 265 266 267 268 269  271
1 2 3 4 5 6 7 8 9 10 11 12 13 14 15 16 17 18 19 20 21 22 23 24 25 26 27 28 29 30 31 32 33 34 35 36 37 38 39 40 41 42 43 44 45 46 47 48 49 50 51 52 53 54 55 56 57 58 59 60 61 62 63 64 65 66 67 68 69 70 71 72 73 74 75 76 77 78 79 80 81 82 83 84 85 86 87 88 89 90 91 92 93 94 95 96 97 98 99 100 101 102 103 104 105 106 107 108 109 110 111 112 113 114 115 116 117 118 119 120 121 122 123 124 125 126 127 128 129 130 131 132 133 134 135 136 137 138 139 140 141 142 143 144 145 146 147 148 149 150 151 152 153 154 155 156 157 158 159 160 161 162 163 164 165 166 167 168 169 170 171 172 173 174 175 176 177 178 179 180 181 182 183 184 185 186 187 188 189 190 191 192 193 194 195 196 197 198 199 200 201 202 203 204 205 206 207 208 209 210 211 212 213 214 215 216 217 218 219 220 221 222 223 224 225 226 227 228 229 230 231 232 233 234 235 236 237 238 239 240 241 242 243 244 245 246 247 248 249 250 251 252 253 254 255 256 257 258 259 260 261 262 263 264 265 266 267 268 269 270
$end

$molecule
read
$end

--------------------------------------------------------------

   23   -3084.7251609263      8.65E-09 Convergence criterion met
 Total energy in the final basis set = -3084.72516093
   20   -3084.7292218509      8.98E-09 Convergence criterion met
 Total energy in the final basis set = -3084.72922185
   23   -3084.7355403936      7.34E-09 Convergence criterion met
 Total energy in the final basis set = -3084.73554039
   17   -3084.8018408647      7.54E-09 Convergence criterion met
 Total energy in the final basis set = -3084.80184086
   13   -3084.8049904676      4.78E-09 Convergence criterion met
 Total energy in the final basis set = -3084.80499047
   12   -3084.8075306931      8.64E-09 Convergence criterion met
 Total energy in the final basis set = -3084.80753069
   13   -3084.8082413624      6.27E-09 Convergence criterion met
 Total energy in the final basis set = -3084.80824136
   12   -3084.8086544651      9.21E-09 Convergence criterion met
 Total energy in the final basis set = -3084.80865447
   12   -3084.8089508856      7.36E-09 Convergence criterion met
 Total energy in the final basis set = -3084.80895089
   12   -3084.8090302014      7.69E-09 Convergence criterion met
 Total energy in the final basis set = -3084.80903020
   12   -3084.8090825675      8.21E-09 Convergence criterion met
 Total energy in the final basis set = -3084.80908257
   12   -3084.8089532598      7.88E-09 Convergence criterion met
 Total energy in the final basis set = -3084.80895326

             Standard Nuclear Orientation (Angstroms)
    I     Atom           X                Y                Z
 ----------------------------------------------------------------
    1      C       0.0239353512     0.3129644970     0.1497602484
    2      C       0.0117241948     0.3393586816     1.5503200871
    3      H       0.9489420394     0.3469125924     2.0961010392
    4      C      -1.1938025105     0.3510707917     2.2331279862
    5      C      -2.4058400894     0.3120536801     1.5073434958
    6      C      -2.4050804478     0.2618295378     0.1268084705
    7      H      -3.3419867218     0.2094751045    -0.4171343268
    8      C      -1.1957107591     0.2728589549    -0.5685045230
    9      C      -1.5309308862     0.3912287335     3.6605040787
   10      C      -0.8256174375     0.4413168296     4.8339197167
   11      H       0.2569566895     0.4592695811     4.8516852982
   12      C      -2.9383753297     0.3729715789     3.7320983403
   13      C      -3.6742829843     0.4004428649     4.9111086312
   14      C      -3.5171216170     0.3238261621     2.4514885015
   15      C      -4.8828615042     0.2982564959     2.3358884728
   16      H      -5.3759117843     0.2591568913     1.3719492783
   17      C      -1.5454740526     0.4712884081     6.0540188291
   18      H      -0.9857825746     0.5116815686     6.9792231796
   19      C      -2.9205124317     0.4518102058     6.1081672147
   20      H      -3.4240390770     0.4763010285     7.0667620427
   21      C      -5.0844757009     0.3737889966     4.7710044374
   22      H      -5.7161573906     0.3925023585     5.6507271584
   23      C      -5.6566909814     0.3236086413     3.5199572631
   24      H      -6.7355036558     0.3029962716     3.4346556753
   25      B       1.3706889509     0.2988031380    -0.6307360228
   26      C       1.3713004332     0.4350908184    -2.1819783566
   27      C       2.5780786633     0.5456114216    -2.8848692439
   28      H       3.5174770589     0.5653376495    -2.3438320838
   29      C       2.5710544863     0.6213390221    -4.2661880304
   30      C       1.3434027746     0.5503982986    -4.9637595211
   31      C       0.1505786402     0.4132400982    -4.2837652615
   32      H      -0.7818767968     0.3348791770    -4.8321756011
   33      C       0.1470478144     0.3706699724    -2.8886219680
   34      C       3.6428815394     0.7513240849    -5.2608036909
   35      C       5.0080604560     0.8677192977    -5.2258371720
   36      H       5.5585641929     0.8783270859    -4.2933764878
   37      C       3.0098878058     0.7507777521    -6.5198438425
   38      C       3.6701443512     0.8581885317    -7.7399342767
   39      C       1.6144454235     0.6301764425    -6.3963064634
   40      C       0.8446302190     0.6144114081    -7.5313906446
   41      H      -0.2342389977     0.5242259268    -7.4913658394
   42      C       5.7105979354     0.9783605080    -6.4514660088
   43      H       6.7883654204     1.0698919192    -6.4192486880
   44      C       5.0789458036     0.9752096046    -7.6740230425
   45      H       5.6598631130     1.0632241184    -8.5840376865
   46      C       2.8569454939     0.8398002269    -8.9004088606
   47      H       3.3109870871     0.9194932228    -9.8807202622
   48      C       1.4907762043     0.7207391473    -8.7859184813
   49      H       0.8854538314     0.7081888128    -9.6831675256
   50      B      -1.1953977935     0.2030260260    -2.1230849056
   51      C      -2.5254256081    -0.0957586986    -2.9081632767
   52      C      -3.2873023373     0.9117561380    -3.5142073334
   53      C      -4.4465565144     0.5943549302    -4.2108987705
   54      H      -5.0128049194     1.3872151435    -4.6868287584
   55      C      -4.8986235232    -0.7189374402    -4.2895270894
   56      C      -4.1478300076    -1.7201350044    -3.6823737916
   57      H      -4.4840076231    -2.7501202812    -3.7291977631
   58      C      -2.9671598206    -1.4225776033    -3.0165458120
   59      N      -6.0950604782    -1.0230001102    -4.9614000819
   60      C      -7.2171881862    -0.1872192422    -4.8185851615
   61      C      -8.0256260973     0.0831269527    -5.9220195151
   62      H      -7.7730862411    -0.3359210702    -6.8878742391
   63      C      -9.1506831259     0.8799288943    -5.7859897862
   64      H      -9.7694443286     1.0774515346    -6.6520386702
   65      C      -9.4767799469     1.4353010149    -4.5559963089
   66      H     -10.3526511339     2.0622584372    -4.4538868109
   67      C      -8.6666221891     1.1767380008    -3.4589191273
   68      H      -8.9129511421     1.5966199110    -2.4920785346
   69      C      -7.5502702918     0.3640110126    -3.5819125091
   70      H      -6.9367591976     0.1529316517    -2.7152881392
   71      C      -6.2345611621    -2.2408796761    -5.6520780806
   72      C      -7.3745565239    -3.0250964366    -5.4787294798
   73      H      -8.1562630190    -2.7002470207    -4.8038897252
   74      C      -7.5124948317    -4.2201933736    -6.1670942625
   75      H      -8.4046429417    -4.8160501908    -6.0219205996
   76      C      -6.5122648738    -4.6626074394    -7.0214020189
   77      H      -6.6199188865    -5.5998180426    -7.5512996720
   78      C      -5.3718526722    -3.8882015780    -7.1877771587
   79      H      -4.5857245340    -4.2165340309    -7.8556265622
   80      C      -5.2348059556    -2.6822755861    -6.5185184073
   81      H      -4.3472388688    -2.0799365621    -6.6654786965
   82      C      -2.1515474570    -2.5671553148    -2.4718415448
   83      H      -2.8180527869    -3.3327858612    -2.0664393332
   84      H      -1.5315371995    -2.2391570724    -1.6329841577
   85      C      -2.9133819850     2.3652336619    -3.3842769180
   86      H      -3.0618042068     2.8715035109    -4.3419381631
   87      H      -1.8509271056     2.4720913703    -3.1507920731
   88      C      -3.7427314113     3.0687320782    -2.3118940776
   89      H      -3.5966126580     2.6071272475    -1.3346293209
   90      H      -3.4657856869     4.1200818394    -2.2285343313
   91      H      -4.8070388777     3.0197625326    -2.5469447835
   92      C      -1.2624091204    -3.1900129602    -3.5465029766
   93      H      -0.5641149285    -2.4571005195    -3.9523114187
   94      H      -1.8602628774    -3.5744183977    -4.3739693376
   95      H      -0.6797023058    -4.0177359167    -3.1403253701
   96      C       2.7231759016     0.0664516217     0.1224493260
   97      C       3.6044679405     1.1173129350     0.4088643634
   98      C       4.8084733505     0.8611121210     1.0532952526
   99      H       5.4746223037     1.6831834776     1.2907860282
  100      C       5.1698731692    -0.4386640749     1.3908000068
  101      C       4.3004350511    -1.4820551163     1.0942071209
  102      H       4.5792107621    -2.4995998625     1.3442802940
  103      C       3.0800060283    -1.2421421247     0.4788529410
  104      N       6.3976430555    -0.7013492074     2.0282999116
  105      C       7.5788763058    -0.1283223917     1.5355862601
  106      C       7.7691894099     0.0311820838     0.1621737367
  107      H       7.0061158450    -0.3027163304    -0.5295082357
  108      C       8.9276152334     0.6179238948    -0.3199912541
  109      H       9.0561589902     0.7360055258    -1.3884769793
  110      C       9.9244001190     1.0355968080     0.5512508000
  111      H      10.8305422585     1.4880030039     0.1708125307
  112      C       9.7426783665     0.8649561820     1.9170488986
  113      H      10.5067857523     1.1913435495     2.6108983983
  114      C       8.5788644559     0.2971970698     2.4102193646
  115      H       8.4417013820     0.1895501528     3.4786813385
  116      C       6.4381060027    -1.6452272558     3.0680665367
  117      C       5.4634469212    -1.6286820701     4.0657479025
  118      H       4.6875466045    -0.8735870862     4.0470833631
  119      C       5.4768759435    -2.5808178234     5.0717216673
  120      H       4.7099178637    -2.5565122439     5.8353381664
  121      C       6.4697842768    -3.5504968927     5.1130482308
  122      H       6.4803417505    -4.2896386978     5.9031033100
  123      C       7.4464440643    -3.5620176399     4.1270616597
  124      H       8.2212946153    -4.3178960043     4.1393155364
  125      C       7.4288152777    -2.6255392744     3.1053130948
  126      H       8.1830868526    -2.6613642500     2.3293286786
  127      C       2.1964646330    -2.4170812388     0.1363479433
  128      H       2.3416724453    -3.2065909572     0.8777310967
  129      H       1.1425660580    -2.1349142207     0.2079071770
  130      C       3.2289960805     2.5424484653     0.0905923912
  131      H       4.1321954909     3.1228994360    -0.1122796758
  132      H       2.6357790449     2.5808997705    -0.8274106933
  133      C       2.4692053384    -2.9852355557    -1.2563891102
  134      H       2.2909302452    -2.2429494637    -2.0344820590
  135      H       1.8191130347    -3.8375201550    -1.4601302576
  136      H       3.5021621401    -3.3227256717    -1.3495100252
  137      C       2.4426684981     3.2086623150     1.2178168506
  138      H       1.5052634139     2.6858669493     1.4091274719
  139      H       2.1985515185     4.2407229996     0.9641145126
  140      H       3.0155981388     3.2165650283     2.1457526871
 ----------------------------------------------------------------

   12   -3084.8088235026      7.76E-09 Convergence criterion met
 Total energy in the final basis set = -3084.80882350

                    Orbital Energies (a.u.)
 --------------------------------------------------------------

 Alpha MOs
 -- Occupied --
-14.671 -14.670 -10.492 -10.492 -10.492 -10.491 -10.487 -10.486
-10.466 -10.466 -10.465 -10.465 -10.465 -10.465 -10.464 -10.464
-10.463 -10.463 -10.463 -10.463 -10.461 -10.461 -10.461 -10.461
-10.461 -10.460 -10.458 -10.458 -10.458 -10.458 -10.456 -10.456
-10.454 -10.454 -10.452 -10.452 -10.452 -10.451 -10.449 -10.449
-10.449 -10.449 -10.448 -10.448 -10.448 -10.448 -10.448 -10.448
-10.447 -10.446 -10.446 -10.446 -10.445 -10.445 -10.445 -10.445
-10.444 -10.444 -10.443 -10.442 -10.437 -10.437 -10.437 -10.436
-10.435 -10.435 -10.435 -10.435 -10.435 -10.435 -10.434 -10.434
-10.423 -10.423 -10.421 -10.421 -10.420 -10.419  -6.951  -6.951
 -1.081  -1.081  -1.017  -1.017  -0.965  -0.962  -0.962  -0.961
 -0.960  -0.960  -0.941  -0.941  -0.933  -0.933  -0.910  -0.902
 -0.890  -0.889  -0.869  -0.867  -0.855  -0.855  -0.852  -0.852
 -0.847  -0.846  -0.841  -0.841  -0.839  -0.838  -0.826  -0.823
 -0.821  -0.814  -0.813  -0.806  -0.802  -0.800  -0.793  -0.792
 -0.735  -0.731  -0.727  -0.721  -0.718  -0.717  -0.712  -0.711
 -0.700  -0.699  -0.699  -0.699  -0.689  -0.683  -0.682  -0.681
 -0.679  -0.674  -0.668  -0.666  -0.650  -0.648  -0.639  -0.637
 -0.632  -0.631  -0.606  -0.605  -0.596  -0.595  -0.591  -0.588
 -0.587  -0.586  -0.583  -0.575  -0.574  -0.563  -0.562  -0.556
 -0.555  -0.545  -0.543  -0.543  -0.542  -0.538  -0.528  -0.525
 -0.524  -0.524  -0.517  -0.512  -0.511  -0.509  -0.503  -0.502
 -0.502  -0.499  -0.498  -0.497  -0.497  -0.497  -0.495  -0.491
 -0.490  -0.488  -0.487  -0.486  -0.485  -0.484  -0.483  -0.482
 -0.482  -0.481  -0.478  -0.477  -0.476  -0.469  -0.467  -0.467
 -0.462  -0.456  -0.453  -0.451  -0.444  -0.439  -0.437  -0.436
 -0.436  -0.435  -0.433  -0.429  -0.429  -0.428  -0.427  -0.426
 -0.425  -0.422  -0.420  -0.418  -0.413  -0.412  -0.407  -0.407
 -0.406  -0.404  -0.400  -0.399  -0.398  -0.398  -0.397  -0.396
 -0.395  -0.394  -0.393  -0.392  -0.391  -0.388  -0.388  -0.386
 -0.380  -0.373  -0.369  -0.366  -0.358  -0.357  -0.353  -0.352
 -0.344  -0.341  -0.320  -0.315  -0.306  -0.305  -0.301  -0.301
 -0.298  -0.296  -0.296  -0.295  -0.288  -0.286  -0.281  -0.276
 -0.275  -0.262  -0.259  -0.256  -0.223  -0.222

 Beta MOs
 -- Occupied --
-14.671 -14.670 -10.492 -10.492 -10.492 -10.491 -10.487 -10.486
-10.466 -10.466 -10.465 -10.465 -10.465 -10.465 -10.464 -10.464
-10.463 -10.463 -10.463 -10.463 -10.461 -10.461 -10.461 -10.461
-10.461 -10.460 -10.458 -10.458 -10.458 -10.458 -10.456 -10.456
-10.454 -10.454 -10.452 -10.452 -10.452 -10.451 -10.449 -10.449
-10.449 -10.449 -10.448 -10.448 -10.448 -10.448 -10.448 -10.448
-10.447 -10.446 -10.446 -10.446 -10.445 -10.445 -10.445 -10.445
-10.444 -10.444 -10.443 -10.442 -10.437 -10.437 -10.437 -10.436
-10.435 -10.435 -10.435 -10.435 -10.435 -10.435 -10.434 -10.434
-10.423 -10.423 -10.421 -10.421 -10.420 -10.419  -6.951  -6.951
 -1.081  -1.081  -1.017  -1.017  -0.965  -0.962  -0.962  -0.961
 -0.960  -0.960  -0.941  -0.941  -0.933  -0.933  -0.910  -0.902
 -0.890  -0.889  -0.869  -0.867  -0.855  -0.855  -0.852  -0.852
 -0.847  -0.846  -0.841  -0.841  -0.839  -0.838  -0.826  -0.823
 -0.821  -0.814  -0.813  -0.806  -0.802  -0.800  -0.793  -0.792
 -0.735  -0.731  -0.727  -0.721  -0.718  -0.717  -0.712  -0.711
 -0.700  -0.699  -0.699  -0.699  -0.689  -0.683  -0.682  -0.681
 -0.679  -0.674  -0.668  -0.666  -0.650  -0.648  -0.639  -0.637
 -0.632  -0.631  -0.606  -0.605  -0.596  -0.595  -0.591  -0.588
 -0.587  -0.586  -0.583  -0.575  -0.574  -0.563  -0.562  -0.556
 -0.555  -0.545  -0.543  -0.543  -0.542  -0.538  -0.528  -0.525
 -0.524  -0.524  -0.517  -0.512  -0.511  -0.509  -0.503  -0.502
 -0.502  -0.499  -0.498  -0.497  -0.497  -0.497  -0.495  -0.491
 -0.490  -0.488  -0.487  -0.486  -0.485  -0.484  -0.483  -0.482
 -0.482  -0.481  -0.478  -0.477  -0.476  -0.469  -0.467  -0.467
 -0.462  -0.456  -0.453  -0.451  -0.444  -0.439  -0.437  -0.436
 -0.436  -0.435  -0.433  -0.429  -0.429  -0.428  -0.427  -0.426
 -0.425  -0.422  -0.420  -0.418  -0.413  -0.412  -0.407  -0.407
 -0.406  -0.404  -0.400  -0.399  -0.398  -0.398  -0.397  -0.396
 -0.395  -0.394  -0.393  -0.392  -0.391  -0.388  -0.388  -0.386
 -0.380  -0.373  -0.369  -0.366  -0.358  -0.357  -0.353  -0.352
 -0.344  -0.341  -0.320  -0.315  -0.306  -0.305  -0.301  -0.301
 -0.298  -0.296  -0.296  -0.295  -0.288  -0.286  -0.281  -0.276
 -0.275  -0.262  -0.259  -0.256  -0.223  -0.222

          Ground-State Mulliken Net Atomic Charges

     Atom                 Charge (a.u.)    Spin (a.u.)
  --------------------------------------------------------
      1 C                    -0.150233      -0.000000
      2 C                    -0.400404      -0.000000
      3 H                     0.246358       0.000000
      4 C                     0.098385       0.000000
      5 C                     0.073315       0.000000
      6 C                    -0.387444      -0.000000
      7 H                     0.240559       0.000000
      8 C                    -0.156046      -0.000000
      9 C                     0.183095      -0.000000
     10 C                    -0.396180       0.000000
     11 H                     0.244303      -0.000000
     12 C                    -0.065577       0.000000
     13 C                     0.229415      -0.000000
     14 C                     0.181629      -0.000000
     15 C                    -0.385804       0.000000
     16 H                     0.243787      -0.000000
     17 C                    -0.225563      -0.000000
     18 H                     0.250596       0.000000
     19 C                    -0.348358       0.000000
     20 H                     0.247411      -0.000000
     21 C                    -0.343926       0.000000
     22 H                     0.246993      -0.000000
     23 C                    -0.228577      -0.000000
     24 H                     0.250978       0.000000
     25 B                     0.651753      -0.000000
     26 C                    -0.153316      -0.000000
     27 C                    -0.393386      -0.000000
     28 H                     0.242775       0.000000
     29 C                     0.099154       0.000000
     30 C                     0.071741       0.000000
     31 C                    -0.388298      -0.000000
     32 H                     0.242745       0.000000
     33 C                    -0.153049      -0.000000
     34 C                     0.185687      -0.000000
     35 C                    -0.395474       0.000000
     36 H                     0.243406      -0.000000
     37 C                    -0.066352       0.000000
     38 C                     0.227382      -0.000000
     39 C                     0.183615      -0.000000
     40 C                    -0.386759       0.000000
     41 H                     0.244730      -0.000000
     42 C                    -0.225577      -0.000000
     43 H                     0.250180       0.000000
     44 C                    -0.347559       0.000000
     45 H                     0.247456      -0.000000
     46 C                    -0.343080       0.000000
     47 H                     0.247018      -0.000000
     48 C                    -0.228618      -0.000000
     49 H                     0.251296       0.000000
     50 B                     0.655722      -0.000000
     51 C                    -0.231774       0.000000
     52 C                     0.077557      -0.000000
     53 C                    -0.361786      -0.000000
     54 H                     0.245840      -0.000000
     55 C                     0.318386       0.000000
     56 C                    -0.375444      -0.000000
     57 H                     0.246721       0.000000
     58 C                     0.061509       0.000000
     59 N                    -0.672805      -0.000000
     60 C                     0.284236      -0.000000
     61 C                    -0.287986       0.000000
     62 H                     0.257536      -0.000000
     63 C                    -0.236211      -0.000000
     64 H                     0.243517       0.000000
     65 C                    -0.258829       0.000000
     66 H                     0.240639      -0.000000
     67 C                    -0.236919      -0.000000
     68 H                     0.242702       0.000000
     69 C                    -0.288498       0.000000
     70 H                     0.255611      -0.000000
     71 C                     0.285191      -0.000000
     72 C                    -0.290752       0.000000
     73 H                     0.257503      -0.000000
     74 C                    -0.236055      -0.000000
     75 H                     0.243457       0.000000
     76 C                    -0.258634       0.000000
     77 H                     0.240686      -0.000000
     78 C                    -0.236886      -0.000000
     79 H                     0.243432       0.000000
     80 C                    -0.285673       0.000000
     81 H                     0.256198       0.000000
     82 C                    -0.558347      -0.000000
     83 H                     0.242765       0.000000
     84 H                     0.259983       0.000000
     85 C                    -0.547131      -0.000000
     86 H                     0.239905       0.000000
     87 H                     0.251685       0.000000
     88 C                    -0.650507      -0.000000
     89 H                     0.230315       0.000000
     90 H                     0.227563       0.000000
     91 H                     0.221997      -0.000000
     92 C                    -0.652635      -0.000000
     93 H                     0.237527       0.000000
     94 H                     0.222430      -0.000000
     95 H                     0.225289       0.000000
     96 C                    -0.216145       0.000000
     97 C                     0.078192      -0.000000
     98 C                    -0.359286       0.000000
     99 H                     0.243492      -0.000000
    100 C                     0.300112      -0.000000
    101 C                    -0.368026       0.000000
    102 H                     0.244809      -0.000000
    103 C                     0.062322      -0.000000
    104 N                    -0.671732      -0.000000
    105 C                     0.300179       0.000000
    106 C                    -0.296836      -0.000000
    107 H                     0.256304       0.000000
    108 C                    -0.235159       0.000000
    109 H                     0.240732      -0.000000
    110 C                    -0.261478      -0.000000
    111 H                     0.239320       0.000000
    112 C                    -0.235943       0.000000
    113 H                     0.242648      -0.000000
    114 C                    -0.293565      -0.000000
    115 H                     0.257535       0.000000
    116 C                     0.287767       0.000000
    117 C                    -0.286784      -0.000000
    118 H                     0.254976       0.000000
    119 C                    -0.235626       0.000000
    120 H                     0.242343      -0.000000
    121 C                    -0.259633      -0.000000
    122 H                     0.240227       0.000000
    123 C                    -0.236950       0.000000
    124 H                     0.243329      -0.000000
    125 C                    -0.291893      -0.000000
    126 H                     0.257646       0.000000
    127 C                    -0.560767      -0.000000
    128 H                     0.243776       0.000000
    129 H                     0.259551       0.000000
    130 C                    -0.548495      -0.000000
    131 H                     0.240631       0.000000
    132 H                     0.251223       0.000000
    133 C                    -0.656656      -0.000000
    134 H                     0.243280       0.000000
    135 H                     0.225228      -0.000000
    136 H                     0.222358      -0.000000
    137 C                    -0.654685      -0.000000
    138 H                     0.237690       0.000000
    139 H                     0.227835       0.000000
    140 H                     0.220947      -0.000000
  --------------------------------------------------------
  Sum of atomic charges =    -0.000000

                    Cartesian Multipole Moments
 -----------------------------------------------------------------
    Charge (ESU x 10^10)
                -0.0000
    Dipole Moment (Debye)
         X      -0.6180      Y       0.0590      Z      -0.1952
       Tot       0.6507
    Quadrupole Moments (Debye-Ang)
        XX    -408.1827     XY       1.7818     YY    -458.1590
        XZ     -15.4962     YZ      -1.6265     ZZ    -394.4694
