 Q-Chem 5.0, Q-Chem, Inc., Pleasanton, CA (2017)
 Q-Chem 5.0.1 for Intel X86 EM64T Linux

User input:
--------------------------------------------------------------
$rem
threads 8
jobtype	sp
method PBEh-3c
basis def2-mSVP
mem_static	1024
mem_total	8000
sym_ignore	true
unrestricted true
scf_convergence	9
solvent_method	pcm
$end

$molecule
read incoords.mol
$end

$solvent
dielectric	4.33
$end

$pcm
theory iefpcm
$end
--------------------------------------------------------------

   17   -3084.7995764184      4.71E-10 Convergence criterion met
 Total energy in the final basis set = -3084.79957642
 Total job time:  3785.64s(wall), 12008.79s(cpu)
        *  Thank you very much for using Q-Chem.  Have a nice day.  *
 Q-Chem 5.0, Q-Chem, Inc., Pleasanton, CA (2017)
 Q-Chem 5.0.1 for Intel X86 EM64T Linux

User input:
--------------------------------------------------------------

$rem
threads 8
jobtype opt
method PBEh-3c
basis def2-mSVP
scf_guess	read
mem_static      1024
mem_total       8000
sym_ignore      true
unrestricted true
mom_start       1
scf_algorithm	diis
scf_max_cycles	250
solvent_method	pcm
geom_opt_tol_energy 25
geom_opt_tol_gradient 75
$end

$solvent
dielectric      4.33
$end

$pcm
theory iefpcm
$end

$occupied
1 2 3 4 5 6 7 8 9 10 11 12 13 14 15 16 17 18 19 20 21 22 23 24 25 26 27 28 29 30 31 32 33 34 35 36 37 38 39 40 41 42 43 44 45 46 47 48 49 50 51 52 53 54 55 56 57 58 59 60 61 62 63 64 65 66 67 68 69 70 71 72 73 74 75 76 77 78 79 80 81 82 83 84 85 86 87 88 89 90 91 92 93 94 95 96 97 98 99 100 101 102 103 104 105 106 107 108 109 110 111 112 113 114 115 116 117 118 119 120 121 122 123 124 125 126 127 128 129 130 131 132 133 134 135 136 137 138 139 140 141 142 143 144 145 146 147 148 149 150 151 152 153 154 155 156 157 158 159 160 161 162 163 164 165 166 167 168 169 170 171 172 173 174 175 176 177 178 179 180 181 182 183 184 185 186 187 188 189 190 191 192 193 194 195 196 197 198 199 200 201 202 203 204 205 206 207 208 209 210 211 212 213 214 215 216 217 218 219 220 221 222 223 224 225 226 227 228 229 230 231 232 233 234 235 236 237 238 239 240 241 242 243 244 245 246 247 248 249 250 251 252 253 254 255 256 257 258 259 260 261 262 263 264 265 266 267 268 269  271
1 2 3 4 5 6 7 8 9 10 11 12 13 14 15 16 17 18 19 20 21 22 23 24 25 26 27 28 29 30 31 32 33 34 35 36 37 38 39 40 41 42 43 44 45 46 47 48 49 50 51 52 53 54 55 56 57 58 59 60 61 62 63 64 65 66 67 68 69 70 71 72 73 74 75 76 77 78 79 80 81 82 83 84 85 86 87 88 89 90 91 92 93 94 95 96 97 98 99 100 101 102 103 104 105 106 107 108 109 110 111 112 113 114 115 116 117 118 119 120 121 122 123 124 125 126 127 128 129 130 131 132 133 134 135 136 137 138 139 140 141 142 143 144 145 146 147 148 149 150 151 152 153 154 155 156 157 158 159 160 161 162 163 164 165 166 167 168 169 170 171 172 173 174 175 176 177 178 179 180 181 182 183 184 185 186 187 188 189 190 191 192 193 194 195 196 197 198 199 200 201 202 203 204 205 206 207 208 209 210 211 212 213 214 215 216 217 218 219 220 221 222 223 224 225 226 227 228 229 230 231 232 233 234 235 236 237 238 239 240 241 242 243 244 245 246 247 248 249 250 251 252 253 254 255 256 257 258 259 260 261 262 263 264 265 266 267 268 269 270
$end

$molecule
read
$end

--------------------------------------------------------------

   21   -3084.7369841134      7.94E-09 Convergence criterion met
 Total energy in the final basis set = -3084.73698411
   20   -3084.7370833703      6.42E-09 Convergence criterion met
 Total energy in the final basis set = -3084.73708337
   20   -3084.7369552823      6.52E-09 Convergence criterion met
 Total energy in the final basis set = -3084.73695528
   20   -3084.7370872243      7.47E-09 Convergence criterion met
 Total energy in the final basis set = -3084.73708722
   18   -3084.7371207132      9.91E-09 Convergence criterion met
 Total energy in the final basis set = -3084.73712071
   18   -3084.7371182288      8.63E-09 Convergence criterion met
 Total energy in the final basis set = -3084.73711823
   19   -3084.7370604483      9.33E-09 Convergence criterion met
   18   -3084.7371573071      9.11E-09 Convergence criterion met
 Total energy in the final basis set = -3084.73715731
   18   -3084.7371912526      9.50E-09 Convergence criterion met
 Total energy in the final basis set = -3084.73719125
   18   -3084.7371989532      8.77E-09 Convergence criterion met
 Total energy in the final basis set = -3084.73719895
   18   -3084.7372160593      8.69E-09 Convergence criterion met
 Total energy in the final basis set = -3084.73721606
   18   -3084.7372230714      9.26E-09 Convergence criterion met
 Total energy in the final basis set = -3084.73722307
   18   -3084.7372095457      8.42E-09 Convergence criterion met
 Total energy in the final basis set = -3084.73720955

             Standard Nuclear Orientation (Angstroms)
    I     Atom           X                Y                Z
 ----------------------------------------------------------------
    1      C      -0.1652001652     0.9365243712     0.2926368115
    2      C      -0.2141274829     0.9176531448     1.7041664739
    3      H       0.7156459839     0.9035345665     2.2645916025
    4      C      -1.4183504243     0.9097682675     2.3695115839
    5      C      -2.6339068971     0.9068712360     1.6215993559
    6      C      -2.6117654228     0.9190593877     0.2509748110
    7      H      -3.5477685593     0.9064132538    -0.3004196427
    8      C      -1.3883785176     0.9475199766    -0.4492965465
    9      C      -3.7508155725     0.8857791550     2.5574062990
   10      C      -5.1185587405     0.8748308351     2.4342022590
   11      H      -5.6046448646     0.8818328366     1.4659188271
   12      C      -3.1849301196     0.8768932255     3.8469917395
   13      C      -3.9329613193     0.8568984914     5.0210648197
   14      C      -1.7747133271     0.8909198960     3.7885242823
   15      C      -1.0832821364     0.8843252256     4.9740176488
   16      H      -0.0009050569     0.8946208022     5.0031567294
   17      C      -5.9015427854     0.8546354375     3.6106677602
   18      H      -6.9802527032     0.8461704968     3.5154382710
   19      C      -5.3421118705     0.8457032023     4.8689961960
   20      H      -5.9813572827     0.8304925543     5.7434862779
   21      C      -1.8154529763     0.8639006805     6.1853031570
   22      H      -1.2647829596     0.8590231340     7.1173461810
   23      C      -3.1915517673     0.8504701572     6.2272664174
   24      H      -3.7049819227     0.8352287061     7.1809180388
   25      B      -1.3559253244     0.9477951719    -1.9777717356
   26      C      -0.0183091768     1.0135152368    -2.7159316848
   27      C       0.0271404290     1.0630939662    -4.1240834642
   28      H      -0.8957477610     1.0840717662    -4.6964040482
   29      C       1.2264740745     1.0768801382    -4.7855324733
   30      C       2.4553254030     1.0254100092    -4.0636615930
   31      C       2.4310200398     0.9736599196    -2.6906347465
   32      H       3.3630296984     0.9188388829    -2.1378634224
   33      C       1.2072237715     0.9787708142    -1.9842766908
   34      C       1.5303109627     1.1102565431    -6.2111933940
   35      C       0.7842462262     1.1593833304    -7.3636115118
   36      H      -0.2985743567     1.1913973747    -7.3420872393
   37      C       2.9344792578     1.0727442742    -6.3151090956
   38      C       3.6219894578     1.0782460063    -7.5271309173
   39      C       3.5444064013     1.0211144778    -5.0433629936
   40      C       4.9156927828     0.9736192821    -4.9917795041
   41      H       5.4501797851     0.9326507052    -4.0506412523
   42      C       1.4577337591     1.1683393047    -8.6067930102
   43      H       0.8690704270     1.2077113097    -9.5149635181
   44      C       2.8305462195     1.1287329760    -8.7017191715
   45      H       3.3055192970     1.1358254331    -9.6754229438
   46      C       5.6421972579     0.9784572567    -6.2068526099
   47      H       6.7231183692     0.9408636090    -6.1585957726
   48      C       5.0340480137     1.0287542770    -7.4408878619
   49      H       5.6343391103     1.0295608833    -8.3427091528
   50      B       1.1813144810     0.8971833344    -0.4473807145
   51      C       2.5443264284     0.6783615960     0.3189064841
   52      C       2.9032444342    -0.6144172340     0.7340528737
   53      C       4.1610420198    -0.8493375476     1.2769957249
   54      H       4.4436103772    -1.8563627335     1.5656511871
   55      C       5.0730527133     0.1843695415     1.4257106358
   56      C       4.7109465217     1.4722057485     1.0595593269
   57      H       5.4220124851     2.2813077766     1.1871496683
   58      C       3.4613057166     1.7241969459     0.5045526451
   59      N       6.3893368898    -0.0764729942     1.8825438937
   60      C       6.5718038521    -0.7890430026     3.0712292784
   61      C       7.6003308804    -1.7231084625     3.2177515395
   62      H       8.2830941270    -1.9123390891     2.4000154610
   63      C       7.7461982243    -2.4256831422     4.4034884252
   64      H       8.5493023872    -3.1465705191     4.4916210886
   65      C       6.8668353377    -2.2321156102     5.4589701759
   66      H       6.9796011295    -2.7899204225     6.3790521090
   67      C       5.8357095202    -1.3134464516     5.3114842821
   68      H       5.1378302606    -1.1460465457     6.1221491314
   69      C       5.6904593123    -0.5924597439     4.1384273211
   70      H       4.8846535436     0.1243671448     4.0450150458
   71      C       7.4356977983     0.1298972160     0.9689081449
   72      C       8.6801053379     0.5897262199     1.4014865532
   73      H       8.8452498763     0.7833923117     2.4537483284
   74      C       9.7014268022     0.8050642244     0.4905176607
   75      H      10.6595200731     1.1635633192     0.8448298649
   76      C       9.4986536517     0.5876628663    -0.8661230732
   77      H      10.2959674431     0.7671673810    -1.5751518097
   78      C       8.2580055383     0.1428608873    -1.3001647309
   79      H       8.0818428634    -0.0344765718    -2.3538513938
   80      C       7.2354901177    -0.0927418415    -0.3947073806
   81      H       6.2762137599    -0.4485624799    -0.7490786086
   82      C       1.9866168308    -1.7959550979     0.5230688947
   83      H       0.9466447188    -1.5012267062     0.6748884248
   84      H       2.2016085938    -2.5565440591     1.2782789833
   85      C       3.0941786054     3.1404823688     0.1422543946
   86      H       2.5302347674     3.1535788631    -0.7934389299
   87      H       4.0031261832     3.7194877965    -0.0395087315
   88      C       2.1298575600    -2.4180404668    -0.8657711711
   89      H       1.8808219912    -1.7012917479    -1.6483371536
   90      H       3.1503449919    -2.7622161164    -1.0411071585
   91      H       1.4637713277    -3.2754259815    -0.9766413705
   92      C       2.2677146603     3.8226919659     1.2303398345
   93      H       1.3287926346     3.2948825021     1.3994729486
   94      H       2.8100424644     3.8513517288     2.1764977277
   95      H       2.0245164854     4.8486902451     0.9506229477
   96      C      -2.6806677253     0.7488443778    -2.8281854735
   97      C      -3.1323227950    -0.5710726650    -3.0850233579
   98      C      -4.2456931457    -0.7879563215    -3.8615454649
   99      H      -4.6053969871    -1.7983965359    -4.0132873621
  100      C      -4.9558098043     0.2943581851    -4.4130232511
  101      N      -6.0584898642     0.0621647388    -5.1927683112
  102      C      -4.5207863504     1.6093072659    -4.1590039972
  103      H      -5.0362217212     2.4431363095    -4.6200953680
  104      C      -3.4033990103     1.8339167273    -3.3875743638
  105      C      -6.1719547930    -1.1283797607    -5.9406221886
  106      C      -7.3713446868    -1.8382588585    -5.9232016345
  107      H      -8.2027985844    -1.4912826035    -5.3237012334
  108      C      -7.4781929116    -3.0067672571    -6.6551297161
  109      H      -8.4024244576    -3.5679337940    -6.6312041116
  110      C      -6.4026172137    -3.4637211058    -7.4075008188
  111      H      -6.4928063990    -4.3773233561    -7.9795937166
  112      C      -5.2133321712    -2.7466317252    -7.4284159313
  113      H      -4.3794881304    -3.0922622384    -8.0240842518
  114      C      -5.0908842577    -1.5771646061    -6.6985500755
  115      H      -4.1731835382    -1.0042953407    -6.7327861912
  116      C      -7.1234590859     0.9835167428    -5.2480563321
  117      C      -7.7130636141     1.2798362980    -6.4765293865
  118      H      -7.3308613315     0.8377617015    -7.3874250743
  119      C      -8.7773745734     2.1611934749    -6.5214450599
  120      H      -9.2289709839     2.4030487573    -7.4739369595
  121      C      -9.2596888911     2.7387999643    -5.3527867989
  122      H     -10.0957794150     3.4238424530    -5.3943970210
  123      C      -8.6737965976     2.4322055709    -4.1314006147
  124      H      -9.0587426267     2.8662069296    -3.2187800379
  125      C      -7.6064211757     1.5537972078    -4.0709015099
  126      H      -7.1705267144     1.2872612021    -3.1167735663
  127      C      -2.3937634112    -1.7730885062    -2.5596117174
  128      H      -1.7985179282    -1.5012853421    -1.6875969025
  129      H      -3.1153050955    -2.5216781536    -2.2217813585
  130      C      -2.9740336089     3.2528989251    -3.1394607592
  131      H      -1.8915657652     3.2982427452    -3.0077024345
  132      H      -3.2074192763     3.8615868830    -4.0163536507
  133      C      -1.4881448864    -2.3859376536    -3.6263100929
  134      H      -0.7500340675    -1.6643239724    -3.9759376210
  135      H      -0.9501324132    -3.2443741696    -3.2241039619
  136      H      -2.0646807281    -2.7258177999    -4.4884693788
  137      C      -3.6663370223     3.8418864661    -1.9125075972
  138      H      -3.4219597895     3.2755382149    -1.0142675156
  139      H      -3.3511778158     4.8725394031    -1.7508702139
  140      H      -4.7509275893     3.8359398169    -2.0323789414
 ----------------------------------------------------------------

   18   -3084.7372090686      8.74E-09 Convergence criterion met
 Total energy in the final basis set = -3084.73720907
 Final energy is   -3084.73720906864
 **  OPTIMIZATION CONVERGED  **

                    Orbital Energies (a.u.)
 --------------------------------------------------------------

 Alpha MOs
 -- Occupied --
-14.760 -14.662 -10.538 -10.532 -10.532 -10.487 -10.486 -10.485
-10.484 -10.484 -10.484 -10.478 -10.478 -10.477 -10.477 -10.477
-10.477 -10.477 -10.477 -10.476 -10.474 -10.470 -10.459 -10.454
-10.453 -10.450 -10.450 -10.449 -10.449 -10.449 -10.448 -10.448
-10.448 -10.448 -10.448 -10.448 -10.447 -10.447 -10.447 -10.447
-10.446 -10.444 -10.443 -10.442 -10.441 -10.441 -10.440 -10.439
-10.439 -10.439 -10.439 -10.439 -10.439 -10.438 -10.437 -10.437
-10.437 -10.436 -10.436 -10.435 -10.435 -10.434 -10.434 -10.433
-10.432 -10.426 -10.426 -10.425 -10.423 -10.420 -10.420 -10.410
-10.409 -10.409 -10.409 -10.408 -10.407 -10.407  -6.904  -6.899
 -1.142  -1.072  -1.000  -1.000  -0.997  -0.995  -0.972  -0.955
 -0.951  -0.943  -0.941  -0.932  -0.920  -0.920  -0.911  -0.898
 -0.888  -0.888  -0.880  -0.876  -0.872  -0.872  -0.856  -0.845
 -0.844  -0.838  -0.837  -0.834  -0.834  -0.834  -0.830  -0.821
 -0.816  -0.811  -0.803  -0.797  -0.796  -0.790  -0.785  -0.780
 -0.748  -0.747  -0.723  -0.718  -0.718  -0.716  -0.713  -0.713
 -0.705  -0.704  -0.704  -0.701  -0.694  -0.689  -0.674  -0.674
 -0.671  -0.665  -0.664  -0.656  -0.655  -0.647  -0.635  -0.632
 -0.628  -0.627  -0.620  -0.620  -0.601  -0.596  -0.585  -0.584
 -0.580  -0.579  -0.577  -0.574  -0.572  -0.568  -0.560  -0.559
 -0.556  -0.553  -0.551  -0.544  -0.544  -0.537  -0.529  -0.527
 -0.527  -0.526  -0.517  -0.515  -0.514  -0.513  -0.512  -0.511
 -0.506  -0.505  -0.502  -0.492  -0.492  -0.491  -0.490  -0.486
 -0.486  -0.485  -0.482  -0.479  -0.476  -0.475  -0.475  -0.474
 -0.473  -0.472  -0.471  -0.471  -0.470  -0.464  -0.463  -0.462
 -0.461  -0.457  -0.453  -0.450  -0.449  -0.449  -0.443  -0.442
 -0.440  -0.439  -0.432  -0.432  -0.430  -0.427  -0.424  -0.423
 -0.422  -0.420  -0.417  -0.416  -0.415  -0.412  -0.411  -0.409
 -0.405  -0.401  -0.396  -0.395  -0.395  -0.393  -0.388  -0.387
 -0.385  -0.385  -0.384  -0.381  -0.381  -0.380  -0.376  -0.375
 -0.375  -0.370  -0.362  -0.356  -0.354  -0.348  -0.346  -0.335
 -0.333  -0.328  -0.327  -0.323  -0.319  -0.307  -0.303  -0.300
 -0.297  -0.297  -0.295  -0.289  -0.287  -0.286  -0.273  -0.269
 -0.265  -0.253  -0.243  -0.240  -0.217  -0.149

 Beta MOs
 -- Occupied --
-14.770 -14.662 -10.538 -10.531 -10.531 -10.487 -10.486 -10.486
-10.486 -10.486 -10.485 -10.479 -10.479 -10.478 -10.477 -10.477
-10.476 -10.476 -10.476 -10.476 -10.475 -10.470 -10.464 -10.454
-10.454 -10.450 -10.450 -10.449 -10.449 -10.449 -10.449 -10.449
-10.448 -10.448 -10.447 -10.447 -10.447 -10.447 -10.446 -10.446
-10.445 -10.444 -10.443 -10.442 -10.441 -10.441 -10.440 -10.439
-10.439 -10.438 -10.438 -10.438 -10.438 -10.438 -10.437 -10.437
-10.436 -10.436 -10.436 -10.435 -10.435 -10.435 -10.434 -10.433
-10.432 -10.426 -10.426 -10.424 -10.423 -10.420 -10.420 -10.410
-10.410 -10.409 -10.409 -10.408 -10.406 -10.406  -6.901  -6.896
 -1.158  -1.072  -1.000  -1.000  -0.999  -0.998  -0.977  -0.955
 -0.951  -0.942  -0.940  -0.931  -0.919  -0.919  -0.911  -0.901
 -0.889  -0.887  -0.880  -0.875  -0.874  -0.873  -0.856  -0.847
 -0.845  -0.837  -0.836  -0.834  -0.833  -0.833  -0.830  -0.824
 -0.823  -0.811  -0.800  -0.797  -0.795  -0.790  -0.783  -0.780
 -0.751  -0.751  -0.725  -0.718  -0.718  -0.717  -0.713  -0.711
 -0.705  -0.704  -0.703  -0.701  -0.693  -0.689  -0.674  -0.674
 -0.671  -0.665  -0.663  -0.655  -0.654  -0.646  -0.637  -0.632
 -0.628  -0.627  -0.622  -0.619  -0.600  -0.597  -0.587  -0.584
 -0.583  -0.579  -0.578  -0.577  -0.572  -0.568  -0.559  -0.559
 -0.558  -0.553  -0.552  -0.545  -0.543  -0.536  -0.530  -0.528
 -0.526  -0.526  -0.519  -0.515  -0.514  -0.514  -0.512  -0.511
 -0.507  -0.505  -0.501  -0.495  -0.492  -0.491  -0.490  -0.490
 -0.486  -0.484  -0.483  -0.480  -0.476  -0.476  -0.475  -0.474
 -0.473  -0.472  -0.470  -0.470  -0.470  -0.468  -0.465  -0.463
 -0.463  -0.458  -0.457  -0.453  -0.450  -0.449  -0.444  -0.442
 -0.440  -0.437  -0.435  -0.432  -0.431  -0.428  -0.425  -0.424
 -0.423  -0.420  -0.417  -0.415  -0.415  -0.410  -0.409  -0.408
 -0.405  -0.400  -0.397  -0.396  -0.395  -0.393  -0.393  -0.388
 -0.386  -0.384  -0.383  -0.382  -0.381  -0.380  -0.379  -0.375
 -0.374  -0.373  -0.361  -0.356  -0.350  -0.347  -0.345  -0.341
 -0.335  -0.334  -0.332  -0.325  -0.318  -0.313  -0.309  -0.301
 -0.297  -0.297  -0.295  -0.289  -0.284  -0.283  -0.273  -0.270
 -0.264  -0.260  -0.245  -0.240  -0.232  -0.217

          Ground-State Mulliken Net Atomic Charges

     Atom                 Charge (a.u.)    Spin (a.u.)
  --------------------------------------------------------
      1 C                    -0.141088       0.061352
      2 C                    -0.411970      -0.056943
      3 H                     0.227640       0.002085
      4 C                     0.084284       0.089465
      5 C                     0.059743       0.042205
      6 C                    -0.410607      -0.018594
      7 H                     0.207296       0.000648
      8 C                    -0.134418      -0.001222
      9 C                     0.179195      -0.045434
     10 C                    -0.403025       0.070827
     11 H                     0.224889      -0.004180
     12 C                    -0.077890       0.023438
     13 C                     0.229607      -0.038073
     14 C                     0.179972      -0.056233
     15 C                    -0.410049       0.084359
     16 H                     0.236115      -0.004939
     17 C                    -0.226774      -0.046514
     18 H                     0.238048       0.002283
     19 C                    -0.357932       0.066315
     20 H                     0.236157      -0.003873
     21 C                    -0.223558      -0.052742
     22 H                     0.241052       0.002549
     23 C                    -0.362610       0.076934
     24 H                     0.236280      -0.004530
     25 B                     0.505212       0.366909
     26 C                    -0.131188      -0.003535
     27 C                    -0.402930      -0.018969
     28 H                     0.206151       0.000946
     29 C                     0.057672       0.040652
     30 C                     0.086491       0.087292
     31 C                    -0.407909      -0.056652
     32 H                     0.228161       0.002104
     33 C                    -0.139858       0.062663
     34 C                     0.181095      -0.044013
     35 C                    -0.403952       0.068710
     36 H                     0.224426      -0.004062
     37 C                    -0.079117       0.022798
     38 C                     0.227890      -0.037004
     39 C                     0.182378      -0.054720
     40 C                    -0.411611       0.082065
     41 H                     0.236861      -0.004813
     42 C                    -0.226808      -0.045098
     43 H                     0.238182       0.002215
     44 C                    -0.357187       0.064124
     45 H                     0.236337      -0.003743
     46 C                    -0.223398      -0.051240
     47 H                     0.240293       0.002479
     48 C                    -0.361772       0.074688
     49 H                     0.236503      -0.004396
     50 B                     0.527371       0.282018
     51 C                    -0.181011      -0.029435
     52 C                     0.041172       0.005833
     53 C                    -0.337126      -0.002542
     54 H                     0.233432       0.000418
     55 C                     0.246544       0.003369
     56 C                    -0.345008      -0.002705
     57 H                     0.230283       0.000487
     58 C                     0.058051       0.006789
     59 N                    -0.667235      -0.000135
     60 C                     0.321751      -0.000073
     61 C                    -0.317477       0.000145
     62 H                     0.258060      -0.000008
     63 C                    -0.234203      -0.000103
     64 H                     0.238482       0.000005
     65 C                    -0.269033       0.000160
     66 H                     0.234514      -0.000009
     67 C                    -0.232900      -0.000096
     68 H                     0.238873       0.000005
     69 C                    -0.303593       0.000138
     70 H                     0.257653      -0.000014
     71 C                     0.301342      -0.000058
     72 C                    -0.288453       0.000160
     73 H                     0.258103      -0.000009
     74 C                    -0.238450      -0.000108
     75 H                     0.240213       0.000006
     76 C                    -0.261120       0.000171
     77 H                     0.236874      -0.000010
     78 C                    -0.237270      -0.000102
     79 H                     0.239436       0.000010
     80 C                    -0.297117       0.000131
     81 H                     0.260549      -0.000018
     82 C                    -0.545557       0.001885
     83 H                     0.257936      -0.001698
     84 H                     0.230540       0.000382
     85 C                    -0.537705       0.002229
     86 H                     0.254831      -0.001486
     87 H                     0.229207       0.000265
     88 C                    -0.659999       0.000678
     89 H                     0.251843      -0.000930
     90 H                     0.214299      -0.000089
     91 H                     0.215604      -0.000007
     92 C                    -0.657986       0.000361
     93 H                     0.244358      -0.000494
     94 H                     0.214446      -0.000083
     95 H                     0.219733      -0.000030
     96 C                    -0.147700      -0.372418
     97 C                     0.052647       0.129573
     98 C                    -0.345590      -0.165094
     99 H                     0.284788       0.009093
    100 C                     0.332324      -0.005195
    101 N                    -0.574663      -0.373360
    102 C                    -0.342908      -0.162328
    103 H                     0.283085       0.008947
    104 C                     0.073466       0.124879
    105 C                     0.248421       0.072314
    106 C                    -0.256565      -0.097302
    107 H                     0.284047       0.005057
    108 C                    -0.234334       0.066019
    109 H                     0.267996      -0.003418
    110 C                    -0.226855      -0.115003
    111 H                     0.267701       0.006292
    112 C                    -0.234925       0.070892
    113 H                     0.270271      -0.003825
    114 C                    -0.255908      -0.102147
    115 H                     0.289497       0.005207
    116 C                     0.256059       0.074565
    117 C                    -0.260557      -0.100316
    118 H                     0.284561       0.005186
    119 C                    -0.233381       0.068477
    120 H                     0.268164      -0.003469
    121 C                    -0.227226      -0.118905
    122 H                     0.267663       0.006506
    123 C                    -0.235091       0.073186
    124 H                     0.269461      -0.003984
    125 C                    -0.257569      -0.105714
    126 H                     0.289405       0.005433
    127 C                    -0.552909      -0.002592
    128 H                     0.287595      -0.002731
    129 H                     0.243133       0.001991
    130 C                    -0.540212      -0.003422
    131 H                     0.275603      -0.000769
    132 H                     0.240541       0.001648
    133 C                    -0.657774       0.001155
    134 H                     0.253443      -0.000256
    135 H                     0.235121       0.000681
    136 H                     0.211088      -0.000026
    137 C                    -0.658926       0.001241
    138 H                     0.251261      -0.000356
    139 H                     0.236902       0.000367
    140 H                     0.212315      -0.000063
  --------------------------------------------------------
  Sum of atomic charges =    -0.000000

                    Cartesian Multipole Moments
 -----------------------------------------------------------------
    Charge (ESU x 10^10)
                -0.0000
    Dipole Moment (Debye)
         X     -24.1864      Y      -3.0403      Z     -15.9951
       Tot      29.1560
    Quadrupole Moments (Debye-Ang)
        XX    -301.2180     XY      -7.1182     YY    -452.3228
        XZ     123.7491     YZ      11.4226     ZZ    -353.2396

 Total job time:  77434.06s(wall), 245548.50s(cpu)
        *  Thank you very much for using Q-Chem.  Have a nice day.  *
