 Q-Chem 5.0, Q-Chem, Inc., Pleasanton, CA (2017)
 Q-Chem 5.0.1 for Intel X86 EM64T Linux

User input:
--------------------------------------------------------------
$rem
threads 8
jobtype	sp
method PBEh-3c
basis def2-mSVP
mem_static	1024
mem_total	8000
sym_ignore	true
unrestricted true
scf_convergence	9
solvent_method	pcm
$end

$molecule
read incoords.mol
$end

$solvent
dielectric	2.03
$end

$pcm
theory iefpcm
$end
--------------------------------------------------------------

   17   -3084.7869488605      6.22E-10 Convergence criterion met
 Total energy in the final basis set = -3084.78694886
 Total job time:  5283.63s(wall), 15954.56s(cpu)
        *  Thank you very much for using Q-Chem.  Have a nice day.  *
 Q-Chem 5.0, Q-Chem, Inc., Pleasanton, CA (2017)
 Q-Chem 5.0.1 for Intel X86 EM64T Linux

User input:
--------------------------------------------------------------

$rem
threads 8
jobtype opt
method PBEh-3c
basis def2-mSVP
scf_guess	read
mem_static      1024
mem_total       8000
sym_ignore      true
unrestricted true
mom_start       1
scf_algorithm	diis
scf_max_cycles	250
solvent_method	pcm
geom_opt_tol_energy 25
geom_opt_tol_gradient 75
$end

$solvent
dielectric      2.03
$end
$pcm
theory iefpcm
$end

$occupied
1 2 3 4 5 6 7 8 9 10 11 12 13 14 15 16 17 18 19 20 21 22 23 24 25 26 27 28 29 30 31 32 33 34 35 36 37 38 39 40 41 42 43 44 45 46 47 48 49 50 51 52 53 54 55 56 57 58 59 60 61 62 63 64 65 66 67 68 69 70 71 72 73 74 75 76 77 78 79 80 81 82 83 84 85 86 87 88 89 90 91 92 93 94 95 96 97 98 99 100 101 102 103 104 105 106 107 108 109 110 111 112 113 114 115 116 117 118 119 120 121 122 123 124 125 126 127 128 129 130 131 132 133 134 135 136 137 138 139 140 141 142 143 144 145 146 147 148 149 150 151 152 153 154 155 156 157 158 159 160 161 162 163 164 165 166 167 168 169 170 171 172 173 174 175 176 177 178 179 180 181 182 183 184 185 186 187 188 189 190 191 192 193 194 195 196 197 198 199 200 201 202 203 204 205 206 207 208 209 210 211 212 213 214 215 216 217 218 219 220 221 222 223 224 225 226 227 228 229 230 231 232 233 234 235 236 237 238 239 240 241 242 243 244 245 246 247 248 249 250 251 252 253 254 255 256 257 258 259 260 261 262 263 264 265 266 267 268 269  271
1 2 3 4 5 6 7 8 9 10 11 12 13 14 15 16 17 18 19 20 21 22 23 24 25 26 27 28 29 30 31 32 33 34 35 36 37 38 39 40 41 42 43 44 45 46 47 48 49 50 51 52 53 54 55 56 57 58 59 60 61 62 63 64 65 66 67 68 69 70 71 72 73 74 75 76 77 78 79 80 81 82 83 84 85 86 87 88 89 90 91 92 93 94 95 96 97 98 99 100 101 102 103 104 105 106 107 108 109 110 111 112 113 114 115 116 117 118 119 120 121 122 123 124 125 126 127 128 129 130 131 132 133 134 135 136 137 138 139 140 141 142 143 144 145 146 147 148 149 150 151 152 153 154 155 156 157 158 159 160 161 162 163 164 165 166 167 168 169 170 171 172 173 174 175 176 177 178 179 180 181 182 183 184 185 186 187 188 189 190 191 192 193 194 195 196 197 198 199 200 201 202 203 204 205 206 207 208 209 210 211 212 213 214 215 216 217 218 219 220 221 222 223 224 225 226 227 228 229 230 231 232 233 234 235 236 237 238 239 240 241 242 243 244 245 246 247 248 249 250 251 252 253 254 255 256 257 258 259 260 261 262 263 264 265 266 267 268 269 270
$end

$molecule
read
$end

--------------------------------------------------------------

   20   -3084.7189779791      9.55E-09 Convergence criterion met
 Total energy in the final basis set = -3084.71897798
   17   -3084.7191915947      6.88E-09 Convergence criterion met
 Total energy in the final basis set = -3084.71919159
   17   -3084.7190527884      9.96E-09 Convergence criterion met
 Total energy in the final basis set = -3084.71905279
   17   -3084.7191909800      6.37E-09 Convergence criterion met
 Total energy in the final basis set = -3084.71919098
   16   -3084.7192668313      8.78E-09 Convergence criterion met
 Total energy in the final basis set = -3084.71926683
   16   -3084.7192635833      9.50E-09 Convergence criterion met
 Total energy in the final basis set = -3084.71926358
   17   -3084.7191042038      6.50E-09 Convergence criterion met
 Total energy in the final basis set = -3084.71923691
   16   -3084.7192383362      9.64E-09 Convergence criterion met
 Total energy in the final basis set = -3084.71923834
   16   -3084.7192288401      9.70E-09 Convergence criterion met
 Total energy in the final basis set = -3084.71922884
   16   -3084.7191996486      9.56E-09 Convergence criterion met
 Total energy in the final basis set = -3084.71919965
   16   -3084.7191396383      9.39E-09 Convergence criterion met
 Total energy in the final basis set = -3084.71913964
   16   -3084.7189545440      9.96E-09 Convergence criterion met
 Total energy in the final basis set = -3084.71895454
   16   -3084.7190110875      9.03E-09 Convergence criterion met
 Total energy in the final basis set = -3084.71901109

             Standard Nuclear Orientation (Angstroms)
    I     Atom           X                Y                Z
 ----------------------------------------------------------------
    1      C      -0.1866851252     0.9310371135     0.3636823472
    2      C      -0.2097484576     0.8910022651     1.7743988231
    3      H       0.7309160454     0.8636420840     2.3155718472
    4      C      -1.4014492118     0.8766256481     2.4615402351
    5      C      -2.6299914842     0.8929202246     1.7369231561
    6      C      -2.6330361410     0.9262309144     0.3670976506
    7      H      -3.5793763588     0.9256549116    -0.1671437247
    8      C      -1.4222750723     0.9562631897    -0.3553125020
    9      C      -3.7293634268     0.8584925577     2.6935511231
   10      C      -5.0985767658     0.8551899054     2.5969320808
   11      H      -5.6031413665     0.8845252953     1.6385689123
   12      C      -3.1394654542     0.8205471322     3.9713199453
   13      C      -3.8646327498     0.7771900066     5.1583806633
   14      C      -1.7308484729     0.8301433771     3.8858810503
   15      C      -1.0173946673     0.7938121942     5.0569042039
   16      H       0.0652861040     0.7981220441     5.0649429823
   17      C      -5.8592043247     0.8128725495     3.7869108120
   18      H      -6.9395757356     0.8105201568     3.7124372903
   19      C      -5.2758459026     0.7743602787     5.0331006293
   20      H      -5.8984317377     0.7421618021     5.9190391539
   21      C      -1.7259814801     0.7491859303     6.2810998811
   22      H      -1.1575703659     0.7205605958     7.2019533862
   23      C      -3.1004042651     0.7405984682     6.3492426032
   24      H      -3.5953091828     0.7057421784     7.3120765368
   25      B      -1.4134027490     0.9637972622    -1.8823731748
   26      C      -0.0920870121     1.0208589756    -2.6480591795
   27      C      -0.0688996513     1.0658498147    -4.0574113515
   28      H      -0.9997367080     1.0837308074    -4.6171010808
   29      C       1.1186217675     1.0817959594    -4.7376646519
   30      C       2.3589976424     1.0391324700    -4.0367757242
   31      C       2.3566983490     0.9865865361    -2.6636331683
   32      H       3.2967960321     0.9352515858    -2.1246966115
   33      C       1.1453506182     0.9859187276    -1.9377928888
   34      C       1.3981843251     1.1159292172    -6.1683813778
   35      C       0.6333066158     1.1611413969    -7.3079020588
   36      H      -0.4491817505     1.1875457812    -7.2679016021
   37      C       2.8001792157     1.0888550967    -6.2958369829
   38      C       3.4673083153     1.1018791996    -7.5187196813
   39      C       3.4310053476     1.0436075557    -5.0342757414
   40      C       4.8029417181     1.0119942126    -5.0058115622
   41      H       5.3529603136     0.9795660822    -4.0734398037
   42      C       1.2853043908     1.1760765067    -8.5618731391
   43      H       0.6817574774     1.2127426258    -9.4603884933
   44      C       2.6561273325     1.1469606946    -8.6793656140
   45      H       3.1146524991     1.1594093835    -9.6608575710
   46      C       5.5091078842     1.0242687688    -6.2322906816
   47      H       6.5910268500     0.9995250526    -6.2018998540
   48      C       4.8806673390     1.0671730789    -7.4557221838
   49      H       5.4661835506     1.0748388062    -8.3671218698
   50      B       1.1464953625     0.8959930698    -0.4012686893
   51      C       2.5239745187     0.6751413957     0.3366306179
   52      C       2.8973950740    -0.6212169627     0.7247915981
   53      C       4.1656286132    -0.8566616476     1.2414717112
   54      H       4.4594611815    -1.8655306133     1.5116357644
   55      C       5.0738698260     0.1801499938     1.3895205388
   56      C       4.6985270852     1.4707638419     1.0476696198
   57      H       5.4082127812     2.2811973111     1.1734055034
   58      C       3.4382496305     1.7234883172     0.5185941074
   59      N       6.3983632506    -0.0801141585     1.8219663065
   60      C       6.6026695156    -0.8060984344     2.9983249878
   61      C       7.6439008403    -1.7291257003     3.1216539660
   62      H       8.3206113768    -1.8980566435     2.2944762386
   63      C       7.8090115036    -2.4473404265     4.2949061984
   64      H       8.6216593569    -3.1594469920     4.3646490653
   65      C       6.9372189987    -2.2814054657     5.3606723008
   66      H       7.0650510678    -2.8519747788     6.2707994525
   67      C       5.8939879637    -1.3738901991     5.2361767130
   68      H       5.2010563945    -1.2280111039     6.0551256377
   69      C       5.7291557220    -0.6371135680     4.0762857784
   70      H       4.9129575392     0.0695999024     3.9994985673
   71      C       7.4301459736     0.1526639972     0.8992521011
   72      C       8.6757569736     0.6166540952     1.3228842469
   73      H       8.8517453902     0.7935712357     2.3762130385
   74      C       9.6823083936     0.8571319241     0.4024090086
   75      H      10.6416706804     1.2187943486     0.7498634616
   76      C       9.4635603466     0.6606848397    -0.9544043387
   77      H      10.2495097778     0.8595259666    -1.6708188298
   78      C       8.2215906400     0.2117897018    -1.3792313615
   79      H       8.0336051873     0.0499760126    -2.4333502333
   80      C       7.2136301902    -0.0482700075    -0.4651030245
   81      H       6.2522511437    -0.4064579139    -0.8110641305
   82      C       1.9839682796    -1.8040189740     0.5087654046
   83      H       0.9429424667    -1.5128423872     0.6605963825
   84      H       2.1991750952    -2.5672712101     1.2613539904
   85      C       3.0570984155     3.1411473311     0.1772800536
   86      H       2.4809512564     3.1607455128    -0.7509930883
   87      H       3.9600086454     3.7274524601    -0.0114484762
   88      C       2.1326125232    -2.4176515029    -0.8831555007
   89      H       1.8905776370    -1.6944191937    -1.6617040787
   90      H       3.1529396662    -2.7634373389    -1.0557293417
   91      H       1.4649233887    -3.2725975767    -1.0040080548
   92      C       2.2414865465     3.8070755425     1.2833092242
   93      H       1.3053217565     3.2759017899     1.4560673666
   94      H       2.7942535166     3.8246297874     2.2235939526
   95      H       1.9930857083     4.8361030882     1.0196833953
   96      C      -2.7442157305     0.7706085705    -2.7221176795
   97      C      -3.2258516801    -0.5477965956    -2.9514390414
   98      C      -4.3049877216    -0.7604541465    -3.7710747204
   99      H      -4.6803352119    -1.7667280698    -3.9095106007
  100      C      -4.9548655019     0.3187089389    -4.4050211821
  101      N      -5.9908566301     0.0801719660    -5.2601652901
  102      C      -4.5078428690     1.6344504883    -4.1554745505
  103      H      -4.9792129261     2.4663725743    -4.6639248659
  104      C      -3.4303948042     1.8579293749    -3.3332929787
  105      C      -6.1002873314    -1.1590070778    -5.9349437087
  106      C      -7.3206043060    -1.8286418733    -5.9421224957
  107      H      -8.1735691978    -1.4131461695    -5.4215749006
  108      C      -7.4254958211    -3.0408897811    -6.6005986689
  109      H      -8.3684640644    -3.5705046157    -6.5957073795
  110      C      -6.3255692194    -3.5802206485    -7.2553273936
  111      H      -6.4134413664    -4.5282315197    -7.7687013082
  112      C      -5.1148390257    -2.9013461411    -7.2548247115
  113      H      -4.2599465532    -3.3118435541    -7.7745704144
  114      C      -4.9958777700    -1.6879005656    -6.5987913728
  115      H      -4.0577177128    -1.1480771786    -6.6124882471
  116      C      -6.9931055819     1.0448891598    -5.5071584431
  117      C      -7.3997766187     1.2862817553    -6.8172075988
  118      H      -6.9276114953     0.7637101320    -7.6389398886
  119      C      -8.3991945495     2.2111584481    -7.0582265779
  120      H      -8.7084404852     2.4092102396    -8.0754609011
  121      C      -8.9979896114     2.8862559314    -6.0020640867
  122      H      -9.7814729807     3.6063821726    -6.1956727689
  123      C      -8.5962436423     2.6321720392    -4.6978832061
  124      H      -9.0720647466     3.1441302534    -3.8726648160
  125      C      -7.5962540054     1.7097004565    -4.4423474513
  126      H      -7.3004732964     1.4893686758    -3.4247558515
  127      C      -2.5427059118    -1.7491783932    -2.3571094847
  128      H      -2.0061616435    -1.4704759637    -1.4508071517
  129      H      -3.2974300917    -2.4823918072    -2.0602918035
  130      C      -2.9851718104     3.2712758927    -3.0887157409
  131      H      -1.8993161638     3.3075798887    -2.9864738625
  132      H      -3.2397925715     3.8886930892    -3.9534553691
  133      C      -1.5758563618    -2.3890440016    -3.3528400081
  134      H      -0.8077653299    -1.6825895163    -3.6664705244
  135      H      -1.0744881148    -3.2454560333    -2.9022284288
  136      H      -2.1002216258    -2.7378625455    -4.2444742539
  137      C      -3.6379828799     3.8515460186    -1.8357922550
  138      H      -3.3649675288     3.2804392960    -0.9490132347
  139      H      -3.3149016998     4.8800782529    -1.6776252759
  140      H      -4.7257831246     3.8489354956    -1.9213546965
 ----------------------------------------------------------------

   16   -3084.7189440233      9.28E-09 Convergence criterion met
 Total energy in the final basis set = -3084.71894402

                    Orbital Energies (a.u.)
 --------------------------------------------------------------

 Alpha MOs
 -- Occupied --
-14.763 -14.656 -10.548 -10.539 -10.538 -10.493 -10.492 -10.492
-10.491 -10.486 -10.486 -10.486 -10.485 -10.485 -10.485 -10.484
-10.483 -10.482 -10.481 -10.480 -10.480 -10.466 -10.463 -10.448
-10.447 -10.447 -10.445 -10.445 -10.444 -10.444 -10.444 -10.444
-10.444 -10.443 -10.443 -10.443 -10.442 -10.442 -10.442 -10.442
-10.442 -10.441 -10.441 -10.438 -10.438 -10.436 -10.435 -10.434
-10.433 -10.433 -10.433 -10.433 -10.433 -10.433 -10.431 -10.430
-10.430 -10.430 -10.430 -10.430 -10.429 -10.429 -10.428 -10.426
-10.426 -10.426 -10.424 -10.419 -10.419 -10.414 -10.414 -10.405
-10.405 -10.403 -10.402 -10.401 -10.401 -10.401  -6.900  -6.893
 -1.149  -1.066  -1.005  -1.002  -0.995  -0.994  -0.979  -0.949
 -0.944  -0.937  -0.935  -0.925  -0.916  -0.916  -0.915  -0.904
 -0.895  -0.884  -0.881  -0.880  -0.875  -0.869  -0.850  -0.850
 -0.840  -0.833  -0.832  -0.830  -0.829  -0.828  -0.826  -0.824
 -0.820  -0.805  -0.798  -0.793  -0.791  -0.784  -0.779  -0.774
 -0.755  -0.753  -0.728  -0.723  -0.722  -0.713  -0.710  -0.710
 -0.708  -0.699  -0.698  -0.695  -0.687  -0.683  -0.677  -0.669
 -0.668  -0.661  -0.661  -0.659  -0.652  -0.643  -0.640  -0.628
 -0.626  -0.623  -0.621  -0.613  -0.603  -0.595  -0.592  -0.585
 -0.580  -0.576  -0.575  -0.572  -0.568  -0.564  -0.563  -0.557
 -0.555  -0.555  -0.549  -0.548  -0.538  -0.538  -0.534  -0.531
 -0.526  -0.523  -0.523  -0.522  -0.516  -0.510  -0.509  -0.507
 -0.507  -0.501  -0.498  -0.492  -0.489  -0.486  -0.486  -0.485
 -0.482  -0.482  -0.479  -0.477  -0.472  -0.472  -0.471  -0.469
 -0.469  -0.468  -0.467  -0.466  -0.465  -0.465  -0.465  -0.459
 -0.459  -0.458  -0.456  -0.451  -0.451  -0.450  -0.446  -0.443
 -0.439  -0.439  -0.436  -0.434  -0.426  -0.426  -0.423  -0.419
 -0.417  -0.417  -0.414  -0.412  -0.410  -0.408  -0.406  -0.405
 -0.400  -0.398  -0.397  -0.395  -0.391  -0.388  -0.384  -0.382
 -0.381  -0.380  -0.379  -0.379  -0.377  -0.377  -0.374  -0.370
 -0.369  -0.368  -0.356  -0.352  -0.349  -0.345  -0.344  -0.340
 -0.336  -0.332  -0.327  -0.322  -0.313  -0.310  -0.303  -0.301
 -0.295  -0.290  -0.288  -0.282  -0.282  -0.280  -0.266  -0.263
 -0.257  -0.247  -0.237  -0.233  -0.210  -0.145

 Beta MOs
 -- Occupied --
-14.773 -14.656 -10.549 -10.538 -10.537 -10.494 -10.493 -10.493
-10.493 -10.487 -10.486 -10.485 -10.485 -10.485 -10.485 -10.484
-10.483 -10.483 -10.482 -10.480 -10.480 -10.472 -10.463 -10.449
-10.448 -10.446 -10.446 -10.445 -10.444 -10.444 -10.444 -10.444
-10.444 -10.443 -10.443 -10.443 -10.442 -10.442 -10.442 -10.441
-10.441 -10.441 -10.440 -10.438 -10.438 -10.436 -10.435 -10.434
-10.433 -10.433 -10.433 -10.433 -10.432 -10.431 -10.431 -10.430
-10.430 -10.430 -10.430 -10.430 -10.429 -10.429 -10.428 -10.427
-10.427 -10.426 -10.424 -10.419 -10.419 -10.414 -10.413 -10.406
-10.406 -10.403 -10.402 -10.401 -10.400 -10.400  -6.897  -6.891
 -1.163  -1.066  -1.007  -1.005  -0.995  -0.994  -0.984  -0.949
 -0.944  -0.936  -0.934  -0.925  -0.916  -0.915  -0.914  -0.907
 -0.896  -0.883  -0.882  -0.881  -0.875  -0.869  -0.853  -0.850
 -0.840  -0.833  -0.831  -0.829  -0.828  -0.828  -0.828  -0.827
 -0.824  -0.804  -0.796  -0.792  -0.790  -0.783  -0.778  -0.774
 -0.757  -0.757  -0.731  -0.725  -0.724  -0.712  -0.711  -0.709
 -0.707  -0.699  -0.698  -0.695  -0.687  -0.683  -0.678  -0.669
 -0.668  -0.662  -0.660  -0.659  -0.650  -0.642  -0.641  -0.629
 -0.627  -0.623  -0.621  -0.613  -0.605  -0.595  -0.594  -0.591
 -0.585  -0.575  -0.574  -0.571  -0.567  -0.565  -0.563  -0.558
 -0.555  -0.554  -0.549  -0.547  -0.539  -0.537  -0.535  -0.531
 -0.527  -0.524  -0.522  -0.521  -0.516  -0.512  -0.509  -0.507
 -0.507  -0.501  -0.500  -0.497  -0.492  -0.486  -0.486  -0.485
 -0.484  -0.481  -0.479  -0.478  -0.475  -0.474  -0.471  -0.471
 -0.469  -0.468  -0.468  -0.466  -0.465  -0.464  -0.464  -0.463
 -0.459  -0.459  -0.458  -0.453  -0.451  -0.450  -0.446  -0.442
 -0.442  -0.439  -0.435  -0.433  -0.431  -0.426  -0.423  -0.418
 -0.417  -0.417  -0.414  -0.410  -0.409  -0.406  -0.405  -0.404
 -0.400  -0.400  -0.397  -0.395  -0.394  -0.391  -0.387  -0.384
 -0.382  -0.380  -0.379  -0.377  -0.377  -0.376  -0.374  -0.370
 -0.369  -0.368  -0.354  -0.352  -0.349  -0.346  -0.343  -0.341
 -0.339  -0.338  -0.330  -0.326  -0.316  -0.313  -0.313  -0.295
 -0.291  -0.290  -0.288  -0.282  -0.278  -0.277  -0.277  -0.264
 -0.257  -0.254  -0.240  -0.234  -0.226  -0.210

          Ground-State Mulliken Net Atomic Charges

     Atom                 Charge (a.u.)    Spin (a.u.)
  --------------------------------------------------------
      1 C                    -0.143360       0.069448
      2 C                    -0.407852      -0.063293
      3 H                     0.225217       0.002454
      4 C                     0.092281       0.098246
      5 C                     0.069458       0.028262
      6 C                    -0.408467      -0.006025
      7 H                     0.194186      -0.000097
      8 C                    -0.127977      -0.018152
      9 C                     0.187298      -0.040936
     10 C                    -0.396958       0.064187
     11 H                     0.209825      -0.003825
     12 C                    -0.075982       0.022511
     13 C                     0.241975      -0.036476
     14 C                     0.188535      -0.057373
     15 C                    -0.404024       0.084657
     16 H                     0.225696      -0.004988
     17 C                    -0.216034      -0.043033
     18 H                     0.224930       0.002145
     19 C                    -0.351558       0.060406
     20 H                     0.223466      -0.003548
     21 C                    -0.212664      -0.052392
     22 H                     0.229675       0.002547
     23 C                    -0.356574       0.076799
     24 H                     0.223539      -0.004571
     25 B                     0.500182       0.387451
     26 C                    -0.125407      -0.017825
     27 C                    -0.398070      -0.009161
     28 H                     0.190604       0.000573
     29 C                     0.066543       0.028744
     30 C                     0.094347       0.097793
     31 C                    -0.402649      -0.065014
     32 H                     0.225901       0.002569
     33 C                    -0.142229       0.072648
     34 C                     0.189613      -0.040615
     35 C                    -0.398169       0.064137
     36 H                     0.206941      -0.003844
     37 C                    -0.077645       0.022484
     38 C                     0.240267      -0.036447
     39 C                     0.190914      -0.056968
     40 C                    -0.406097       0.084381
     41 H                     0.226754      -0.004978
     42 C                    -0.216051      -0.042908
     43 H                     0.224210       0.002141
     44 C                    -0.350990       0.060304
     45 H                     0.223597      -0.003543
     46 C                    -0.212116      -0.052123
     47 H                     0.228746       0.002537
     48 C                    -0.356187       0.076444
     49 H                     0.223732      -0.004551
     50 B                     0.543566       0.270298
     51 C                    -0.184695      -0.028240
     52 C                     0.047822       0.005472
     53 C                    -0.331669      -0.002348
     54 H                     0.228084       0.000399
     55 C                     0.244933       0.003054
     56 C                    -0.338542      -0.002480
     57 H                     0.223555       0.000467
     58 C                     0.064208       0.006358
     59 N                    -0.668323      -0.000138
     60 C                     0.323759      -0.000064
     61 C                    -0.312180       0.000128
     62 H                     0.253064      -0.000007
     63 C                    -0.224365      -0.000091
     64 H                     0.226951       0.000005
     65 C                    -0.258886       0.000141
     66 H                     0.223160      -0.000008
     67 C                    -0.222896      -0.000085
     68 H                     0.227475       0.000005
     69 C                    -0.296479       0.000122
     70 H                     0.253250      -0.000012
     71 C                     0.303778      -0.000053
     72 C                    -0.283201       0.000145
     73 H                     0.252226      -0.000008
     74 C                    -0.229146      -0.000097
     75 H                     0.228834       0.000005
     76 C                    -0.251133       0.000154
     77 H                     0.225481      -0.000009
     78 C                    -0.227562      -0.000090
     79 H                     0.227391       0.000010
     80 C                    -0.289620       0.000116
     81 H                     0.256144      -0.000017
     82 C                    -0.546981       0.002052
     83 H                     0.260203      -0.001766
     84 H                     0.226901       0.000377
     85 C                    -0.538004       0.002216
     86 H                     0.256312      -0.001434
     87 H                     0.224824       0.000255
     88 C                    -0.654618       0.000541
     89 H                     0.254728      -0.000793
     90 H                     0.212294      -0.000089
     91 H                     0.209049      -0.000008
     92 C                    -0.653288       0.000344
     93 H                     0.247825      -0.000470
     94 H                     0.212083      -0.000080
     95 H                     0.214944      -0.000029
     96 C                    -0.139258      -0.414810
     97 C                     0.061708       0.122375
     98 C                    -0.349805      -0.155491
     99 H                     0.278999       0.008869
    100 C                     0.345459      -0.041093
    101 N                    -0.586357      -0.337715
    102 C                    -0.350304      -0.150317
    103 H                     0.275956       0.008696
    104 C                     0.082557       0.114386
    105 C                     0.241070       0.064887
    106 C                    -0.251340      -0.079560
    107 H                     0.271968       0.004225
    108 C                    -0.227762       0.052878
    109 H                     0.258355      -0.002785
    110 C                    -0.221749      -0.091302
    111 H                     0.258453       0.005035
    112 C                    -0.228634       0.057998
    113 H                     0.262654      -0.003249
    114 C                    -0.252676      -0.084381
    115 H                     0.281002       0.004367
    116 C                     0.256080       0.068162
    117 C                    -0.256889      -0.083857
    118 H                     0.273584       0.004413
    119 C                    -0.226609       0.056241
    120 H                     0.258637      -0.002911
    121 C                    -0.222512      -0.095929
    122 H                     0.258158       0.005292
    123 C                    -0.228378       0.060679
    124 H                     0.260394      -0.003396
    125 C                    -0.257100      -0.088191
    126 H                     0.279472       0.004593
    127 C                    -0.553164      -0.002200
    128 H                     0.295193      -0.002362
    129 H                     0.237172       0.001830
    130 C                    -0.539585      -0.002195
    131 H                     0.284610      -0.000753
    132 H                     0.233583       0.001380
    133 C                    -0.654388       0.000447
    134 H                     0.263982      -0.000374
    135 H                     0.235104       0.000542
    136 H                     0.202756      -0.000041
    137 C                    -0.656116       0.000648
    138 H                     0.260470      -0.000454
    139 H                     0.236895       0.000017
    140 H                     0.205731      -0.000027
  --------------------------------------------------------
  Sum of atomic charges =    -0.000000

                    Cartesian Multipole Moments
 -----------------------------------------------------------------
    Charge (ESU x 10^10)
                -0.0000
    Dipole Moment (Debye)
         X     -21.5674      Y      -2.5531      Z     -14.7763
       Tot      26.2680
    Quadrupole Moments (Debye-Ang)
        XX    -327.0524     XY      -6.6954     YY    -452.0871
        XZ     112.7536     YZ       8.3415     ZZ    -365.4030
