 Q-Chem 5.0, Q-Chem, Inc., Pleasanton, CA (2017)
 Q-Chem 5.0.1 for Intel X86 EM64T Linux

User input:
--------------------------------------------------------------
$rem
threads 8
jobtype	sp
method PBEh-3c
basis def2-mSVP
mem_static	1024
mem_total	8000
sym_ignore	true
unrestricted true
scf_convergence	9
solvent_method	pcm
$end

$molecule
read incoords.mol
$end

$solvent
dielectric	8.93
$end

$pcm
theory iefpcm
$end
--------------------------------------------------------------

   17   -3084.8067318216      4.19E-10 Convergence criterion met
 Total energy in the final basis set = -3084.80673182
 Total job time:  3732.30s(wall), 11941.02s(cpu)
        *  Thank you very much for using Q-Chem.  Have a nice day.  *
 Q-Chem 5.0, Q-Chem, Inc., Pleasanton, CA (2017)
 Q-Chem 5.0.1 for Intel X86 EM64T Linux

User input:
--------------------------------------------------------------

$rem
threads 8
jobtype opt
method PBEh-3c
basis def2-mSVP
scf_guess	read
mem_static      1024
mem_total       8000
sym_ignore      true
unrestricted true
mom_start       1
scf_algorithm	diis
scf_max_cycles	250
solvent_method	pcm
geom_opt_tol_energy 25
geom_opt_tol_gradient 75
$end

$solvent
dielectric      8.93
$end
$pcm
theory iefpcm
$end

$occupied
1 2 3 4 5 6 7 8 9 10 11 12 13 14 15 16 17 18 19 20 21 22 23 24 25 26 27 28 29 30 31 32 33 34 35 36 37 38 39 40 41 42 43 44 45 46 47 48 49 50 51 52 53 54 55 56 57 58 59 60 61 62 63 64 65 66 67 68 69 70 71 72 73 74 75 76 77 78 79 80 81 82 83 84 85 86 87 88 89 90 91 92 93 94 95 96 97 98 99 100 101 102 103 104 105 106 107 108 109 110 111 112 113 114 115 116 117 118 119 120 121 122 123 124 125 126 127 128 129 130 131 132 133 134 135 136 137 138 139 140 141 142 143 144 145 146 147 148 149 150 151 152 153 154 155 156 157 158 159 160 161 162 163 164 165 166 167 168 169 170 171 172 173 174 175 176 177 178 179 180 181 182 183 184 185 186 187 188 189 190 191 192 193 194 195 196 197 198 199 200 201 202 203 204 205 206 207 208 209 210 211 212 213 214 215 216 217 218 219 220 221 222 223 224 225 226 227 228 229 230 231 232 233 234 235 236 237 238 239 240 241 242 243 244 245 246 247 248 249 250 251 252 253 254 255 256 257 258 259 260 261 262 263 264 265 266 267 268 269  271
1 2 3 4 5 6 7 8 9 10 11 12 13 14 15 16 17 18 19 20 21 22 23 24 25 26 27 28 29 30 31 32 33 34 35 36 37 38 39 40 41 42 43 44 45 46 47 48 49 50 51 52 53 54 55 56 57 58 59 60 61 62 63 64 65 66 67 68 69 70 71 72 73 74 75 76 77 78 79 80 81 82 83 84 85 86 87 88 89 90 91 92 93 94 95 96 97 98 99 100 101 102 103 104 105 106 107 108 109 110 111 112 113 114 115 116 117 118 119 120 121 122 123 124 125 126 127 128 129 130 131 132 133 134 135 136 137 138 139 140 141 142 143 144 145 146 147 148 149 150 151 152 153 154 155 156 157 158 159 160 161 162 163 164 165 166 167 168 169 170 171 172 173 174 175 176 177 178 179 180 181 182 183 184 185 186 187 188 189 190 191 192 193 194 195 196 197 198 199 200 201 202 203 204 205 206 207 208 209 210 211 212 213 214 215 216 217 218 219 220 221 222 223 224 225 226 227 228 229 230 231 232 233 234 235 236 237 238 239 240 241 242 243 244 245 246 247 248 249 250 251 252 253 254 255 256 257 258 259 260 261 262 263 264 265 266 267 268 269 270
$end

$molecule
read
$end

--------------------------------------------------------------

   64   -3084.8069225679      4.47E-09 Convergence criterion met
 Total energy in the final basis set = -3084.80692257
   13   -3084.8132002229      5.12E-09 Convergence criterion met
 Total energy in the final basis set = -3084.81320022
   12   -3084.8134750202      9.54E-09 Convergence criterion met
 Total energy in the final basis set = -3084.81347502
   12   -3084.8135889892      9.31E-09 Convergence criterion met
 Total energy in the final basis set = -3084.81358899
   12   -3084.8142660292      9.45E-09 Convergence criterion met
 Total energy in the final basis set = -3084.81426603
   12   -3084.8137409063      8.83E-09 Convergence criterion met
 Total energy in the final basis set = -3084.81374091
   12   -3084.8148940229      9.51E-09 Convergence criterion met
   12   -3084.8152902237      9.63E-09 Convergence criterion met
 Total energy in the final basis set = -3084.81529022
   12   -3084.8153269169      9.66E-09 Convergence criterion met
 Total energy in the final basis set = -3084.81532692
   12   -3084.8153540955      9.61E-09 Convergence criterion met
 Total energy in the final basis set = -3084.81535410
   12   -3084.8153773896      9.63E-09 Convergence criterion met
 Total energy in the final basis set = -3084.81537739
   12   -3084.8154239465      9.62E-09 Convergence criterion met
 Total energy in the final basis set = -3084.81542395
   12   -3084.8154511103      9.60E-09 Convergence criterion met
 Total energy in the final basis set = -3084.81545111

             Standard Nuclear Orientation (Angstroms)
    I     Atom           X                Y                Z
 ----------------------------------------------------------------
    1      C      -0.1229842117     1.0444342261     0.2725187791
    2      C      -0.1276004060     1.0844586383     1.6724469293
    3      H       0.8096611675     1.0383186231     2.2162429571
    4      C      -1.3271118961     1.1793748387     2.3589553064
    5      C      -2.5435326483     1.2126057554     1.6402982609
    6      C      -2.5522319642     1.1452084819     0.2597394967
    7      H      -3.4933193669     1.1453933753    -0.2793719745
    8      C      -1.3472797622     1.0756133282    -0.4397493671
    9      C      -3.6445916792     1.3076058943     2.5920919910
   10      C      -5.0098765805     1.3762849046     2.4864641831
   11      H      -5.5116851286     1.3673166163     1.5263974762
   12      C      -3.0561881869     1.3260555934     3.8685535577
   13      C      -3.7801385255     1.4080542495     5.0527063416
   14      C      -1.6519854632     1.2498538275     3.7870261676
   15      C      -0.9360121315     1.2560354128     4.9549741048
   16      H       0.1453262325     1.2004637792     4.9640758031
   17      C      -5.7722313139     1.4609665130     3.6753636136
   18      H      -6.8503433962     1.5150007013     3.5963455030
   19      C      -5.1898715857     1.4768534722     4.9228616118
   20      H      -5.8123604536     1.5423572190     5.8068596324
   21      C      -1.6429358291     1.3380316071     6.1802593663
   22      H      -1.0749082155     1.3423856348     7.1012352805
   23      C      -3.0160252730     1.4123682209     6.2442692592
   24      H      -3.5102911611     1.4740366581     7.2060065385
   25      B      -1.3533798890     1.0032144430    -1.9925810154
   26      C      -0.0051586224     1.0962283850    -2.7618337367
   27      C      -0.0072629063     1.1591176684    -4.1555977522
   28      H      -0.9455563779     1.1811978559    -4.6984629884
   29      C       1.1880234315     1.1754000361    -4.8449933273
   30      C       2.4209015220     1.1010302864    -4.1588772571
   31      C       2.4304347333     1.0271078093    -2.7775751401
   32      H       3.3722703659     0.9449416623    -2.2468536022
   33      C       1.2238054732     1.0424324208    -2.0645352247
   34      C       1.4537684256     1.2168791008    -6.2792125958
   35      C       0.6762665242     1.2785521859    -7.4074110325
   36      H      -0.4050209617     1.3212225175    -7.3567809543
   37      C       2.8516042033     1.1605785246    -6.4173957863
   38      C       3.5079222556     1.1589839652    -7.6448343695
   39      C       3.4909112692     1.0894695166    -5.1642685403
   40      C       4.8593841740     1.0144563664    -5.1424880027
   41      H       5.4150221114     0.9532931138    -4.2150288888
   42      C       1.3176285474     1.2827456250    -8.6691386285
   43      H       0.7057848228     1.3310561999    -9.5607368330
   44      C       2.6867471718     1.2245292058    -8.7980888427
   45      H       3.1365122045     1.2264160056    -9.7835670130
   46      C       5.5584654156     1.0137299210    -6.3752186116
   47      H       6.6387180228     0.9539225467    -6.3528992429
   48      C       4.9201197542     1.0828641839    -7.5926661217
   49      H       5.4979712739     1.0761316172    -8.5088955444
   50      B       1.2174302052     0.9309273483    -0.5110711201
   51      C       2.5621579716     0.6389461167     0.2360587862
   52      C       2.8473398822    -0.6756653647     0.6340343832
   53      C       4.0771277297    -0.9742744477     1.2063407671
   54      H       4.3030561977    -1.9982526616     1.4831655946
   55      C       5.0260562752     0.0182886168     1.4103037416
   56      C       4.7326775273     1.3263432832     1.0450674770
   57      H       5.4675794509     2.1056674112     1.2136427228
   58      C       3.5186659797     1.6413986633     0.4486096555
   59      N       6.2953348529    -0.2955242799     1.9422090293
   60      C       6.3943704739    -1.1509345819     3.0472749353
   61      C       7.3952921937    -2.1211060915     3.1241469798
   62      H       8.1139523440    -2.2254397770     2.3216765651
   63      C       7.4699033499    -2.9660495067     4.2205238228
   64      H       8.2531672833    -3.7125511215     4.2580389818
   65      C       6.5421559958    -2.8784151727     5.2488198216
   66      H       6.5977599959    -3.5464988681     6.0979878696
   67      C       5.5388716887    -1.9212357737     5.1694724116
   68      H       4.8073192774    -1.8350577266     5.9629354494
   69      C       5.4671854774    -1.0580834061     4.0884351155
   70      H       4.6836774905    -0.3118689357     4.0494413368
   71      C       7.4296446505     0.0546613492     1.1887727909
   72      C       8.5882891473     0.5052851352     1.8204217339
   73      H       8.6165147123     0.5853295169     2.8998226672
   74      C       9.7001816939     0.8547204428     1.0708861356
   75      H      10.5918046276     1.2032459096     1.5761986221
   76      C       9.6700378207     0.7822794437    -0.3160353748
   77      H      10.5370116386     1.0661615114    -0.8977642792
   78      C       8.5137480287     0.3439195407    -0.9465484895
   79      H       8.4754722460     0.2764880073    -2.0264810921
   80      C       7.4037832872    -0.0272047885    -0.2038909170
   81      H       6.5132751727    -0.3809198298    -0.7084289099
   82      C       1.8812257352    -1.8044042137     0.3647943599
   83      H       0.8496106597    -1.4586459989     0.4706343090
   84      H       2.0140038589    -2.5819970989     1.1207563827
   85      C       3.2270906352     3.0771483118     0.0928749193
   86      H       2.6479967656     3.1290771798    -0.8332796077
   87      H       4.1649105215     3.5992541455    -0.1097957155
   88      C       2.0613049552    -2.4225082274    -1.0218359676
   89      H       1.9081615461    -1.6867717118    -1.8118523885
   90      H       3.0638587620    -2.8347255930    -1.1421977182
   91      H       1.3454155262    -3.2303647166    -1.1800171105
   92      C       2.4694876503     3.8132410487     1.1963579135
   93      H       1.4955278113     3.3595881758     1.3812866270
   94      H       3.0272319463     3.7976732328     2.1334347145
   95      H       2.3008855131     4.8551278210     0.9220565873
   96      C      -2.6793976927     0.7537894444    -2.8031508963
   97      C      -3.0773162205    -0.5687882242    -3.0415299465
   98      C      -4.2081000022    -0.8337742643    -3.8005558700
   99      H      -4.5102143307    -1.8625554909    -3.9639564394
  100      C      -4.9459914506     0.1973966053    -4.3695443357
  101      N      -6.0606067807    -0.0941613937    -5.1782986606
  102      C      -4.5521977315     1.5104204150    -4.1394914748
  103      H      -5.1128355589     2.3254537701    -4.5841442547
  104      C      -3.4396971283     1.7926024015    -3.3549842140
  105      C      -5.9882576968    -1.1608423247    -6.0920561633
  106      C      -7.0287501529    -2.0843209353    -6.1881811480
  107      H      -7.9002980252    -1.9843566556    -5.5534979371
  108      C      -6.9515610671    -3.1328889806    -7.0917159976
  109      H      -7.7681082200    -3.8410960249    -7.1533811208
  110      C      -5.8320691088    -3.2897996889    -7.8974776300
  111      H      -5.7714965583    -4.1144742857    -8.5954025877
  112      C      -4.7904876403    -2.3769194075    -7.7963213166
  113      H      -3.9133934024    -2.4828188437    -8.4219117283
  114      C      -4.8686849086    -1.3143976382    -6.9095660208
  115      H      -4.0561675601    -0.6012846577    -6.8494961515
  116      C      -7.2570500644     0.6242288969    -5.0368078078
  117      C      -8.0132690977     0.9595475249    -6.1611401332
  118      H      -7.6682813905     0.6765919458    -7.1475876282
  119      C      -9.2051717998     1.6520498855    -6.0213915297
  120      H      -9.7791317497     1.9019385952    -6.9047762824
  121      C      -9.6552375791     2.0399727047    -4.7663575882
  122      H     -10.5828866845     2.5870643106    -4.6621973497
  123      C      -8.8997377156     1.7157730120    -3.6475287391
  124      H      -9.2406176793     2.0026273827    -2.6609097203
  125      C      -7.7162709710     1.0053197537    -3.7758296315
  126      H      -7.1485352428     0.7401908143    -2.8930038849
  127      C      -2.2720841727    -1.7405462526    -2.5382332787
  128      H      -1.6235272230    -1.4429311250    -1.7091313996
  129      H      -2.9457521992    -2.4970231590    -2.1267416584
  130      C      -3.0896541892     3.2370264087    -3.1065449799
  131      H      -2.0519574829     3.3300416439    -2.7734810708
  132      H      -3.1513547107     3.7956313963    -4.0443290675
  133      C      -1.4234581397    -2.3687725166    -3.6414228845
  134      H      -0.7212279606    -1.6446353872    -4.0555549040
  135      H      -0.8483670209    -3.2126090985    -3.2583211085
  136      H      -2.0478009726    -2.7327607329    -4.4586496547
  137      C      -4.0125348210     3.8833636061    -2.0761680897
  138      H      -3.9448890847     3.3750665128    -1.1138576097
  139      H      -3.7526683956     4.9307207571    -1.9198335045
  140      H      -5.0530301367     3.8414162485    -2.4011038860
 ----------------------------------------------------------------

   12   -3084.8154605035      9.52E-09 Convergence criterion met
 Total energy in the final basis set = -3084.81546050
 Final energy is   -3084.81546050347
 **  OPTIMIZATION CONVERGED  **

                    Orbital Energies (a.u.)
 --------------------------------------------------------------

 Alpha MOs
 -- Occupied --
-14.672 -14.671 -10.494 -10.493 -10.493 -10.493 -10.487 -10.486
-10.468 -10.468 -10.466 -10.466 -10.466 -10.466 -10.465 -10.465
-10.465 -10.465 -10.464 -10.464 -10.462 -10.462 -10.462 -10.462
-10.462 -10.462 -10.459 -10.459 -10.459 -10.458 -10.458 -10.458
-10.456 -10.455 -10.455 -10.454 -10.454 -10.453 -10.450 -10.450
-10.450 -10.449 -10.449 -10.449 -10.449 -10.449 -10.448 -10.448
-10.447 -10.447 -10.447 -10.447 -10.446 -10.446 -10.445 -10.445
-10.445 -10.444 -10.443 -10.442 -10.439 -10.439 -10.439 -10.439
-10.438 -10.438 -10.437 -10.437 -10.437 -10.436 -10.436 -10.435
-10.426 -10.425 -10.422 -10.422 -10.421 -10.421  -6.954  -6.953
 -1.082  -1.082  -1.019  -1.019  -0.967  -0.964  -0.962  -0.962
 -0.962  -0.962  -0.942  -0.942  -0.934  -0.934  -0.912  -0.904
 -0.892  -0.891  -0.871  -0.869  -0.857  -0.857  -0.853  -0.853
 -0.848  -0.847  -0.842  -0.842  -0.839  -0.838  -0.827  -0.825
 -0.822  -0.815  -0.814  -0.807  -0.804  -0.801  -0.794  -0.793
 -0.737  -0.732  -0.728  -0.722  -0.720  -0.718  -0.714  -0.712
 -0.701  -0.701  -0.701  -0.700  -0.690  -0.683  -0.682  -0.681
 -0.681  -0.675  -0.669  -0.667  -0.651  -0.650  -0.640  -0.638
 -0.634  -0.632  -0.608  -0.607  -0.597  -0.596  -0.591  -0.589
 -0.588  -0.587  -0.584  -0.576  -0.575  -0.563  -0.562  -0.557
 -0.556  -0.546  -0.544  -0.544  -0.544  -0.540  -0.529  -0.525
 -0.525  -0.523  -0.518  -0.513  -0.511  -0.510  -0.504  -0.504
 -0.503  -0.500  -0.499  -0.499  -0.498  -0.497  -0.496  -0.492
 -0.491  -0.490  -0.489  -0.488  -0.487  -0.484  -0.484  -0.483
 -0.482  -0.481  -0.478  -0.478  -0.476  -0.472  -0.470  -0.467
 -0.463  -0.458  -0.454  -0.452  -0.445  -0.440  -0.439  -0.438
 -0.437  -0.436  -0.435  -0.431  -0.430  -0.429  -0.429  -0.427
 -0.427  -0.423  -0.421  -0.419  -0.413  -0.412  -0.408  -0.407
 -0.405  -0.405  -0.401  -0.400  -0.398  -0.398  -0.398  -0.397
 -0.397  -0.395  -0.394  -0.393  -0.392  -0.390  -0.389  -0.387
 -0.382  -0.375  -0.370  -0.369  -0.360  -0.359  -0.355  -0.354
 -0.347  -0.343  -0.322  -0.317  -0.307  -0.305  -0.303  -0.302
 -0.299  -0.298  -0.297  -0.297  -0.290  -0.287  -0.283  -0.279
 -0.277  -0.264  -0.261  -0.258  -0.225  -0.224

 Beta MOs
 -- Occupied --
-14.672 -14.671 -10.494 -10.493 -10.493 -10.493 -10.487 -10.486
-10.468 -10.468 -10.466 -10.466 -10.466 -10.466 -10.465 -10.465
-10.465 -10.465 -10.464 -10.464 -10.462 -10.462 -10.462 -10.462
-10.462 -10.462 -10.459 -10.459 -10.459 -10.458 -10.458 -10.458
-10.456 -10.455 -10.455 -10.454 -10.454 -10.453 -10.450 -10.450
-10.450 -10.449 -10.449 -10.449 -10.449 -10.449 -10.448 -10.448
-10.447 -10.447 -10.447 -10.447 -10.446 -10.446 -10.445 -10.445
-10.445 -10.444 -10.443 -10.442 -10.439 -10.439 -10.439 -10.439
-10.438 -10.438 -10.437 -10.437 -10.437 -10.436 -10.436 -10.435
-10.426 -10.425 -10.422 -10.422 -10.421 -10.421  -6.954  -6.953
 -1.082  -1.082  -1.019  -1.019  -0.967  -0.964  -0.962  -0.962
 -0.962  -0.962  -0.942  -0.942  -0.934  -0.934  -0.912  -0.904
 -0.892  -0.891  -0.871  -0.869  -0.857  -0.857  -0.853  -0.853
 -0.848  -0.847  -0.842  -0.842  -0.839  -0.838  -0.827  -0.825
 -0.822  -0.815  -0.814  -0.807  -0.804  -0.801  -0.794  -0.793
 -0.737  -0.732  -0.728  -0.722  -0.720  -0.718  -0.714  -0.712
 -0.701  -0.701  -0.701  -0.700  -0.690  -0.683  -0.682  -0.681
 -0.681  -0.675  -0.669  -0.667  -0.651  -0.650  -0.640  -0.638
 -0.634  -0.632  -0.608  -0.607  -0.597  -0.596  -0.591  -0.589
 -0.588  -0.587  -0.584  -0.576  -0.575  -0.563  -0.562  -0.557
 -0.556  -0.546  -0.544  -0.544  -0.544  -0.540  -0.529  -0.525
 -0.525  -0.523  -0.518  -0.513  -0.511  -0.510  -0.504  -0.504
 -0.503  -0.500  -0.499  -0.499  -0.498  -0.497  -0.496  -0.492
 -0.491  -0.490  -0.489  -0.488  -0.487  -0.484  -0.484  -0.483
 -0.482  -0.481  -0.478  -0.478  -0.476  -0.472  -0.470  -0.467
 -0.463  -0.458  -0.454  -0.452  -0.445  -0.440  -0.439  -0.438
 -0.437  -0.436  -0.435  -0.431  -0.430  -0.429  -0.429  -0.427
 -0.427  -0.423  -0.421  -0.419  -0.413  -0.412  -0.408  -0.407
 -0.405  -0.405  -0.401  -0.400  -0.398  -0.398  -0.398  -0.397
 -0.397  -0.395  -0.394  -0.393  -0.392  -0.390  -0.389  -0.387
 -0.382  -0.375  -0.370  -0.369  -0.360  -0.359  -0.355  -0.354
 -0.347  -0.343  -0.322  -0.317  -0.307  -0.305  -0.303  -0.302
 -0.299  -0.298  -0.297  -0.297  -0.290  -0.287  -0.283  -0.279
 -0.277  -0.264  -0.261  -0.258  -0.225  -0.224

          Ground-State Mulliken Net Atomic Charges

     Atom                 Charge (a.u.)    Spin (a.u.)
  --------------------------------------------------------
      1 C                    -0.149995       0.000000
      2 C                    -0.399537       0.000000
      3 H                     0.249959       0.000000
      4 C                     0.092921       0.000000
      5 C                     0.070323      -0.000000
      6 C                    -0.392481      -0.000000
      7 H                     0.242141      -0.000000
      8 C                    -0.157729      -0.000000
      9 C                     0.177277       0.000000
     10 C                    -0.388794       0.000000
     11 H                     0.251354       0.000000
     12 C                    -0.065587      -0.000000
     13 C                     0.223048      -0.000000
     14 C                     0.178437      -0.000000
     15 C                    -0.397933      -0.000000
     16 H                     0.251675      -0.000000
     17 C                    -0.234129      -0.000000
     18 H                     0.257843       0.000000
     19 C                    -0.346515       0.000000
     20 H                     0.254704       0.000000
     21 C                    -0.231599       0.000000
     22 H                     0.257387       0.000000
     23 C                    -0.350686      -0.000000
     24 H                     0.255035       0.000000
     25 B                     0.651597       0.000000
     26 C                    -0.154150       0.000000
     27 C                    -0.386764       0.000000
     28 H                     0.246505      -0.000000
     29 C                     0.066864       0.000000
     30 C                     0.096367      -0.000000
     31 C                    -0.395527       0.000000
     32 H                     0.247851      -0.000000
     33 C                    -0.150295      -0.000000
     34 C                     0.178353      -0.000000
     35 C                    -0.389625      -0.000000
     36 H                     0.251074      -0.000000
     37 C                    -0.066774       0.000000
     38 C                     0.220870      -0.000000
     39 C                     0.180497      -0.000000
     40 C                    -0.397892       0.000000
     41 H                     0.250439      -0.000000
     42 C                    -0.234079      -0.000000
     43 H                     0.257829       0.000000
     44 C                    -0.345802       0.000000
     45 H                     0.254634      -0.000000
     46 C                    -0.231323      -0.000000
     47 H                     0.256851       0.000000
     48 C                    -0.350205       0.000000
     49 H                     0.255058      -0.000000
     50 B                     0.653775       0.000000
     51 C                    -0.214403      -0.000000
     52 C                     0.054302       0.000000
     53 C                    -0.355887       0.000000
     54 H                     0.246979       0.000000
     55 C                     0.279261       0.000000
     56 C                    -0.355729      -0.000000
     57 H                     0.244608      -0.000000
     58 C                     0.075750       0.000000
     59 N                    -0.668546       0.000000
     60 C                     0.310804      -0.000000
     61 C                    -0.312712       0.000000
     62 H                     0.261758       0.000000
     63 C                    -0.239872      -0.000000
     64 H                     0.247911       0.000000
     65 C                    -0.271030       0.000000
     66 H                     0.244125       0.000000
     67 C                    -0.238701      -0.000000
     68 H                     0.247279       0.000000
     69 C                    -0.302606       0.000000
     70 H                     0.259402       0.000000
     71 C                     0.290339      -0.000000
     72 C                    -0.288862       0.000000
     73 H                     0.261992      -0.000000
     74 C                    -0.243221      -0.000000
     75 H                     0.249269      -0.000000
     76 C                    -0.264707       0.000000
     77 H                     0.246149      -0.000000
     78 C                    -0.241596       0.000000
     79 H                     0.247516       0.000000
     80 C                    -0.296750       0.000000
     81 H                     0.259649      -0.000000
     82 C                    -0.559246      -0.000000
     83 H                     0.258495       0.000000
     84 H                     0.246455      -0.000000
     85 C                    -0.547953       0.000000
     86 H                     0.251633       0.000000
     87 H                     0.243988      -0.000000
     88 C                    -0.660864      -0.000000
     89 H                     0.241816       0.000000
     90 H                     0.224067       0.000000
     91 H                     0.228530       0.000000
     92 C                    -0.658162       0.000000
     93 H                     0.236724      -0.000000
     94 H                     0.222986      -0.000000
     95 H                     0.229872      -0.000000
     96 C                    -0.227451       0.000000
     97 C                     0.055870      -0.000000
     98 C                    -0.366580       0.000000
     99 H                     0.247611       0.000000
    100 C                     0.308427      -0.000000
    101 N                    -0.673331      -0.000000
    102 C                    -0.359294      -0.000000
    103 H                     0.247421      -0.000000
    104 C                     0.075536       0.000000
    105 C                     0.282288       0.000000
    106 C                    -0.291921      -0.000000
    107 H                     0.260528      -0.000000
    108 C                    -0.242303       0.000000
    109 H                     0.249491       0.000000
    110 C                    -0.263970      -0.000000
    111 H                     0.246673      -0.000000
    112 C                    -0.242104       0.000000
    113 H                     0.249353       0.000000
    114 C                    -0.289014      -0.000000
    115 H                     0.257828      -0.000000
    116 C                     0.300196      -0.000000
    117 C                    -0.299535      -0.000000
    118 H                     0.260540       0.000000
    119 C                    -0.240646       0.000000
    120 H                     0.248627       0.000000
    121 C                    -0.267278       0.000000
    122 H                     0.245395      -0.000000
    123 C                    -0.241222      -0.000000
    124 H                     0.248075      -0.000000
    125 C                    -0.300008       0.000000
    126 H                     0.259077       0.000000
    127 C                    -0.560092       0.000000
    128 H                     0.259905      -0.000000
    129 H                     0.247074       0.000000
    130 C                    -0.544743       0.000000
    131 H                     0.250122       0.000000
    132 H                     0.243210      -0.000000
    133 C                    -0.656181      -0.000000
    134 H                     0.236350       0.000000
    135 H                     0.227908      -0.000000
    136 H                     0.224737      -0.000000
    137 C                    -0.652416       0.000000
    138 H                     0.227601       0.000000
    139 H                     0.229738      -0.000000
    140 H                     0.224450       0.000000
  --------------------------------------------------------
  Sum of atomic charges =    -0.000000

                    Cartesian Multipole Moments
 -----------------------------------------------------------------
    Charge (ESU x 10^10)
                -0.0000
    Dipole Moment (Debye)
         X      -0.4048      Y       0.1008      Z      -0.6468
       Tot       0.7697
    Quadrupole Moments (Debye-Ang)
        XX    -407.1985     XY      -3.1430     YY    -460.7911
        XZ     -21.1522     YZ       2.2778     ZZ    -388.8819

 Total job time:  67507.82s(wall), 215488.17s(cpu)
        *  Thank you very much for using Q-Chem.  Have a nice day.  *
