 Q-Chem 5.0, Q-Chem, Inc., Pleasanton, CA (2017)
 Q-Chem 5.0.1 for Intel X86 EM64T Linux

User input:
--------------------------------------------------------------
$rem
threads 8
jobtype	sp
method PBEh-3c
basis def2-mSVP
mem_static	1024
mem_total	8000
sym_ignore	true
unrestricted true
scf_convergence	9
solvent_method	pcm
$end

$molecule
read incoords.mol
$end

$solvent
dielectric	1.0001
$end

$pcm
theory iefpcm
$end
--------------------------------------------------------------

   17   -3084.7727443446      9.95E-10 Convergence criterion met
 Total energy in the final basis set = -3084.77274434
 Total job time:  5275.70s(wall), 16062.39s(cpu)
        *  Thank you very much for using Q-Chem.  Have a nice day.  *
 Q-Chem 5.0, Q-Chem, Inc., Pleasanton, CA (2017)
 Q-Chem 5.0.1 for Intel X86 EM64T Linux

User input:
--------------------------------------------------------------

$rem
threads 8
jobtype opt
method PBEh-3c
basis def2-mSVP
scf_guess	read
mem_static      1024
mem_total       8000
sym_ignore      true
unrestricted true
mom_start       1
scf_algorithm	diis
scf_max_cycles	250
solvent_method	pcm
geom_opt_tol_energy 25
geom_opt_tol_gradient 75
$end

$solvent
dielectric      1.0001
$end

$pcm
theory iefpcm
$end

$occupied
1 2 3 4 5 6 7 8 9 10 11 12 13 14 15 16 17 18 19 20 21 22 23 24 25 26 27 28 29 30 31 32 33 34 35 36 37 38 39 40 41 42 43 44 45 46 47 48 49 50 51 52 53 54 55 56 57 58 59 60 61 62 63 64 65 66 67 68 69 70 71 72 73 74 75 76 77 78 79 80 81 82 83 84 85 86 87 88 89 90 91 92 93 94 95 96 97 98 99 100 101 102 103 104 105 106 107 108 109 110 111 112 113 114 115 116 117 118 119 120 121 122 123 124 125 126 127 128 129 130 131 132 133 134 135 136 137 138 139 140 141 142 143 144 145 146 147 148 149 150 151 152 153 154 155 156 157 158 159 160 161 162 163 164 165 166 167 168 169 170 171 172 173 174 175 176 177 178 179 180 181 182 183 184 185 186 187 188 189 190 191 192 193 194 195 196 197 198 199 200 201 202 203 204 205 206 207 208 209 210 211 212 213 214 215 216 217 218 219 220 221 222 223 224 225 226 227 228 229 230 231 232 233 234 235 236 237 238 239 240 241 242 243 244 245 246 247 248 249 250 251 252 253 254 255 256 257 258 259 260 261 262 263 264 265 266 267 268 269  271
1 2 3 4 5 6 7 8 9 10 11 12 13 14 15 16 17 18 19 20 21 22 23 24 25 26 27 28 29 30 31 32 33 34 35 36 37 38 39 40 41 42 43 44 45 46 47 48 49 50 51 52 53 54 55 56 57 58 59 60 61 62 63 64 65 66 67 68 69 70 71 72 73 74 75 76 77 78 79 80 81 82 83 84 85 86 87 88 89 90 91 92 93 94 95 96 97 98 99 100 101 102 103 104 105 106 107 108 109 110 111 112 113 114 115 116 117 118 119 120 121 122 123 124 125 126 127 128 129 130 131 132 133 134 135 136 137 138 139 140 141 142 143 144 145 146 147 148 149 150 151 152 153 154 155 156 157 158 159 160 161 162 163 164 165 166 167 168 169 170 171 172 173 174 175 176 177 178 179 180 181 182 183 184 185 186 187 188 189 190 191 192 193 194 195 196 197 198 199 200 201 202 203 204 205 206 207 208 209 210 211 212 213 214 215 216 217 218 219 220 221 222 223 224 225 226 227 228 229 230 231 232 233 234 235 236 237 238 239 240 241 242 243 244 245 246 247 248 249 250 251 252 253 254 255 256 257 258 259 260 261 262 263 264 265 266 267 268 269 270
$end

$molecule
read
$end

--------------------------------------------------------------

   19   -3084.6970926894      9.98E-09 Convergence criterion met
 Total energy in the final basis set = -3084.69709269
   10   -3084.6970844010      9.82E-09 Convergence criterion met
 Total energy in the final basis set = -3084.69708440
   11   -3084.6970795929      6.96E-09 Convergence criterion met
 Total energy in the final basis set = -3084.69707959
   10   -3084.6970433101      4.57E-09 Convergence criterion met
 Total energy in the final basis set = -3084.69704331
   10   -3084.6970031449      5.85E-09 Convergence criterion met
 Total energy in the final basis set = -3084.69700314
   11   -3084.6968453230      8.95E-09 Convergence criterion met
 Total energy in the final basis set = -3084.69684532
   10   -3084.6967586493      7.79E-09 Convergence criterion met
 Total energy in the final basis set = -3084.69675865
    9   -3084.6967454794      8.27E-09 Convergence criterion met
 Total energy in the final basis set = -3084.69674548
   10   -3084.6967021052      5.09E-09 Convergence criterion met
 Total energy in the final basis set = -3084.69670211
    9   -3084.6967077560      6.07E-09 Convergence criterion met
 Total energy in the final basis set = -3084.69670776

             Standard Nuclear Orientation (Angstroms)
    I     Atom           X                Y                Z
 ----------------------------------------------------------------
    1      C      -0.2032754968     0.9444774347     0.3955871482
    2      C      -0.2176413621     0.8947990173     1.8052691427
    3      H       0.7273975044     0.8653330415     2.3384170352
    4      C      -1.4050469631     0.8721042187     2.4993993304
    5      C      -2.6371565049     0.8895623455     1.7825696682
    6      C      -2.6488546164     0.9344851168     0.4138812142
    7      H      -3.5993121724     0.9366541386    -0.1136660625
    8      C      -1.4419385199     0.9735053995    -0.3154779944
    9      C      -3.7309447727     0.8432837359     2.7455532315
   10      C      -5.0998355490     0.8348252414     2.6570256985
   11      H      -5.6098958686     0.8692369325     1.7017874499
   12      C      -3.1336240246     0.7979467662     4.0189366150
   13      C      -3.8513112604     0.7428610050     5.2094299301
   14      C      -1.7259659525     0.8135965679     3.9249637092
   15      C      -1.0061233940     0.7712796335     5.0909270278
   16      H       0.0764223150     0.7795010868     5.0922789678
   17      C      -5.8534769419     0.7805174103     3.8504038779
   18      H      -6.9341910187     0.7741466179     3.7824772888
   19      C      -5.2625404081     0.7352840606     5.0920238428
   20      H      -5.8798214386     0.6939328623     5.9811888703
   21      C      -1.7068135118     0.7150305230     6.3187680093
   22      H      -1.1328926774     0.6817483548     7.2359097918
   23      C      -3.0799842723     0.7005555053     6.3949544462
   24      H      -3.5688290533     0.6566373665     7.3603937997
   25      B      -1.4368330224     0.9965789558    -1.8411044658
   26      C      -0.1234018994     1.0565673828    -2.6175134129
   27      C      -0.1061247387     1.1050756356    -4.0277349717
   28      H      -1.0383805752     1.1291477414    -4.5854118740
   29      C       1.0777044849     1.1163937239    -4.7124805992
   30      C       2.3204701548     1.0666646761    -4.0178019075
   31      C       2.3237559831     1.0100166909    -2.6447827484
   32      H       3.2650116164     0.9525671007    -2.1087391043
   33      C       1.1166086337     1.0117503612    -1.9137775405
   34      C       1.3508070656     1.1508154916    -6.1446182638
   35      C       0.5815265814     1.2010818083    -7.2800965471
   36      H      -0.5005572179     1.2347766949    -7.2345691923
   37      C       2.7514483340     1.1162430573    -6.2784547259
   38      C       3.4128690540     1.1261874843    -7.5039492595
   39      C       3.3872943995     1.0673457807    -5.0198466847
   40      C       4.7586307732     1.0297279263    -4.9977436844
   41      H       5.3124089928     0.9954016649    -4.0677756752
   42      C       1.2271580624     1.2128678287    -8.5367807780
   43      H       0.6200745281     1.2538773153    -9.4326745449
   44      C       2.5966696234     1.1758666626    -8.6601361906
   45      H       3.0505907292     1.1862882772    -9.6437145967
   46      C       5.4591975756     1.0389460138    -6.2268943791
   47      H       6.5410248971     1.0096006553    -6.2014058716
   48      C       4.8258472142     1.0845323430    -7.4469559697
   49      H       5.4075278462     1.0896264416    -8.3606990907
   50      B       1.1258390068     0.9131520616    -0.3774215379
   51      C       2.5066064185     0.6859909408     0.3496322188
   52      C       2.8773191001    -0.6126008118     0.7319133903
   53      C       4.1493712591    -0.8540485016     1.2349663555
   54      H       4.4424673554    -1.8637325065     1.5024383216
   55      C       5.0643095443     0.1779469524     1.3722379349
   56      C       4.6916477974     1.4704844903     1.0361396001
   57      H       5.4079235012     2.2760025130     1.1537290225
   58      C       3.4269189883     1.7302399735     0.5227277241
   59      N       6.3930737286    -0.0901315526     1.7858775174
   60      C       6.6076984202    -0.8076037446     2.9655201200
   61      C       7.6456283833    -1.7341457804     3.0853173118
   62      H       8.3117541434    -1.9125596510     2.2517470149
   63      C       7.8199047693    -2.4427699196     4.2624789801
   64      H       8.6299196363    -3.1579542527     4.3296354569
   65      C       6.9607254443    -2.2641390449     5.3355249530
   66      H       7.0958143514    -2.8275000583     6.2489133615
   67      C       5.9207440235    -1.3533144025     5.2144877141
   68      H       5.2373991308    -1.1977404226     6.0395312040
   69      C       5.7466590641    -0.6257853660     4.0509056985
   70      H       4.9331480538     0.0838550973     3.9751471595
   71      C       7.4098333390     0.1211166871     0.8423672828
   72      C       8.6703037988     0.5688283034     1.2379588524
   73      H       8.8682304613     0.7494792839     2.2865659521
   74      C       9.6616809551     0.7870646112     0.2965494883
   75      H      10.6330768551     1.1362659970     0.6223245424
   76      C       9.4138020075     0.5842047986    -1.0537403173
   77      H      10.1886524775     0.7653030973    -1.7865567030
   78      C       8.1575124975     0.1517368779    -1.4507377933
   79      H       7.9471648359    -0.0157104803    -2.4997079612
   80      C       7.1637490039    -0.0854446992    -0.5159868692
   81      H       6.1899543962    -0.4308780683    -0.8390490616
   82      C       1.9571646917    -1.7909753735     0.5205589302
   83      H       0.9186385832    -1.4964910423     0.6826350265
   84      H       2.1753933742    -2.5570348284     1.2693779781
   85      C       3.0477343575     3.1496589829     0.1866477146
   86      H       2.4755853358     3.1744257302    -0.7440655507
   87      H       3.9519574088     3.7356454292     0.0033058830
   88      C       2.0926914511    -2.4008124265    -0.8742290571
   89      H       1.8505222335    -1.6737501066    -1.6490532956
   90      H       3.1097474888    -2.7514208899    -1.0550893054
   91      H       1.4201425377    -3.2523683260    -0.9933733942
   92      C       2.2293199519     3.8117331769     1.2927407410
   93      H       1.2895143484     3.2846914669     1.4575257664
   94      H       2.7771537776     3.8200755090     2.2358416127
   95      H       1.9875344035     4.8438743020     1.0352810195
   96      C      -2.7635602321     0.7967379495    -2.6802418215
   97      C      -3.2455275672    -0.5274458526    -2.9025353002
   98      C      -4.3021048165    -0.7477954993    -3.7455669510
   99      H      -4.6712418506    -1.7559230665    -3.8860564485
  100      C      -4.9365691557     0.3242127922    -4.4094640539
  101      N      -5.9443718492     0.0751689708    -5.2923177548
  102      C      -4.4995706552     1.6450072542    -4.1587661947
  103      H      -4.9622356194     2.4702936476    -4.6852872991
  104      C      -3.4436509305     1.8797091811    -3.3158770840
  105      C      -6.0441558898    -1.1784524552    -5.9451872797
  106      C      -7.2640947042    -1.8463779508    -5.9635356107
  107      H      -8.1259088264    -1.4170358083    -5.4695801963
  108      C      -7.3607907387    -3.0698599045    -6.6026168247
  109      H      -8.3056022407    -3.5961106966    -6.6070865660
  110      C      -6.2509741526    -3.6245282179    -7.2253471841
  111      H      -6.3314265180    -4.5817598537    -7.7223229508
  112      C      -5.0394054376    -2.9486615411    -7.2132178037
  113      H      -4.1749690482    -3.3713916726    -7.7066634935
  114      C      -4.9305705325    -1.7226933161    -6.5787965729
  115      H      -3.9897814743    -1.1872399370    -6.5802520891
  116      C      -6.9308083473     1.0423530973    -5.5968910972
  117      C      -7.2758893189     1.2726791418    -6.9252388669
  118      H      -6.7695127902     0.7371306086    -7.7177113757
  119      C      -8.2613777688     2.1966802567    -7.2222448850
  120      H      -8.5235115925     2.3836534446    -8.2546634905
  121      C      -8.9058912167     2.8847998494    -6.2030829208
  122      H      -9.6770437609     3.6051114426    -6.4399877555
  123      C      -8.5649495778     2.6431279703    -4.8801823251
  124      H      -9.0750568081     3.1662624784    -4.0829648508
  125      C      -7.5817828510     1.7190925430    -4.5698007915
  126      H      -7.3310979293     1.5106535392    -3.5377171645
  127      C      -2.5762338356    -1.7189473113    -2.2764441785
  128      H      -2.0851856223    -1.4313410894    -1.3477471280
  129      H      -3.3348618666    -2.4613968618    -2.0143209453
  130      C      -2.9980762902     3.2924275676    -3.0755336071
  131      H      -1.9089150879     3.3308826300    -3.0176980170
  132      H      -3.2915076682     3.9166118742    -3.9231335007
  133      C      -1.5566245738    -2.3443886265    -3.2286881834
  134      H      -0.7893931105    -1.6251071897    -3.5126591580
  135      H      -1.0589104108    -3.1891229452    -2.7530767055
  136      H      -2.0362781667    -2.7066677705    -4.1400068674
  137      C      -3.6004509362     3.8569907162    -1.7901978012
  138      H      -3.2833652713     3.2840527921    -0.9197518975
  139      H      -3.2787740695     4.8870363164    -1.6402213474
  140      H      -4.6908007167     3.8467833801    -1.8278516234
 ----------------------------------------------------------------

    8   -3084.6966987591      6.60E-09 Convergence criterion met
 Total energy in the final basis set = -3084.69669876
 Final energy is   -3084.69669875907
 **  OPTIMIZATION CONVERGED  **

                    Orbital Energies (a.u.)
 --------------------------------------------------------------

 Alpha MOs
 -- Occupied --
-14.770 -14.648 -10.560 -10.551 -10.550 -10.506 -10.505 -10.504
-10.504 -10.501 -10.500 -10.500 -10.499 -10.499 -10.498 -10.495
-10.493 -10.491 -10.489 -10.476 -10.472 -10.471 -10.455 -10.451
-10.446 -10.443 -10.443 -10.442 -10.441 -10.441 -10.441 -10.440
-10.439 -10.439 -10.438 -10.438 -10.438 -10.437 -10.437 -10.437
-10.437 -10.436 -10.436 -10.432 -10.431 -10.431 -10.429 -10.428
-10.428 -10.428 -10.428 -10.427 -10.427 -10.427 -10.427 -10.426
-10.426 -10.426 -10.425 -10.423 -10.423 -10.423 -10.422 -10.422
-10.421 -10.421 -10.420 -10.412 -10.412 -10.408 -10.407 -10.402
-10.402 -10.397 -10.396 -10.396 -10.395 -10.394  -6.897  -6.889
 -1.158  -1.058  -1.018  -1.013  -0.990  -0.989  -0.989  -0.941
 -0.937  -0.933  -0.930  -0.924  -0.918  -0.913  -0.911  -0.910
 -0.907  -0.894  -0.893  -0.879  -0.871  -0.862  -0.859  -0.843
 -0.833  -0.832  -0.831  -0.827  -0.825  -0.825  -0.823  -0.821
 -0.817  -0.798  -0.794  -0.789  -0.786  -0.777  -0.775  -0.767
 -0.766  -0.762  -0.741  -0.735  -0.732  -0.718  -0.709  -0.706
 -0.703  -0.695  -0.691  -0.689  -0.688  -0.681  -0.677  -0.671
 -0.665  -0.661  -0.656  -0.655  -0.650  -0.647  -0.638  -0.636
 -0.623  -0.619  -0.615  -0.615  -0.607  -0.605  -0.592  -0.589
 -0.588  -0.575  -0.572  -0.570  -0.568  -0.566  -0.563  -0.559
 -0.556  -0.552  -0.551  -0.547  -0.546  -0.541  -0.540  -0.537
 -0.531  -0.524  -0.522  -0.520  -0.517  -0.516  -0.505  -0.503
 -0.501  -0.500  -0.497  -0.495  -0.491  -0.489  -0.483  -0.482
 -0.480  -0.479  -0.478  -0.477  -0.474  -0.472  -0.471  -0.469
 -0.466  -0.465  -0.465  -0.465  -0.464  -0.463  -0.461  -0.460
 -0.460  -0.458  -0.455  -0.454  -0.454  -0.451  -0.450  -0.444
 -0.444  -0.442  -0.433  -0.432  -0.427  -0.420  -0.420  -0.418
 -0.414  -0.410  -0.408  -0.408  -0.406  -0.405  -0.402  -0.401
 -0.399  -0.395  -0.393  -0.393  -0.390  -0.387  -0.384  -0.382
 -0.376  -0.375  -0.375  -0.373  -0.373  -0.372  -0.369  -0.365
 -0.364  -0.362  -0.358  -0.350  -0.350  -0.348  -0.345  -0.344
 -0.341  -0.333  -0.323  -0.322  -0.319  -0.309  -0.307  -0.296
 -0.289  -0.282  -0.280  -0.276  -0.274  -0.274  -0.260  -0.256
 -0.250  -0.242  -0.232  -0.228  -0.202  -0.141

 Beta MOs
 -- Occupied --
-14.778 -14.648 -10.561 -10.550 -10.549 -10.507 -10.506 -10.506
-10.505 -10.500 -10.500 -10.499 -10.499 -10.499 -10.498 -10.494
-10.493 -10.492 -10.491 -10.482 -10.472 -10.471 -10.455 -10.450
-10.446 -10.444 -10.443 -10.442 -10.442 -10.440 -10.440 -10.440
-10.439 -10.439 -10.438 -10.438 -10.437 -10.437 -10.437 -10.437
-10.437 -10.435 -10.435 -10.432 -10.431 -10.431 -10.429 -10.428
-10.428 -10.428 -10.428 -10.427 -10.426 -10.426 -10.426 -10.426
-10.425 -10.425 -10.424 -10.423 -10.423 -10.423 -10.422 -10.422
-10.421 -10.421 -10.421 -10.412 -10.412 -10.408 -10.407 -10.403
-10.403 -10.397 -10.396 -10.395 -10.394 -10.394  -6.893  -6.887
 -1.172  -1.058  -1.019  -1.016  -0.994  -0.990  -0.988  -0.941
 -0.937  -0.932  -0.929  -0.925  -0.918  -0.917  -0.910  -0.909
 -0.908  -0.895  -0.894  -0.878  -0.870  -0.863  -0.862  -0.843
 -0.837  -0.835  -0.832  -0.827  -0.825  -0.824  -0.823  -0.821
 -0.817  -0.798  -0.791  -0.788  -0.785  -0.777  -0.773  -0.768
 -0.767  -0.766  -0.744  -0.736  -0.734  -0.719  -0.708  -0.705
 -0.702  -0.694  -0.691  -0.690  -0.688  -0.681  -0.677  -0.672
 -0.664  -0.661  -0.654  -0.654  -0.652  -0.646  -0.638  -0.637
 -0.623  -0.619  -0.617  -0.615  -0.607  -0.606  -0.602  -0.589
 -0.588  -0.576  -0.571  -0.570  -0.569  -0.565  -0.562  -0.560
 -0.557  -0.552  -0.550  -0.548  -0.546  -0.541  -0.541  -0.538
 -0.530  -0.524  -0.523  -0.521  -0.517  -0.515  -0.511  -0.504
 -0.503  -0.501  -0.500  -0.494  -0.491  -0.491  -0.485  -0.484
 -0.481  -0.479  -0.479  -0.476  -0.475  -0.474  -0.472  -0.471
 -0.468  -0.466  -0.465  -0.465  -0.464  -0.463  -0.460  -0.460
 -0.459  -0.457  -0.455  -0.455  -0.454  -0.453  -0.451  -0.444
 -0.443  -0.442  -0.438  -0.431  -0.427  -0.421  -0.420  -0.418
 -0.414  -0.410  -0.408  -0.407  -0.406  -0.404  -0.404  -0.402
 -0.400  -0.397  -0.393  -0.393  -0.392  -0.390  -0.384  -0.381
 -0.376  -0.375  -0.373  -0.372  -0.372  -0.371  -0.369  -0.365
 -0.365  -0.362  -0.362  -0.354  -0.352  -0.348  -0.347  -0.343
 -0.339  -0.335  -0.332  -0.325  -0.320  -0.313  -0.308  -0.290
 -0.286  -0.285  -0.282  -0.280  -0.274  -0.273  -0.271  -0.257
 -0.250  -0.248  -0.234  -0.229  -0.221  -0.202

          Ground-State Mulliken Net Atomic Charges

     Atom                 Charge (a.u.)    Spin (a.u.)
  --------------------------------------------------------
      1 C                    -0.144422       0.078190
      2 C                    -0.402904      -0.069825
      3 H                     0.221909       0.002845
      4 C                     0.101140       0.107672
      5 C                     0.078598       0.011944
      6 C                    -0.406489       0.009900
      7 H                     0.180619      -0.001016
      8 C                    -0.122704      -0.039230
      9 C                     0.195912      -0.035904
     10 C                    -0.387737       0.056436
     11 H                     0.192621      -0.003401
     12 C                    -0.074073       0.021395
     13 C                     0.254956      -0.034452
     14 C                     0.197506      -0.058526
     15 C                    -0.396056       0.084360
     16 H                     0.212642      -0.005012
     17 C                    -0.202481      -0.038971
     18 H                     0.209951       0.001982
     19 C                    -0.342091       0.053367
     20 H                     0.209045      -0.003151
     21 C                    -0.199053      -0.051701
     22 H                     0.216470       0.002533
     23 C                    -0.347540       0.075967
     24 H                     0.209199      -0.004571
     25 B                     0.486840       0.414263
     26 C                    -0.120235      -0.038518
     27 C                    -0.394036       0.003632
     28 H                     0.175655      -0.000088
     29 C                     0.075003       0.014525
     30 C                     0.103013       0.108241
     31 C                    -0.397440      -0.074070
     32 H                     0.223697       0.003088
     33 C                    -0.143986       0.084143
     34 C                     0.198395      -0.036476
     35 C                    -0.389283       0.057754
     36 H                     0.188219      -0.003511
     37 C                    -0.076151       0.021678
     38 C                     0.253346      -0.034984
     39 C                     0.199947      -0.059081
     40 C                    -0.399069       0.085293
     41 H                     0.215544      -0.005062
     42 C                    -0.202327      -0.039654
     43 H                     0.208473       0.002018
     44 C                    -0.341662       0.054595
     45 H                     0.209020      -0.003229
     46 C                    -0.198632      -0.052169
     47 H                     0.215780       0.002561
     48 C                    -0.347454       0.076383
     49 H                     0.209376      -0.004603
     50 B                     0.558341       0.257975
     51 C                    -0.187963      -0.027815
     52 C                     0.054591       0.005405
     53 C                    -0.322931      -0.002293
     54 H                     0.221076       0.000390
     55 C                     0.241073       0.002765
     56 C                    -0.328336      -0.002408
     57 H                     0.214948       0.000461
     58 C                     0.070115       0.006229
     59 N                    -0.668956      -0.000495
     60 C                     0.326158       0.000025
     61 C                    -0.305557      -0.000025
     62 H                     0.246561       0.000001
     63 C                    -0.211327       0.000016
     64 H                     0.213023      -0.000001
     65 C                    -0.245060      -0.000059
     66 H                     0.209553       0.000003
     67 C                    -0.209970       0.000032
     68 H                     0.213362      -0.000001
     69 C                    -0.286836      -0.000040
     70 H                     0.245760      -0.000004
     71 C                     0.306450       0.000022
     72 C                    -0.275873       0.000019
     73 H                     0.244374      -0.000002
     74 C                    -0.216805      -0.000008
     75 H                     0.214959       0.000001
     76 C                    -0.237840      -0.000009
     77 H                     0.211712      -0.000000
     78 C                    -0.215443       0.000007
     79 H                     0.213134       0.000006
     80 C                    -0.280687      -0.000021
     81 H                     0.249452      -0.000010
     82 C                    -0.546352       0.001977
     83 H                     0.260538      -0.001701
     84 H                     0.223332       0.000340
     85 C                    -0.536674       0.002089
     86 H                     0.255931      -0.001345
     87 H                     0.220430       0.000228
     88 C                    -0.648749       0.000583
     89 H                     0.255842      -0.000781
     90 H                     0.211439      -0.000087
     91 H                     0.201997      -0.000008
     92 C                    -0.647202       0.000396
     93 H                     0.249490      -0.000486
     94 H                     0.210504      -0.000075
     95 H                     0.209939      -0.000031
     96 C                    -0.127177      -0.438781
     97 C                     0.069962       0.096824
     98 C                    -0.351469      -0.123878
     99 H                     0.268238       0.007610
    100 C                     0.350070      -0.085699
    101 N                    -0.599991      -0.293261
    102 C                    -0.353377      -0.123130
    103 H                     0.265191       0.007670
    104 C                     0.093864       0.090052
    105 C                     0.241786       0.058591
    106 C                    -0.246932      -0.067130
    107 H                     0.258370       0.003634
    108 C                    -0.218002       0.043936
    109 H                     0.245358      -0.002329
    110 C                    -0.215123      -0.074574
    111 H                     0.245988       0.004159
    112 C                    -0.219259       0.048538
    113 H                     0.251479      -0.002802
    114 C                    -0.249987      -0.070915
    115 H                     0.271027       0.003750
    116 C                     0.257033       0.061356
    117 C                    -0.252092      -0.070578
    118 H                     0.260453       0.003781
    119 C                    -0.216930       0.046686
    120 H                     0.245793      -0.002436
    121 C                    -0.215915      -0.078153
    122 H                     0.245496       0.004361
    123 C                    -0.218773       0.050742
    124 H                     0.248054      -0.002930
    125 C                    -0.254374      -0.074018
    126 H                     0.267851       0.003927
    127 C                    -0.552980      -0.000256
    128 H                     0.302443      -0.002427
    129 H                     0.229660       0.001481
    130 C                    -0.537862      -0.000276
    131 H                     0.290521      -0.001037
    132 H                     0.225168       0.001301
    133 C                    -0.649883      -0.000976
    134 H                     0.274577      -0.000451
    135 H                     0.234450       0.000270
    136 H                     0.195506       0.000002
    137 C                    -0.653493      -0.000412
    138 H                     0.271266      -0.000598
    139 H                     0.234623      -0.000466
    140 H                     0.200817       0.000021
  --------------------------------------------------------
  Sum of atomic charges =    -0.000000

                    Cartesian Multipole Moments
 -----------------------------------------------------------------
    Charge (ESU x 10^10)
                -0.0000
    Dipole Moment (Debye)
         X     -18.6253      Y      -2.2009      Z     -12.8670
       Tot      22.7444
    Quadrupole Moments (Debye-Ang)
        XX    -350.1400     XY      -5.9877     YY    -454.2696
        XZ      96.8769     YZ       7.4861     ZZ    -379.0430

 Total job time:  41619.54s(wall), 121367.12s(cpu)
        *  Thank you very much for using Q-Chem.  Have a nice day.  *
