 Q-Chem 5.0, Q-Chem, Inc., Pleasanton, CA (2017)
 Q-Chem 5.0.1 for Intel X86 EM64T Linux

User input:
--------------------------------------------------------------
$rem
threads 8
jobtype	sp
method PBEh-3c
basis def2-mSVP
mem_static	1024
mem_total	8000
sym_ignore	true
unrestricted true
scf_convergence	9
solvent_method	pcm
$end

$molecule
read incoords.mol
$end

$solvent
dielectric	8.93
$end

$pcm
theory iefpcm
$end
--------------------------------------------------------------

   16   -3084.8160365536      9.42E-10 Convergence criterion met
 Total energy in the final basis set = -3084.81603655
 Total job time:  4904.74s(wall), 14804.61s(cpu)
        *  Thank you very much for using Q-Chem.  Have a nice day.  *
 Q-Chem 5.0, Q-Chem, Inc., Pleasanton, CA (2017)
 Q-Chem 5.0.1 for Intel X86 EM64T Linux

User input:
--------------------------------------------------------------

$rem
threads 8
jobtype opt
method PBEh-3c
basis def2-mSVP
scf_guess	read
mem_static      1024
mem_total       8000
sym_ignore      true
unrestricted true
mom_start       1
scf_algorithm	diis
scf_max_cycles	250
solvent_method	pcm
geom_opt_tol_energy 25
geom_opt_tol_gradient 75
$end

$solvent
dielectric      8.93
$end
$pcm
theory iefpcm
$end

$occupied
1 2 3 4 5 6 7 8 9 10 11 12 13 14 15 16 17 18 19 20 21 22 23 24 25 26 27 28 29 30 31 32 33 34 35 36 37 38 39 40 41 42 43 44 45 46 47 48 49 50 51 52 53 54 55 56 57 58 59 60 61 62 63 64 65 66 67 68 69 70 71 72 73 74 75 76 77 78 79 80 81 82 83 84 85 86 87 88 89 90 91 92 93 94 95 96 97 98 99 100 101 102 103 104 105 106 107 108 109 110 111 112 113 114 115 116 117 118 119 120 121 122 123 124 125 126 127 128 129 130 131 132 133 134 135 136 137 138 139 140 141 142 143 144 145 146 147 148 149 150 151 152 153 154 155 156 157 158 159 160 161 162 163 164 165 166 167 168 169 170 171 172 173 174 175 176 177 178 179 180 181 182 183 184 185 186 187 188 189 190 191 192 193 194 195 196 197 198 199 200 201 202 203 204 205 206 207 208 209 210 211 212 213 214 215 216 217 218 219 220 221 222 223 224 225 226 227 228 229 230 231 232 233 234 235 236 237 238 239 240 241 242 243 244 245 246 247 248 249 250 251 252 253 254 255 256 257 258 259 260 261 262 263 264 265 266 267 268 269  271
1 2 3 4 5 6 7 8 9 10 11 12 13 14 15 16 17 18 19 20 21 22 23 24 25 26 27 28 29 30 31 32 33 34 35 36 37 38 39 40 41 42 43 44 45 46 47 48 49 50 51 52 53 54 55 56 57 58 59 60 61 62 63 64 65 66 67 68 69 70 71 72 73 74 75 76 77 78 79 80 81 82 83 84 85 86 87 88 89 90 91 92 93 94 95 96 97 98 99 100 101 102 103 104 105 106 107 108 109 110 111 112 113 114 115 116 117 118 119 120 121 122 123 124 125 126 127 128 129 130 131 132 133 134 135 136 137 138 139 140 141 142 143 144 145 146 147 148 149 150 151 152 153 154 155 156 157 158 159 160 161 162 163 164 165 166 167 168 169 170 171 172 173 174 175 176 177 178 179 180 181 182 183 184 185 186 187 188 189 190 191 192 193 194 195 196 197 198 199 200 201 202 203 204 205 206 207 208 209 210 211 212 213 214 215 216 217 218 219 220 221 222 223 224 225 226 227 228 229 230 231 232 233 234 235 236 237 238 239 240 241 242 243 244 245 246 247 248 249 250 251 252 253 254 255 256 257 258 259 260 261 262 263 264 265 266 267 268 269 270
$end

$molecule
read
$end

--------------------------------------------------------------

   22   -3084.7344171121      6.80E-09 Convergence criterion met
 Total energy in the final basis set = -3084.73441711
   22   -3084.7385243318      5.62E-09 Convergence criterion met
 Total energy in the final basis set = -3084.73852433
   22   -3084.7470618353      6.55E-09 Convergence criterion met
 Total energy in the final basis set = -3084.74706184
   16   -3084.8092577848      8.19E-09 Convergence criterion met
 Total energy in the final basis set = -3084.80925778
   13   -3084.8121126911      5.13E-09 Convergence criterion met
 Total energy in the final basis set = -3084.81211269
   12   -3084.8146048672      9.70E-09 Convergence criterion met
 Total energy in the final basis set = -3084.81460487
   13   -3084.8153771168      5.86E-09 Convergence criterion met
 Total energy in the final basis set = -3084.81537712
   13   -3084.8159801350      4.83E-09 Convergence criterion met
 Total energy in the final basis set = -3084.81598014
   12   -3084.8160614939      9.17E-09 Convergence criterion met
 Total energy in the final basis set = -3084.81606149
   12   -3084.8161501615      9.30E-09 Convergence criterion met
 Total energy in the final basis set = -3084.81615016
   13   -3084.8162145975      4.46E-09 Convergence criterion met
 Total energy in the final basis set = -3084.81621460
   12   -3084.8161022334      9.69E-09 Convergence criterion met
 Total energy in the final basis set = -3084.81610223

             Standard Nuclear Orientation (Angstroms)
    I     Atom           X                Y                Z
 ----------------------------------------------------------------
    1      C       0.0213901318     0.3364603974     0.1514746295
    2      C       0.0065464383     0.3649477812     1.5520735388
    3      H       0.9419898009     0.3711793414     2.1008828395
    4      C      -1.2007083819     0.3810459415     2.2323338708
    5      C      -2.4115984205     0.3442419570     1.5039325180
    6      C      -2.4081877296     0.2901296290     0.1232482740
    7      H      -3.3447307236     0.2382618472    -0.4213286150
    8      C      -1.1971109252     0.2970063690    -0.5693443562
    9      C      -1.5405141124     0.4242078122     3.6589505612
   10      C      -0.8370448496     0.4733792284     4.8338921852
   11      H       0.2455696046     0.4878241421     4.8538724689
   12      C      -2.9482995640     0.4103616516     3.7274652134
   13      C      -3.6866161448     0.4415945421     4.9051794567
   14      C      -3.5248746987     0.3612153608     2.4457055390
   15      C      -4.8907807189     0.3402379444     2.3271164438
   16      H      -5.3820284620     0.3018820994     1.3621858670
   17      C      -1.5595784944     0.5068718159     6.0525966750
   18      H      -1.0015715321     0.5463100550     6.9788625915
   19      C      -2.9351435150     0.4918751691     6.1039880662
   20      H      -3.4408795039     0.5189965415     7.0613627935
   21      C      -5.0968599892     0.4193625003     4.7623918859
   22      H      -5.7300001716     0.4411618074     5.6410114993
   23      C      -5.6668492233     0.3696761544     3.5099063677
   24      H      -6.7455534138     0.3527292560     3.4223953786
   25      B       1.3696679425     0.3180224260    -0.6264830590
   26      C       1.3735044267     0.4560585434    -2.1776925772
   27      C       2.5816461065     0.5690912712    -2.8780990010
   28      H       3.5206121289     0.5902340323    -2.3363701291
   29      C       2.5768814186     0.6470294891    -4.2595493423
   30      C       1.3502584314     0.5759819354    -4.9596372820
   31      C       0.1561065333     0.4364184601    -4.2819437200
   32      H      -0.7748142882     0.3586595789    -4.8330281956
   33      C       0.1504937751     0.3911228754    -2.8868010198
   34      C       3.6505422019     0.7792284962    -5.2518446395
   35      C       5.0159111337     0.8963772911    -5.2139007175
   36      H       5.5647213273     0.9062139366    -4.2803982260
   37      C       3.0196577601     0.7795952863    -6.5121096866
   38      C       3.6823208406     0.8884841660    -7.7310452126
   39      C       1.6238969840     0.6577419272    -6.3916063529
   40      C       0.8559973179     0.6422162073    -7.5283951239
   41      H      -0.2228843918     0.5509026282    -7.4905137209
   42      C       5.7206404030     1.0086189204    -6.4384169581
   43      H       6.7982929925     1.1006945535    -6.4039699862
   44      C       5.0911601051     1.0062595101    -7.6625044733
   45      H       5.6734443110     1.0953266648    -8.5715575545
   46      C       2.8714173950     0.8704839551    -8.8934260968
   47      H       3.3276231831     0.9513556447    -9.8726514674
   48      C       1.5047714195     0.7501739067    -8.7816807367
   49      H       0.9011810149     0.7378073229    -9.6801053253
   50      B      -1.1930989431     0.2208983764    -2.1237904925
   51      C      -2.5197839364    -0.0885273110    -2.9101838565
   52      C      -3.2918734047     0.9127111510    -3.5133152587
   53      C      -4.4490173156     0.5855213822    -4.2093403726
   54      H      -5.0225380081     1.3743668800    -4.6833266718
   55      C      -4.8894956477    -0.7318325294    -4.2888482679
   56      C      -4.1277194286    -1.7271706685    -3.6850071511
   57      H      -4.4537796324    -2.7604275765    -3.7318206104
   58      C      -2.9486351829    -1.4193993842    -3.0207028608
   59      N      -6.0853033008    -1.0452414036    -4.9570848527
   60      C      -7.2144527263    -0.2190335562    -4.8101743295
   61      C      -8.0284088607     0.0439032231    -5.9114789015
   62      H      -7.7748610578    -0.3720546189    -6.8784910939
   63      C      -9.1605879902     0.8305061555    -5.7722736674
   64      H      -9.7835347045     1.0226062542    -6.6365881846
   65      C      -9.4883695240     1.3826018567    -4.5409381264
   66      H     -10.3697331229     2.0014737098    -4.4362793274
   67      C      -8.6728771549     1.1310454723    -3.4458085756
   68      H      -8.9204972579     1.5480787862    -2.4780434864
   69      C      -7.5492235744     0.3284780596    -3.5721568127
   70      H      -6.9322717471     0.1228125295    -2.7065848352
   71      C      -6.2203508382    -2.2675142392    -5.6415710370
   72      C      -7.3502067770    -3.0625435770    -5.4512583937
   73      H      -8.1269714505    -2.7437716574    -4.7677633529
   74      C      -7.4847268505    -4.2615781635    -6.1340369768
   75      H      -8.3689859147    -4.8659163844    -5.9759498361
   76      C      -6.4904504461    -4.6966835589    -6.9993883352
   77      H      -6.5952599400    -5.6366888486    -7.5249903441
   78      C      -5.3597102409    -3.9113372953    -7.1824998710
   79      H      -4.5786678179    -4.2339289495    -7.8590964962
   80      C      -5.2267073718    -2.7015704527    -6.5187710712
   81      H      -4.3473835229    -2.0906755244    -6.6798386234
   82      C      -2.1219406362    -2.5571423077    -2.4780661386
   83      H      -2.7809034879    -3.3274689230    -2.0693522955
   84      H      -1.5004016861    -2.2237440333    -1.6423198730
   85      C      -2.9313179443     2.3694709437    -3.3820656285
   86      H      -3.0638758912     2.8710834232    -4.3444964925
   87      H      -1.8746025618     2.4849222555    -3.1273114236
   88      C      -3.7866829809     3.0711353057    -2.3291702105
   89      H      -3.6602566671     2.6111231012    -1.3483451693
   90      H      -3.5159643377     4.1238068208    -2.2419537260
   91      H      -4.8454472479     3.0175187919    -2.5870753775
   92      C      -1.2324662689    -3.1749442281    -3.5554101922
   93      H      -0.5417639378    -2.4372133075    -3.9657733522
   94      H      -1.8308123631    -3.5657610353    -4.3795397028
   95      H      -0.6417156604    -3.9972914919    -3.1498861020
   96      C       2.7196514511     0.0749517230     0.1275692107
   97      C       3.6074310486     1.1191231709     0.4187641034
   98      C       4.8108796944     0.8519916492     1.0599413383
   99      H       5.4819269764     1.6691415643     1.3006811390
  100      C       5.1649718139    -0.4520570078     1.3894243198
  101      C       4.2884431617    -1.4886256862     1.0892532382
  102      H       4.5610109109    -2.5094940141     1.3327506516
  103      C       3.0685887691    -1.2376759524     0.4766796224
  104      N       6.3930714337    -0.7252157216     2.0221327225
  105      C       7.5771799892    -0.1639410303     1.5222043635
  106      C       7.7605876264    -0.0049819765     0.1476014339
  107      H       6.9906602786    -0.3303858036    -0.5406222129
  108      C       8.9217158167     0.5713278278    -0.3414495546
  109      H       9.0443526210     0.6892526062    -1.4106669696
  110      C       9.9279994275     0.9787769532     0.5241084790
  111      H      10.8360077188     1.4230370247     0.1384184998
  112      C       9.7530996068     0.8085442269     1.8911627494
  113      H      10.5243971486     1.1271940521     2.5806947637
  114      C       8.5868021428     0.2512476818     2.3910702519
  115      H       8.4559184781     0.1449871071     3.4605130500
  116      C       6.4299157703    -1.6733402835     3.0584573177
  117      C       5.4610491138    -1.6495112745     4.0618576523
  118      H       4.6932807969    -0.8858893620     4.0512288718
  119      C       5.4700501792    -2.6049929989     5.0650795959
  120      H       4.7079295780    -2.5745634160     5.8333418943
  121      C       6.4530353302    -3.5854405983     5.0976673730
  122      H       6.4604047935    -4.3270168947     5.8855408935
  123      C       7.4239188109    -3.6044339725     4.1057040721
  124      H       8.1907437592    -4.3685729111     4.1111055308
  125      C       7.4103492106    -2.6644263228     3.0867634888
  126      H       8.1597685499    -2.7067965992     2.3063681214
  127      C       2.1769161037    -2.4046523052     0.1281125669
  128      H       2.3156311512    -3.1989662169     0.8655390850
  129      H       1.1250211537    -2.1149028122     0.1993621279
  130      C       3.2405315176     2.5482229440     0.1086367499
  131      H       4.1467452321     3.1231824864    -0.0959894457
  132      H       2.6427895986     2.5947565887    -0.8060507181
  133      C       2.4463961352    -2.9678449144    -1.2672884091
  134      H       2.2757446662    -2.2191641411    -2.0411565247
  135      H       1.7885089534    -3.8128485979    -1.4763323122
  136      H       3.4762832890    -3.3145828024    -1.3608856302
  137      C       2.4647099171     3.2148788537     1.2429169757
  138      H       1.5260927710     2.6958437805     1.4388081249
  139      H       2.2245278121     4.2489389101     0.9935736048
  140      H       3.0436399768     3.2172750203     2.1671877005
 ----------------------------------------------------------------

   12   -3084.8158754724      9.53E-09 Convergence criterion met
 Total energy in the final basis set = -3084.81587547

                    Orbital Energies (a.u.)
 --------------------------------------------------------------

 Alpha MOs
 -- Occupied --
-14.672 -14.671 -10.493 -10.493 -10.493 -10.493 -10.488 -10.487
-10.468 -10.468 -10.466 -10.466 -10.465 -10.465 -10.465 -10.465
-10.465 -10.465 -10.464 -10.464 -10.462 -10.462 -10.462 -10.462
-10.462 -10.461 -10.459 -10.458 -10.458 -10.458 -10.458 -10.457
-10.455 -10.455 -10.454 -10.454 -10.453 -10.453 -10.450 -10.450
-10.450 -10.449 -10.449 -10.449 -10.449 -10.449 -10.449 -10.449
-10.448 -10.447 -10.447 -10.447 -10.447 -10.447 -10.446 -10.446
-10.445 -10.445 -10.444 -10.443 -10.439 -10.439 -10.438 -10.438
-10.437 -10.437 -10.437 -10.436 -10.436 -10.436 -10.435 -10.435
-10.424 -10.424 -10.422 -10.421 -10.421 -10.421  -6.953  -6.953
 -1.082  -1.082  -1.019  -1.018  -0.967  -0.964  -0.963  -0.962
 -0.962  -0.962  -0.942  -0.942  -0.934  -0.934  -0.911  -0.903
 -0.891  -0.891  -0.871  -0.868  -0.857  -0.857  -0.853  -0.853
 -0.847  -0.847  -0.842  -0.842  -0.839  -0.839  -0.827  -0.824
 -0.822  -0.815  -0.814  -0.807  -0.803  -0.801  -0.794  -0.793
 -0.737  -0.732  -0.727  -0.722  -0.719  -0.718  -0.713  -0.712
 -0.701  -0.701  -0.700  -0.700  -0.690  -0.684  -0.682  -0.682
 -0.680  -0.675  -0.669  -0.667  -0.651  -0.649  -0.640  -0.638
 -0.634  -0.632  -0.607  -0.606  -0.597  -0.596  -0.591  -0.589
 -0.588  -0.587  -0.584  -0.576  -0.574  -0.564  -0.562  -0.557
 -0.556  -0.546  -0.544  -0.544  -0.543  -0.539  -0.528  -0.526
 -0.525  -0.524  -0.518  -0.513  -0.512  -0.510  -0.504  -0.503
 -0.503  -0.500  -0.499  -0.498  -0.498  -0.498  -0.496  -0.492
 -0.491  -0.490  -0.488  -0.487  -0.486  -0.484  -0.484  -0.483
 -0.482  -0.482  -0.478  -0.477  -0.476  -0.471  -0.469  -0.467
 -0.463  -0.458  -0.454  -0.453  -0.445  -0.440  -0.438  -0.437
 -0.437  -0.437  -0.434  -0.431  -0.430  -0.429  -0.429  -0.427
 -0.426  -0.423  -0.421  -0.419  -0.413  -0.412  -0.408  -0.408
 -0.407  -0.405  -0.401  -0.400  -0.398  -0.398  -0.398  -0.397
 -0.397  -0.395  -0.394  -0.393  -0.392  -0.389  -0.389  -0.387
 -0.382  -0.375  -0.370  -0.368  -0.359  -0.359  -0.354  -0.353
 -0.346  -0.343  -0.321  -0.316  -0.308  -0.306  -0.302  -0.302
 -0.299  -0.298  -0.297  -0.297  -0.290  -0.287  -0.283  -0.278
 -0.277  -0.264  -0.261  -0.258  -0.224  -0.224

 Beta MOs
 -- Occupied --
-14.672 -14.671 -10.493 -10.493 -10.493 -10.493 -10.488 -10.487
-10.468 -10.468 -10.466 -10.466 -10.465 -10.465 -10.465 -10.465
-10.465 -10.465 -10.464 -10.464 -10.462 -10.462 -10.462 -10.462
-10.462 -10.461 -10.459 -10.458 -10.458 -10.458 -10.458 -10.457
-10.455 -10.455 -10.454 -10.454 -10.453 -10.453 -10.450 -10.450
-10.450 -10.449 -10.449 -10.449 -10.449 -10.449 -10.449 -10.449
-10.448 -10.447 -10.447 -10.447 -10.447 -10.447 -10.446 -10.446
-10.445 -10.445 -10.444 -10.443 -10.439 -10.439 -10.438 -10.438
-10.437 -10.437 -10.437 -10.436 -10.436 -10.436 -10.435 -10.435
-10.424 -10.424 -10.422 -10.421 -10.421 -10.421  -6.953  -6.953
 -1.082  -1.082  -1.019  -1.018  -0.967  -0.964  -0.963  -0.962
 -0.962  -0.962  -0.942  -0.942  -0.934  -0.934  -0.911  -0.903
 -0.891  -0.891  -0.871  -0.868  -0.857  -0.857  -0.853  -0.853
 -0.847  -0.847  -0.842  -0.842  -0.839  -0.839  -0.827  -0.824
 -0.822  -0.815  -0.814  -0.807  -0.803  -0.801  -0.794  -0.793
 -0.737  -0.732  -0.727  -0.722  -0.719  -0.718  -0.713  -0.712
 -0.701  -0.701  -0.700  -0.700  -0.690  -0.684  -0.682  -0.682
 -0.680  -0.675  -0.669  -0.667  -0.651  -0.649  -0.640  -0.638
 -0.634  -0.632  -0.607  -0.606  -0.597  -0.596  -0.591  -0.589
 -0.588  -0.587  -0.584  -0.576  -0.574  -0.564  -0.562  -0.557
 -0.556  -0.546  -0.544  -0.544  -0.543  -0.539  -0.528  -0.526
 -0.525  -0.524  -0.518  -0.513  -0.512  -0.510  -0.504  -0.503
 -0.503  -0.500  -0.499  -0.498  -0.498  -0.498  -0.496  -0.492
 -0.491  -0.490  -0.488  -0.487  -0.486  -0.484  -0.484  -0.483
 -0.482  -0.482  -0.478  -0.477  -0.476  -0.471  -0.469  -0.467
 -0.463  -0.458  -0.454  -0.453  -0.445  -0.440  -0.438  -0.437
 -0.437  -0.437  -0.434  -0.431  -0.430  -0.429  -0.429  -0.427
 -0.426  -0.423  -0.421  -0.419  -0.413  -0.412  -0.408  -0.408
 -0.407  -0.405  -0.401  -0.400  -0.398  -0.398  -0.398  -0.397
 -0.397  -0.395  -0.394  -0.393  -0.392  -0.389  -0.389  -0.387
 -0.382  -0.375  -0.370  -0.368  -0.359  -0.359  -0.354  -0.353
 -0.346  -0.343  -0.321  -0.316  -0.308  -0.306  -0.302  -0.302
 -0.299  -0.298  -0.297  -0.297  -0.290  -0.287  -0.283  -0.278
 -0.277  -0.264  -0.261  -0.258  -0.224  -0.224

          Ground-State Mulliken Net Atomic Charges

     Atom                 Charge (a.u.)    Spin (a.u.)
  --------------------------------------------------------
      1 C                    -0.150445      -0.000000
      2 C                    -0.401256      -0.000000
      3 H                     0.249910       0.000000
      4 C                     0.093603       0.000000
      5 C                     0.068825       0.000000
      6 C                    -0.388554      -0.000000
      7 H                     0.244128       0.000000
      8 C                    -0.156856      -0.000000
      9 C                     0.178577      -0.000000
     10 C                    -0.398058       0.000000
     11 H                     0.251596      -0.000000
     12 C                    -0.066657       0.000000
     13 C                     0.221810      -0.000000
     14 C                     0.177152      -0.000000
     15 C                    -0.387852       0.000000
     16 H                     0.251201      -0.000000
     17 C                    -0.231632      -0.000000
     18 H                     0.257291       0.000000
     19 C                    -0.350508       0.000000
     20 H                     0.254916      -0.000000
     21 C                    -0.346213       0.000000
     22 H                     0.254512      -0.000000
     23 C                    -0.234550      -0.000000
     24 H                     0.257702       0.000000
     25 B                     0.649867      -0.000000
     26 C                    -0.153176      -0.000000
     27 C                    -0.394536      -0.000000
     28 H                     0.246703       0.000000
     29 C                     0.094533       0.000000
     30 C                     0.067254       0.000000
     31 C                    -0.389144      -0.000000
     32 H                     0.246189       0.000000
     33 C                    -0.153696      -0.000000
     34 C                     0.181123      -0.000000
     35 C                    -0.397414       0.000000
     36 H                     0.250893      -0.000000
     37 C                    -0.067449       0.000000
     38 C                     0.219781      -0.000000
     39 C                     0.179101      -0.000000
     40 C                    -0.388658       0.000000
     41 H                     0.251703      -0.000000
     42 C                    -0.231712      -0.000000
     43 H                     0.256978       0.000000
     44 C                    -0.349706       0.000000
     45 H                     0.254972      -0.000000
     46 C                    -0.345385       0.000000
     47 H                     0.254536      -0.000000
     48 C                    -0.234508      -0.000000
     49 H                     0.257926       0.000000
     50 B                     0.653839      -0.000000
     51 C                    -0.231532       0.000000
     52 C                     0.076551      -0.000000
     53 C                    -0.364041      -0.000000
     54 H                     0.248750      -0.000000
     55 C                     0.319357       0.000000
     56 C                    -0.378313      -0.000000
     57 H                     0.248962      -0.000000
     58 C                     0.057908       0.000000
     59 N                    -0.672348       0.000000
     60 C                     0.283573      -0.000000
     61 C                    -0.291796       0.000000
     62 H                     0.260390      -0.000000
     63 C                    -0.241662      -0.000000
     64 H                     0.249432       0.000000
     65 C                    -0.264289       0.000000
     66 H                     0.246559      -0.000000
     67 C                    -0.242447      -0.000000
     68 H                     0.249015       0.000000
     69 C                    -0.291830       0.000000
     70 H                     0.259282       0.000000
     71 C                     0.284123      -0.000000
     72 C                    -0.294015       0.000000
     73 H                     0.260218      -0.000000
     74 C                    -0.241614      -0.000000
     75 H                     0.249469       0.000000
     76 C                    -0.263925       0.000000
     77 H                     0.246697      -0.000000
     78 C                    -0.242445      -0.000000
     79 H                     0.249493       0.000000
     80 C                    -0.288770       0.000000
     81 H                     0.259685      -0.000000
     82 C                    -0.558781      -0.000000
     83 H                     0.245472       0.000000
     84 H                     0.259993       0.000000
     85 C                    -0.547107      -0.000000
     86 H                     0.242786       0.000000
     87 H                     0.250919       0.000000
     88 C                    -0.652949      -0.000000
     89 H                     0.229566       0.000000
     90 H                     0.229236       0.000000
     91 H                     0.223435      -0.000000
     92 C                    -0.655523      -0.000000
     93 H                     0.235783       0.000000
     94 H                     0.223911      -0.000000
     95 H                     0.227875       0.000000
     96 C                    -0.215724       0.000000
     97 C                     0.076918      -0.000000
     98 C                    -0.360955       0.000000
     99 H                     0.246490      -0.000000
    100 C                     0.299964      -0.000000
    101 C                    -0.370259       0.000000
    102 H                     0.247325      -0.000000
    103 C                     0.058380      -0.000000
    104 N                    -0.671317      -0.000000
    105 C                     0.299906       0.000000
    106 C                    -0.301004      -0.000000
    107 H                     0.259712       0.000000
    108 C                    -0.240772       0.000000
    109 H                     0.247499      -0.000000
    110 C                    -0.267245      -0.000000
    111 H                     0.245304       0.000000
    112 C                    -0.241379       0.000000
    113 H                     0.248603      -0.000000
    114 C                    -0.297230      -0.000000
    115 H                     0.260420       0.000000
    116 C                     0.287739       0.000000
    117 C                    -0.291173      -0.000000
    118 H                     0.258732       0.000000
    119 C                    -0.241196       0.000000
    120 H                     0.248667      -0.000000
    121 C                    -0.265180      -0.000000
    122 H                     0.246173       0.000000
    123 C                    -0.242405       0.000000
    124 H                     0.249286      -0.000000
    125 C                    -0.295540      -0.000000
    126 H                     0.260379       0.000000
    127 C                    -0.560797      -0.000000
    128 H                     0.246347       0.000000
    129 H                     0.259585       0.000000
    130 C                    -0.548205      -0.000000
    131 H                     0.243527       0.000000
    132 H                     0.250611       0.000000
    133 C                    -0.659643      -0.000000
    134 H                     0.241179       0.000000
    135 H                     0.228104      -0.000000
    136 H                     0.223924      -0.000000
    137 C                    -0.656989      -0.000000
    138 H                     0.236185       0.000000
    139 H                     0.229556       0.000000
    140 H                     0.222788      -0.000000
  --------------------------------------------------------
  Sum of atomic charges =    -0.000000

                    Cartesian Multipole Moments
 -----------------------------------------------------------------
    Charge (ESU x 10^10)
                -0.0000
    Dipole Moment (Debye)
         X      -0.6520      Y       0.0694      Z      -0.2071
       Tot       0.6876
    Quadrupole Moments (Debye-Ang)
        XX    -403.7784     XY       1.9104     YY    -456.9521
        XZ     -16.4414     YZ      -1.6284     ZZ    -389.9997
