 Q-Chem 5.0, Q-Chem, Inc., Pleasanton, CA (2017)
 Q-Chem 5.0.1 for Intel X86 EM64T Linux

User input:
--------------------------------------------------------------
$rem
threads 8
jobtype	sp
method PBEh-3c
basis def2-mSVP
mem_static	1024
mem_total	8000
sym_ignore	true
unrestricted true
scf_convergence	9
solvent_method	pcm
$end

$molecule
read incoords.mol
$end

$solvent
dielectric	2.38
$end

$pcm
theory iefpcm
$end
--------------------------------------------------------------

   17   -3084.7897621761      5.74E-10 Convergence criterion met
 Total energy in the final basis set = -3084.78976218
 Total job time:  5171.56s(wall), 15032.97s(cpu)
        *  Thank you very much for using Q-Chem.  Have a nice day.  *
 Q-Chem 5.0, Q-Chem, Inc., Pleasanton, CA (2017)
 Q-Chem 5.0.1 for Intel X86 EM64T Linux

User input:
--------------------------------------------------------------

$rem
threads 8
jobtype opt
method PBEh-3c
basis def2-mSVP
scf_guess	read
mem_static      1024
mem_total       8000
sym_ignore      true
unrestricted true
mom_start       1
scf_algorithm	diis
scf_max_cycles	250
solvent_method	pcm
geom_opt_tol_energy 25
geom_opt_tol_gradient 75
$end

$solvent
dielectric      2.38
$end

$pcm
theory iefpcm
$end

$occupied
1 2 3 4 5 6 7 8 9 10 11 12 13 14 15 16 17 18 19 20 21 22 23 24 25 26 27 28 29 30 31 32 33 34 35 36 37 38 39 40 41 42 43 44 45 46 47 48 49 50 51 52 53 54 55 56 57 58 59 60 61 62 63 64 65 66 67 68 69 70 71 72 73 74 75 76 77 78 79 80 81 82 83 84 85 86 87 88 89 90 91 92 93 94 95 96 97 98 99 100 101 102 103 104 105 106 107 108 109 110 111 112 113 114 115 116 117 118 119 120 121 122 123 124 125 126 127 128 129 130 131 132 133 134 135 136 137 138 139 140 141 142 143 144 145 146 147 148 149 150 151 152 153 154 155 156 157 158 159 160 161 162 163 164 165 166 167 168 169 170 171 172 173 174 175 176 177 178 179 180 181 182 183 184 185 186 187 188 189 190 191 192 193 194 195 196 197 198 199 200 201 202 203 204 205 206 207 208 209 210 211 212 213 214 215 216 217 218 219 220 221 222 223 224 225 226 227 228 229 230 231 232 233 234 235 236 237 238 239 240 241 242 243 244 245 246 247 248 249 250 251 252 253 254 255 256 257 258 259 260 261 262 263 264 265 266 267 268 269  271
1 2 3 4 5 6 7 8 9 10 11 12 13 14 15 16 17 18 19 20 21 22 23 24 25 26 27 28 29 30 31 32 33 34 35 36 37 38 39 40 41 42 43 44 45 46 47 48 49 50 51 52 53 54 55 56 57 58 59 60 61 62 63 64 65 66 67 68 69 70 71 72 73 74 75 76 77 78 79 80 81 82 83 84 85 86 87 88 89 90 91 92 93 94 95 96 97 98 99 100 101 102 103 104 105 106 107 108 109 110 111 112 113 114 115 116 117 118 119 120 121 122 123 124 125 126 127 128 129 130 131 132 133 134 135 136 137 138 139 140 141 142 143 144 145 146 147 148 149 150 151 152 153 154 155 156 157 158 159 160 161 162 163 164 165 166 167 168 169 170 171 172 173 174 175 176 177 178 179 180 181 182 183 184 185 186 187 188 189 190 191 192 193 194 195 196 197 198 199 200 201 202 203 204 205 206 207 208 209 210 211 212 213 214 215 216 217 218 219 220 221 222 223 224 225 226 227 228 229 230 231 232 233 234 235 236 237 238 239 240 241 242 243 244 245 246 247 248 249 250 251 252 253 254 255 256 257 258 259 260 261 262 263 264 265 266 267 268 269 270
$end

$molecule
read
$end

--------------------------------------------------------------

   21   -3084.7232477630      7.36E-09 Convergence criterion met
 Total energy in the final basis set = -3084.72324776
   18   -3084.7235202708      7.49E-09 Convergence criterion met
 Total energy in the final basis set = -3084.72352027
   19   -3084.7911973955      4.92E-09 Convergence criterion met
 Total energy in the final basis set = -3084.79119740
   12   -3084.7905655311      9.36E-09 Convergence criterion met
 Total energy in the final basis set = -3084.79056553
   12   -3084.7921700072      6.86E-09 Convergence criterion met
 Total energy in the final basis set = -3084.79217001
   12   -3084.7931826120      9.78E-09 Convergence criterion met
 Total energy in the final basis set = -3084.79318261
   13   -3084.7948879681      4.65E-09 Convergence criterion met
 Total energy in the final basis set = -3084.79899873
   12   -3084.7990241655      6.91E-09 Convergence criterion met
 Total energy in the final basis set = -3084.79902417
   12   -3084.7991693150      6.12E-09 Convergence criterion met
 Total energy in the final basis set = -3084.79916931
   12   -3084.7991474652      6.07E-09 Convergence criterion met
 Total energy in the final basis set = -3084.79914747
   12   -3084.7991662643      6.15E-09 Convergence criterion met
 Total energy in the final basis set = -3084.79916626
   12   -3084.7991769417      5.96E-09 Convergence criterion met
 Total energy in the final basis set = -3084.79917694
   12   -3084.7992214963      6.01E-09 Convergence criterion met
 Total energy in the final basis set = -3084.79922150

             Standard Nuclear Orientation (Angstroms)
    I     Atom           X                Y                Z
 ----------------------------------------------------------------
    1      C      -0.1324168454     1.0336564520     0.2875697500
    2      C      -0.1399519691     1.0758708585     1.6872405553
    3      H       0.7982543309     1.0401915636     2.2303200347
    4      C      -1.3410445807     1.1584115693     2.3715432596
    5      C      -2.5561964319     1.1750455880     1.6511372112
    6      C      -2.5616191909     1.1084279207     0.2711591097
    7      H      -3.5001497160     1.0964398938    -0.2724263435
    8      C      -1.3551274772     1.0535115750    -0.4265209200
    9      C      -3.6597869798     1.2568356657     2.6011468161
   10      C      -5.0250327300     1.3067451822     2.4935397170
   11      H      -5.5249601865     1.2879065083     1.5327322852
   12      C      -3.0744136610     1.2864455253     3.8783955286
   13      C      -3.8011560267     1.3627608668     5.0606473140
   14      C      -1.6695570637     1.2285271705     3.7988295584
   15      C      -0.9564696410     1.2484727869     4.9675741777
   16      H       0.1254384332     1.2077156274     4.9785397469
   17      C      -5.7906117976     1.3846585887     3.6802033769
   18      H      -6.8692094869     1.4238400560     3.5994027758
   19      C      -5.2109081147     1.4124285697     4.9278724989
   20      H      -5.8362658118     1.4725983019     5.8101858327
   21      C      -1.6657742016     1.3254020746     6.1912194445
   22      H      -1.0994910346     1.3410047317     7.1131107590
   23      C      -3.0390827079     1.3814485547     6.2527594783
   24      H      -3.5350358267     1.4399558395     7.2137888057
   25      B      -1.3585890580     0.9904918914    -1.9793790824
   26      C      -0.0094273294     1.0853905712    -2.7462721370
   27      C      -0.0090239752     1.1426208816    -4.1400656258
   28      H      -0.9477564174     1.1588317598    -4.6823938353
   29      C       1.1867518089     1.1595086468    -4.8274216250
   30      C       2.4182507008     1.0906072707    -4.1394388932
   31      C       2.4255400298     1.0204174359    -2.7584833078
   32      H       3.3653156758     0.9404256952    -2.2238050315
   33      C       1.2180632724     1.0362049810    -2.0471393573
   34      C       1.4548208316     1.1976773810    -6.2612348872
   35      C       0.6796230359     1.2553481050    -7.3903799748
   36      H      -0.4017498725     1.2960526992    -7.3413224161
   37      C       2.8526294945     1.1452865076    -6.3976355827
   38      C       3.5105385115     1.1439000370    -7.6236232628
   39      C       3.4896441383     1.0799241379    -5.1433757740
   40      C       4.8577472073     1.0118078869    -5.1197711379
   41      H       5.4120090656     0.9571552579    -4.1911190525
   42      C       1.3221783931     1.2590754535    -8.6509156865
   43      H       0.7116675496     1.3045722324    -9.5435478093
   44      C       2.6908961764     1.2046640332    -8.7776064491
   45      H       3.1414776753     1.2065423803    -9.7626746203
   46      C       5.5588383064     1.0109877350    -6.3507602394
   47      H       6.6393335342     0.9567819525    -6.3269474618
   48      C       4.9224103654     1.0739632329    -7.5687003293
   49      H       5.5023080736     1.0677819008    -8.4835929501
   50      B       1.2096558371     0.9288974130    -0.4935489398
   51      C       2.5556816316     0.6449640642     0.2540911137
   52      C       2.8428732768    -0.6659193034     0.6629035098
   53      C       4.0765827509    -0.9596314285     1.2285088776
   54      H       4.3051503634    -1.9802619994     1.5151386705
   55      C       5.0282631777     0.0334633401     1.4135473777
   56      C       4.7325602015     1.3381047035     1.0396361000
   57      H       5.4713038885     2.1164931712     1.1942734114
   58      C       3.5138754864     1.6489629154     0.4513457225
   59      N       6.3046612958    -0.2766518291     1.9306319778
   60      C       6.4185106792    -1.1156590830     3.0461522284
   61      C       7.4235299764    -2.0807073895     3.1282272545
   62      H       8.1345501370    -2.1937874364     2.3203147031
   63      C       7.5106278562    -2.9087797517     4.2357841641
   64      H       8.2969256143    -3.6517594534     4.2771640784
   65      C       6.5921619258    -2.8100881159     5.2704178385
   66      H       6.6578494877    -3.4655426542     6.1284813482
   67      C       5.5848623308    -1.8585465808     5.1857586927
   68      H       4.8597009611    -1.7642180449     5.9840355078
   69      C       5.5002735110    -1.0117726734     4.0937268030
   70      H       4.7136388006    -0.2694783971     4.0487459457
   71      C       7.4252013290     0.0513140982     1.1476561987
   72      C       8.5975526373     0.5108013653     1.7459567593
   73      H       8.6455453921     0.6142237689     2.8225530470
   74      C       9.6955287433     0.8379094481     0.9674517340
   75      H      10.5982601438     1.1938527301     1.4470448917
   76      C       9.6382529470     0.7340199539    -0.4159711873
   77      H      10.4949830171     1.0003292494    -1.0205194457
   78      C       8.4685565286     0.2870535370    -1.0133850436
   79      H       8.4098472836     0.1944041246    -2.0904965521
   80      C       7.3719867357    -0.0615786842    -0.2416165601
   81      H       6.4694932003    -0.4227440006    -0.7186194215
   82      C       1.8753963267    -1.7974761622     0.4108391271
   83      H       0.8448045347    -1.4536657834     0.5303120137
   84      H       2.0199669808    -2.5712916438     1.1685989814
   85      C       3.2190124435     3.0818603130     0.0869162614
   86      H       2.6524137547     3.1279568197    -0.8471956923
   87      H       4.1568051297     3.6080178570    -0.1056810793
   88      C       2.0382695297    -2.4205648367    -0.9756629427
   89      H       1.8729383986    -1.6893770064    -1.7672534188
   90      H       3.0402215922    -2.8302502150    -1.1082156342
   91      H       1.3229022616    -3.2312252977    -1.1212270707
   92      C       2.4431281854     3.8173693220     1.1778481916
   93      H       1.4650394086     3.3659044190     1.3450455061
   94      H       2.9842462982     3.7990461187     2.1244884778
   95      H       2.2804493132     4.8599876709     0.9029024930
   96      C      -2.6836677171     0.7506873176    -2.7941833429
   97      C      -3.0941850875    -0.5686033693    -3.0285709073
   98      C      -4.2211151598    -0.8253157861    -3.7953395358
   99      H      -4.5331040732    -1.8511714247    -3.9580542284
  100      C      -4.9432809720     0.2101684162    -4.3755013173
  101      N      -6.0536120687    -0.0745150010    -5.1928721188
  102      C      -4.5379080302     1.5199559577    -4.1486748986
  103      H      -5.0884841215     2.3377151307    -4.6006639642
  104      C      -3.4287420677     1.7943643964    -3.3571855628
  105      C      -5.9811837461    -1.1431375434    -6.1036989460
  106      C      -7.0324957027    -2.0520399271    -6.2157554847
  107      H      -7.9127023943    -1.9364986539    -5.5961136096
  108      C      -6.9545778817    -3.1029580609    -7.1155075203
  109      H      -7.7797278659    -3.7997365783    -7.1898794786
  110      C      -5.8243309010    -3.2774714534    -7.9013681963
  111      H      -5.7634125591    -4.1045575066    -8.5962284250
  112      C      -4.7722543304    -2.3797343087    -7.7841078142
  113      H      -3.8859549846    -2.5002642660    -8.3937318869
  114      C      -4.8504845765    -1.3145970475    -6.9014358561
  115      H      -4.0293287342    -0.6132707159    -6.8259018964
  116      C      -7.2421263409     0.6589418695    -5.0684913765
  117      C      -7.9850216510     0.9937052358    -6.2015078040
  118      H      -7.6352841579     0.6960548163    -7.1817808159
  119      C      -9.1681799754     1.7026872314    -6.0773740078
  120      H      -9.7318960629     1.9519289524    -6.9673957327
  121      C      -9.6228292386     2.1079670042    -4.8302072728
  122      H     -10.5437555659     2.6682310103    -4.7384725358
  123      C      -8.8810062212     1.7838856563    -3.7030582623
  124      H      -9.2261965356     2.0842852011    -2.7220531375
  125      C      -7.7067100770     1.0569496351    -3.8150651077
  126      H      -7.1482119475     0.7917471390    -2.9265596041
  127      C      -2.3032272031    -1.7456161064    -2.5155438329
  128      H      -1.6666376156    -1.4522282192    -1.6759317790
  129      H      -2.9872288870    -2.4985833025    -2.1145322342
  130      C      -3.0673267887     3.2359259829    -3.1092673065
  131      H      -2.0221406906     3.3233632537    -2.7991695263
  132      H      -3.1473223532     3.8000074537    -4.0424507937
  133      C      -1.4420135643    -2.3763945751    -3.6074951092
  134      H      -0.7279777496    -1.6566586572    -4.0084369164
  135      H      -0.8784763409    -3.2254209674    -3.2188289753
  136      H      -2.0560915662    -2.7330555081    -4.4355656512
  137      C      -3.9648504415     3.8793846243    -2.0551376699
  138      H      -3.8717820640     3.3696371529    -1.0959217842
  139      H      -3.7022712078     4.9264879701    -1.9019243953
  140      H      -5.0130585609     3.8367954011    -2.3541786423
 ----------------------------------------------------------------

   12   -3084.7992383975      6.02E-09 Convergence criterion met
 Total energy in the final basis set = -3084.79923840

                    Orbital Energies (a.u.)
 --------------------------------------------------------------

 Alpha MOs
 -- Occupied --
-14.669 -14.669 -10.491 -10.491 -10.490 -10.490 -10.484 -10.483
-10.465 -10.464 -10.464 -10.464 -10.464 -10.464 -10.464 -10.464
-10.463 -10.462 -10.462 -10.462 -10.461 -10.461 -10.461 -10.461
-10.460 -10.460 -10.458 -10.458 -10.458 -10.458 -10.455 -10.455
-10.453 -10.452 -10.452 -10.452 -10.451 -10.450 -10.448 -10.448
-10.448 -10.448 -10.447 -10.447 -10.447 -10.447 -10.446 -10.446
-10.445 -10.445 -10.445 -10.445 -10.444 -10.444 -10.443 -10.443
-10.442 -10.442 -10.442 -10.439 -10.437 -10.436 -10.436 -10.435
-10.435 -10.435 -10.434 -10.434 -10.434 -10.434 -10.434 -10.433
-10.423 -10.422 -10.421 -10.420 -10.419 -10.418  -6.950  -6.950
 -1.079  -1.079  -1.017  -1.016  -0.965  -0.962  -0.960  -0.960
 -0.960  -0.959  -0.940  -0.939  -0.933  -0.933  -0.910  -0.901
 -0.890  -0.889  -0.869  -0.866  -0.855  -0.855  -0.851  -0.850
 -0.846  -0.846  -0.840  -0.840  -0.837  -0.836  -0.825  -0.822
 -0.820  -0.814  -0.812  -0.805  -0.802  -0.799  -0.792  -0.791
 -0.735  -0.730  -0.726  -0.721  -0.718  -0.715  -0.712  -0.710
 -0.699  -0.699  -0.699  -0.698  -0.689  -0.681  -0.681  -0.679
 -0.679  -0.673  -0.667  -0.665  -0.649  -0.648  -0.638  -0.636
 -0.632  -0.630  -0.606  -0.605  -0.595  -0.595  -0.591  -0.588
 -0.587  -0.585  -0.583  -0.575  -0.574  -0.562  -0.561  -0.555
 -0.554  -0.545  -0.543  -0.542  -0.542  -0.538  -0.528  -0.524
 -0.523  -0.521  -0.516  -0.511  -0.510  -0.508  -0.503  -0.502
 -0.501  -0.499  -0.497  -0.497  -0.496  -0.495  -0.495  -0.490
 -0.489  -0.488  -0.486  -0.485  -0.484  -0.483  -0.483  -0.482
 -0.481  -0.480  -0.477  -0.477  -0.475  -0.470  -0.468  -0.467
 -0.462  -0.456  -0.454  -0.450  -0.443  -0.440  -0.436  -0.436
 -0.435  -0.434  -0.432  -0.428  -0.427  -0.426  -0.426  -0.426
 -0.424  -0.421  -0.420  -0.418  -0.412  -0.411  -0.407  -0.405
 -0.403  -0.403  -0.399  -0.398  -0.397  -0.396  -0.396  -0.395
 -0.395  -0.393  -0.393  -0.391  -0.390  -0.388  -0.387  -0.385
 -0.380  -0.373  -0.368  -0.366  -0.357  -0.356  -0.353  -0.351
 -0.345  -0.340  -0.319  -0.314  -0.304  -0.302  -0.300  -0.299
 -0.296  -0.295  -0.295  -0.294  -0.287  -0.284  -0.280  -0.276
 -0.274  -0.262  -0.258  -0.255  -0.222  -0.221

 Beta MOs
 -- Occupied --
-14.669 -14.669 -10.491 -10.491 -10.490 -10.490 -10.484 -10.483
-10.465 -10.464 -10.464 -10.464 -10.464 -10.464 -10.464 -10.464
-10.463 -10.462 -10.462 -10.462 -10.461 -10.461 -10.461 -10.461
-10.460 -10.460 -10.458 -10.458 -10.458 -10.458 -10.455 -10.455
-10.453 -10.452 -10.452 -10.452 -10.451 -10.450 -10.448 -10.448
-10.448 -10.448 -10.447 -10.447 -10.447 -10.447 -10.446 -10.446
-10.445 -10.445 -10.445 -10.445 -10.444 -10.444 -10.443 -10.443
-10.442 -10.442 -10.442 -10.439 -10.437 -10.436 -10.436 -10.435
-10.435 -10.435 -10.434 -10.434 -10.434 -10.434 -10.434 -10.433
-10.423 -10.422 -10.421 -10.420 -10.419 -10.418  -6.950  -6.950
 -1.079  -1.079  -1.017  -1.016  -0.965  -0.962  -0.960  -0.960
 -0.960  -0.959  -0.940  -0.939  -0.933  -0.933  -0.910  -0.901
 -0.890  -0.889  -0.869  -0.866  -0.855  -0.855  -0.851  -0.850
 -0.846  -0.846  -0.840  -0.840  -0.837  -0.836  -0.825  -0.822
 -0.820  -0.814  -0.812  -0.805  -0.802  -0.799  -0.792  -0.791
 -0.735  -0.730  -0.726  -0.721  -0.718  -0.715  -0.712  -0.710
 -0.699  -0.699  -0.699  -0.698  -0.689  -0.681  -0.681  -0.679
 -0.679  -0.673  -0.667  -0.665  -0.649  -0.648  -0.638  -0.636
 -0.632  -0.630  -0.606  -0.605  -0.595  -0.595  -0.591  -0.588
 -0.587  -0.585  -0.583  -0.575  -0.574  -0.562  -0.561  -0.555
 -0.554  -0.545  -0.543  -0.542  -0.542  -0.538  -0.528  -0.524
 -0.523  -0.521  -0.516  -0.511  -0.510  -0.508  -0.503  -0.502
 -0.501  -0.499  -0.497  -0.497  -0.496  -0.495  -0.495  -0.490
 -0.489  -0.488  -0.486  -0.485  -0.484  -0.483  -0.483  -0.482
 -0.481  -0.480  -0.477  -0.477  -0.475  -0.470  -0.468  -0.467
 -0.462  -0.456  -0.454  -0.450  -0.443  -0.440  -0.436  -0.436
 -0.435  -0.434  -0.432  -0.428  -0.427  -0.426  -0.426  -0.426
 -0.424  -0.421  -0.420  -0.418  -0.412  -0.411  -0.407  -0.405
 -0.403  -0.403  -0.399  -0.398  -0.397  -0.396  -0.396  -0.395
 -0.395  -0.393  -0.393  -0.391  -0.390  -0.388  -0.387  -0.385
 -0.380  -0.373  -0.368  -0.366  -0.357  -0.356  -0.353  -0.351
 -0.345  -0.340  -0.319  -0.314  -0.304  -0.302  -0.300  -0.299
 -0.296  -0.295  -0.295  -0.294  -0.287  -0.284  -0.280  -0.276
 -0.274  -0.262  -0.258  -0.255  -0.222  -0.221

          Ground-State Mulliken Net Atomic Charges

     Atom                 Charge (a.u.)    Spin (a.u.)
  --------------------------------------------------------
      1 C                    -0.149755       0.000000
      2 C                    -0.397596      -0.000000
      3 H                     0.241731       0.000000
      4 C                     0.103085      -0.000000
      5 C                     0.079685      -0.000000
      6 C                    -0.389053       0.000000
      7 H                     0.233680      -0.000000
      8 C                    -0.156434      -0.000000
      9 C                     0.186739      -0.000000
     10 C                    -0.384054       0.000000
     11 H                     0.234947      -0.000000
     12 C                    -0.063382       0.000000
     13 C                     0.239531      -0.000000
     14 C                     0.188058      -0.000000
     15 C                    -0.393310       0.000000
     16 H                     0.235530      -0.000000
     17 C                    -0.220498      -0.000000
     18 H                     0.242805       0.000000
     19 C                    -0.340856       0.000000
     20 H                     0.237987      -0.000000
     21 C                    -0.217786      -0.000000
     22 H                     0.242480       0.000000
     23 C                    -0.345325       0.000000
     24 H                     0.238344       0.000000
     25 B                     0.655413       0.000000
     26 C                    -0.152805       0.000000
     27 C                    -0.384079      -0.000000
     28 H                     0.238720      -0.000000
     29 C                     0.075932       0.000000
     30 C                     0.106350      -0.000000
     31 C                    -0.393033      -0.000000
     32 H                     0.239835      -0.000000
     33 C                    -0.150270      -0.000000
     34 C                     0.188019      -0.000000
     35 C                    -0.384869       0.000000
     36 H                     0.234832      -0.000000
     37 C                    -0.064627       0.000000
     38 C                     0.237442      -0.000000
     39 C                     0.190206      -0.000000
     40 C                    -0.393332       0.000000
     41 H                     0.233959       0.000000
     42 C                    -0.220596      -0.000000
     43 H                     0.242899      -0.000000
     44 C                    -0.340148       0.000000
     45 H                     0.237930      -0.000000
     46 C                    -0.217245      -0.000000
     47 H                     0.241409       0.000000
     48 C                    -0.344802       0.000000
     49 H                     0.238326      -0.000000
     50 B                     0.655289      -0.000000
     51 C                    -0.213545      -0.000000
     52 C                     0.060532       0.000000
     53 C                    -0.349070      -0.000000
     54 H                     0.240630      -0.000000
     55 C                     0.275159       0.000000
     56 C                    -0.347659      -0.000000
     57 H                     0.236142      -0.000000
     58 C                     0.079437       0.000000
     59 N                    -0.668948      -0.000000
     60 C                     0.313803      -0.000000
     61 C                    -0.306513       0.000000
     62 H                     0.255707       0.000000
     63 C                    -0.226932       0.000000
     64 H                     0.234049       0.000000
     65 C                    -0.257787      -0.000000
     66 H                     0.230383       0.000000
     67 C                    -0.225550      -0.000000
     68 H                     0.232600       0.000000
     69 C                    -0.293305      -0.000000
     70 H                     0.251023       0.000000
     71 C                     0.290984      -0.000000
     72 C                    -0.280127       0.000000
     73 H                     0.254892       0.000000
     74 C                    -0.231069      -0.000000
     75 H                     0.235754       0.000000
     76 C                    -0.251323      -0.000000
     77 H                     0.232475      -0.000000
     78 C                    -0.228730       0.000000
     79 H                     0.231324      -0.000000
     80 C                    -0.286431      -0.000000
     81 H                     0.251682       0.000000
     82 C                    -0.559017      -0.000000
     83 H                     0.259205      -0.000000
     84 H                     0.240823      -0.000000
     85 C                    -0.547231       0.000000
     86 H                     0.252516       0.000000
     87 H                     0.237885       0.000000
     88 C                    -0.655299      -0.000000
     89 H                     0.246182      -0.000000
     90 H                     0.220832       0.000000
     91 H                     0.222966      -0.000000
     92 C                    -0.653010       0.000000
     93 H                     0.239381      -0.000000
     94 H                     0.219647       0.000000
     95 H                     0.225934      -0.000000
     96 C                    -0.228467      -0.000000
     97 C                     0.064527       0.000000
     98 C                    -0.360041      -0.000000
     99 H                     0.241446      -0.000000
    100 C                     0.306671       0.000000
    101 N                    -0.674095      -0.000000
    102 C                    -0.353960      -0.000000
    103 H                     0.240443       0.000000
    104 C                     0.078484       0.000000
    105 C                     0.283033      -0.000000
    106 C                    -0.283736       0.000000
    107 H                     0.253934       0.000000
    108 C                    -0.229731       0.000000
    109 H                     0.235946      -0.000000
    110 C                    -0.251290       0.000000
    111 H                     0.233210       0.000000
    112 C                    -0.229492      -0.000000
    113 H                     0.235557      -0.000000
    114 C                    -0.279729       0.000000
    115 H                     0.248481       0.000000
    116 C                     0.301230      -0.000000
    117 C                    -0.291360      -0.000000
    118 H                     0.253832       0.000000
    119 C                    -0.227950       0.000000
    120 H                     0.234975       0.000000
    121 C                    -0.254202      -0.000000
    122 H                     0.231862       0.000000
    123 C                    -0.228358      -0.000000
    124 H                     0.233563      -0.000000
    125 C                    -0.291382      -0.000000
    126 H                     0.251185       0.000000
    127 C                    -0.559792       0.000000
    128 H                     0.259264      -0.000000
    129 H                     0.241238       0.000000
    130 C                    -0.544345      -0.000000
    131 H                     0.250377      -0.000000
    132 H                     0.237077       0.000000
    133 C                    -0.650181      -0.000000
    134 H                     0.239626       0.000000
    135 H                     0.222626      -0.000000
    136 H                     0.222409       0.000000
    137 C                    -0.645703      -0.000000
    138 H                     0.227620      -0.000000
    139 H                     0.225895       0.000000
    140 H                     0.221591      -0.000000
  --------------------------------------------------------
  Sum of atomic charges =    -0.000000

                    Cartesian Multipole Moments
 -----------------------------------------------------------------
    Charge (ESU x 10^10)
                -0.0000
    Dipole Moment (Debye)
         X      -0.4310      Y       0.1160      Z      -0.5669
       Tot       0.7215
    Quadrupole Moments (Debye-Ang)
        XX    -416.1217     XY      -2.3110     YY    -462.8935
        XZ     -19.2646     YZ       2.4022     ZZ    -399.0585
