 Q-Chem 5.0, Q-Chem, Inc., Pleasanton, CA (2017)
 Q-Chem 5.0.1 for Intel X86 EM64T Linux

User input:
--------------------------------------------------------------
$rem
threads 8
jobtype	sp
method PBEh-3c
basis def2-mSVP
mem_static	1024
mem_total	8000
sym_ignore	true
unrestricted true
scf_convergence	9
solvent_method	pcm
$end

$molecule
read incoords.mol
$end

$solvent
dielectric	8.93
$end

$pcm
theory iefpcm
$end
--------------------------------------------------------------

   17   -3084.8086398418      4.36E-10 Convergence criterion met
 Total energy in the final basis set = -3084.80863984
 Total job time:  4401.45s(wall), 13755.23s(cpu)
        *  Thank you very much for using Q-Chem.  Have a nice day.  *
 Q-Chem 5.0, Q-Chem, Inc., Pleasanton, CA (2017)
 Q-Chem 5.0.1 for Intel X86 EM64T Linux

User input:
--------------------------------------------------------------

$rem
threads 8
jobtype opt
method PBEh-3c
basis def2-mSVP
scf_guess	read
mem_static      1024
mem_total       8000
sym_ignore      true
unrestricted true
mom_start       1
scf_algorithm	diis
scf_max_cycles	250
solvent_method	pcm
geom_opt_tol_energy 25
geom_opt_tol_gradient 75
$end

$solvent
dielectric      8.93
$end
$pcm
theory iefpcm
$end

$occupied
1 2 3 4 5 6 7 8 9 10 11 12 13 14 15 16 17 18 19 20 21 22 23 24 25 26 27 28 29 30 31 32 33 34 35 36 37 38 39 40 41 42 43 44 45 46 47 48 49 50 51 52 53 54 55 56 57 58 59 60 61 62 63 64 65 66 67 68 69 70 71 72 73 74 75 76 77 78 79 80 81 82 83 84 85 86 87 88 89 90 91 92 93 94 95 96 97 98 99 100 101 102 103 104 105 106 107 108 109 110 111 112 113 114 115 116 117 118 119 120 121 122 123 124 125 126 127 128 129 130 131 132 133 134 135 136 137 138 139 140 141 142 143 144 145 146 147 148 149 150 151 152 153 154 155 156 157 158 159 160 161 162 163 164 165 166 167 168 169 170 171 172 173 174 175 176 177 178 179 180 181 182 183 184 185 186 187 188 189 190 191 192 193 194 195 196 197 198 199 200 201 202 203 204 205 206 207 208 209 210 211 212 213 214 215 216 217 218 219 220 221 222 223 224 225 226 227 228 229 230 231 232 233 234 235 236 237 238 239 240 241 242 243 244 245 246 247 248 249 250 251 252 253 254 255 256 257 258 259 260 261 262 263 264 265 266 267 268 269  271
1 2 3 4 5 6 7 8 9 10 11 12 13 14 15 16 17 18 19 20 21 22 23 24 25 26 27 28 29 30 31 32 33 34 35 36 37 38 39 40 41 42 43 44 45 46 47 48 49 50 51 52 53 54 55 56 57 58 59 60 61 62 63 64 65 66 67 68 69 70 71 72 73 74 75 76 77 78 79 80 81 82 83 84 85 86 87 88 89 90 91 92 93 94 95 96 97 98 99 100 101 102 103 104 105 106 107 108 109 110 111 112 113 114 115 116 117 118 119 120 121 122 123 124 125 126 127 128 129 130 131 132 133 134 135 136 137 138 139 140 141 142 143 144 145 146 147 148 149 150 151 152 153 154 155 156 157 158 159 160 161 162 163 164 165 166 167 168 169 170 171 172 173 174 175 176 177 178 179 180 181 182 183 184 185 186 187 188 189 190 191 192 193 194 195 196 197 198 199 200 201 202 203 204 205 206 207 208 209 210 211 212 213 214 215 216 217 218 219 220 221 222 223 224 225 226 227 228 229 230 231 232 233 234 235 236 237 238 239 240 241 242 243 244 245 246 247 248 249 250 251 252 253 254 255 256 257 258 259 260 261 262 263 264 265 266 267 268 269 270
$end

$molecule
read
$end

--------------------------------------------------------------

   35   -3084.7490966972      4.71E-09 Convergence criterion met
 Total energy in the final basis set = -3084.74909670
   19   -3084.8100428819      6.44E-09 Convergence criterion met
 Total energy in the final basis set = -3084.81004288
   12   -3084.8102242083      8.46E-09 Convergence criterion met
 Total energy in the final basis set = -3084.81022421
   12   -3084.8122447771      9.70E-09 Convergence criterion met
 Total energy in the final basis set = -3084.81224478
   12   -3084.8144530910      9.47E-09 Convergence criterion met
 Total energy in the final basis set = -3084.81445309

                    Orbital Energies (a.u.)
 --------------------------------------------------------------

 Alpha MOs
 -- Occupied --
-14.672 -14.671 -10.494 -10.493 -10.493 -10.493 -10.488 -10.487
-10.468 -10.468 -10.467 -10.466 -10.466 -10.466 -10.466 -10.465
-10.465 -10.465 -10.465 -10.464 -10.462 -10.462 -10.462 -10.462
-10.462 -10.462 -10.459 -10.459 -10.459 -10.459 -10.458 -10.457
-10.456 -10.455 -10.454 -10.454 -10.452 -10.451 -10.450 -10.450
-10.450 -10.450 -10.450 -10.450 -10.449 -10.449 -10.449 -10.449
-10.448 -10.448 -10.447 -10.447 -10.447 -10.446 -10.446 -10.446
-10.445 -10.445 -10.444 -10.442 -10.440 -10.440 -10.439 -10.438
-10.438 -10.437 -10.436 -10.435 -10.435 -10.435 -10.435 -10.434
-10.426 -10.423 -10.421 -10.421 -10.421 -10.420  -6.952  -6.952
 -1.084  -1.082  -1.019  -1.018  -0.966  -0.963  -0.963  -0.962
 -0.961  -0.961  -0.942  -0.942  -0.934  -0.933  -0.911  -0.902
 -0.891  -0.891  -0.871  -0.868  -0.857  -0.857  -0.853  -0.853
 -0.847  -0.847  -0.843  -0.842  -0.841  -0.838  -0.827  -0.824
 -0.822  -0.815  -0.813  -0.807  -0.803  -0.801  -0.793  -0.792
 -0.737  -0.732  -0.727  -0.722  -0.719  -0.718  -0.713  -0.712
 -0.701  -0.701  -0.700  -0.699  -0.690  -0.684  -0.683  -0.681
 -0.680  -0.676  -0.670  -0.667  -0.650  -0.648  -0.639  -0.638
 -0.633  -0.632  -0.607  -0.606  -0.597  -0.596  -0.591  -0.589
 -0.588  -0.587  -0.584  -0.576  -0.575  -0.563  -0.562  -0.557
 -0.556  -0.546  -0.544  -0.544  -0.543  -0.539  -0.528  -0.526
 -0.525  -0.523  -0.518  -0.514  -0.512  -0.509  -0.504  -0.503
 -0.503  -0.500  -0.499  -0.498  -0.498  -0.497  -0.496  -0.491
 -0.490  -0.489  -0.488  -0.487  -0.487  -0.485  -0.484  -0.484
 -0.483  -0.482  -0.478  -0.478  -0.477  -0.470  -0.468  -0.467
 -0.463  -0.457  -0.455  -0.453  -0.444  -0.440  -0.438  -0.438
 -0.436  -0.436  -0.433  -0.431  -0.430  -0.429  -0.428  -0.427
 -0.426  -0.422  -0.421  -0.419  -0.413  -0.412  -0.408  -0.408
 -0.405  -0.404  -0.401  -0.400  -0.400  -0.398  -0.398  -0.397
 -0.397  -0.395  -0.394  -0.393  -0.392  -0.389  -0.389  -0.386
 -0.382  -0.375  -0.370  -0.367  -0.360  -0.358  -0.355  -0.353
 -0.346  -0.342  -0.322  -0.317  -0.309  -0.305  -0.302  -0.302
 -0.299  -0.298  -0.297  -0.296  -0.289  -0.287  -0.284  -0.278
 -0.276  -0.264  -0.261  -0.257  -0.224  -0.222

 Beta MOs
 -- Occupied --
-14.672 -14.671 -10.494 -10.493 -10.493 -10.493 -10.488 -10.487
-10.468 -10.468 -10.467 -10.466 -10.466 -10.466 -10.466 -10.465
-10.465 -10.465 -10.465 -10.464 -10.462 -10.462 -10.462 -10.462
-10.462 -10.462 -10.459 -10.459 -10.459 -10.459 -10.458 -10.457
-10.456 -10.455 -10.454 -10.454 -10.452 -10.451 -10.450 -10.450
-10.450 -10.450 -10.450 -10.450 -10.449 -10.449 -10.449 -10.449
-10.448 -10.448 -10.447 -10.447 -10.447 -10.446 -10.446 -10.446
-10.445 -10.445 -10.444 -10.442 -10.440 -10.440 -10.439 -10.438
-10.438 -10.437 -10.436 -10.435 -10.435 -10.435 -10.435 -10.434
-10.426 -10.423 -10.421 -10.421 -10.421 -10.420  -6.952  -6.952
 -1.084  -1.082  -1.019  -1.018  -0.966  -0.963  -0.963  -0.962
 -0.961  -0.961  -0.942  -0.942  -0.934  -0.933  -0.911  -0.902
 -0.891  -0.891  -0.871  -0.868  -0.857  -0.857  -0.853  -0.853
 -0.847  -0.847  -0.843  -0.842  -0.841  -0.838  -0.827  -0.824
 -0.822  -0.815  -0.813  -0.807  -0.803  -0.801  -0.793  -0.792
 -0.737  -0.732  -0.727  -0.722  -0.719  -0.718  -0.713  -0.712
 -0.701  -0.701  -0.700  -0.699  -0.690  -0.684  -0.683  -0.681
 -0.680  -0.676  -0.670  -0.667  -0.650  -0.648  -0.639  -0.638
 -0.633  -0.632  -0.607  -0.606  -0.597  -0.596  -0.591  -0.589
 -0.588  -0.587  -0.584  -0.576  -0.575  -0.563  -0.562  -0.557
 -0.556  -0.546  -0.544  -0.544  -0.543  -0.539  -0.528  -0.526
 -0.525  -0.523  -0.518  -0.514  -0.512  -0.509  -0.504  -0.503
 -0.503  -0.500  -0.499  -0.498  -0.498  -0.497  -0.496  -0.491
 -0.490  -0.489  -0.488  -0.487  -0.487  -0.485  -0.484  -0.484
 -0.483  -0.482  -0.478  -0.478  -0.477  -0.470  -0.468  -0.467
 -0.463  -0.457  -0.455  -0.453  -0.444  -0.440  -0.438  -0.438
 -0.436  -0.436  -0.433  -0.431  -0.430  -0.429  -0.428  -0.427
 -0.426  -0.422  -0.421  -0.419  -0.413  -0.412  -0.408  -0.408
 -0.405  -0.404  -0.401  -0.400  -0.400  -0.398  -0.398  -0.397
 -0.397  -0.395  -0.394  -0.393  -0.392  -0.389  -0.389  -0.386
 -0.382  -0.375  -0.370  -0.367  -0.360  -0.358  -0.355  -0.353
 -0.346  -0.342  -0.322  -0.317  -0.309  -0.305  -0.302  -0.302
 -0.299  -0.298  -0.297  -0.296  -0.289  -0.287  -0.284  -0.278
 -0.276  -0.264  -0.261  -0.257  -0.224  -0.222

          Ground-State Mulliken Net Atomic Charges

     Atom                 Charge (a.u.)    Spin (a.u.)
  --------------------------------------------------------
      1 C                    -0.152264      -0.000005
      2 C                    -0.399674       0.000002
      3 H                     0.248330      -0.000000
      4 C                     0.097190      -0.000001
      5 C                     0.074618       0.000006
      6 C                    -0.395766      -0.000005
      7 H                     0.247150       0.000000
      8 C                    -0.154438       0.000001
      9 C                     0.173281      -0.000025
     10 C                    -0.387833       0.000027
     11 H                     0.252101      -0.000002
     12 C                    -0.061936       0.000021
     13 C                     0.221647      -0.000021
     14 C                     0.176443      -0.000022
     15 C                    -0.396612       0.000024
     16 H                     0.251865      -0.000002
     17 C                    -0.234646      -0.000027
     18 H                     0.257928       0.000002
     19 C                    -0.345765       0.000030
     20 H                     0.255098      -0.000002
     21 C                    -0.231864      -0.000025
     22 H                     0.257395       0.000002
     23 C                    -0.350038       0.000027
     24 H                     0.255366      -0.000002
     25 B                     0.652371      -0.000001
     26 C                    -0.155833      -0.000004
     27 C                    -0.387492      -0.000000
     28 H                     0.248115       0.000000
     29 C                     0.069602       0.000001
     30 C                     0.099962       0.000004
     31 C                    -0.398071      -0.000003
     32 H                     0.247224       0.000000
     33 C                    -0.153502      -0.000000
     34 C                     0.178245      -0.000026
     35 C                    -0.388891       0.000028
     36 H                     0.251664      -0.000002
     37 C                    -0.064816       0.000023
     38 C                     0.217095      -0.000024
     39 C                     0.180400      -0.000028
     40 C                    -0.397428       0.000029
     41 H                     0.250668      -0.000002
     42 C                    -0.234715      -0.000029
     43 H                     0.257745       0.000002
     44 C                    -0.344188       0.000032
     45 H                     0.254887      -0.000002
     46 C                    -0.231770      -0.000030
     47 H                     0.256946       0.000002
     48 C                    -0.348845       0.000033
     49 H                     0.255278      -0.000002
     50 B                     0.654318      -0.000002
     51 C                    -0.218828       0.000000
     52 C                     0.056781       0.000000
     53 C                    -0.355538      -0.000000
     54 H                     0.247004       0.000000
     55 C                     0.286664       0.000000
     56 C                    -0.357192      -0.000000
     57 H                     0.245590       0.000000
     58 C                     0.068362       0.000000
     59 N                    -0.673829      -0.000000
     60 C                     0.307362      -0.000000
     61 C                    -0.304125       0.000000
     62 H                     0.262598      -0.000000
     63 C                    -0.239969      -0.000000
     64 H                     0.248394       0.000000
     65 C                    -0.270087       0.000000
     66 H                     0.244602      -0.000000
     67 C                    -0.239129      -0.000000
     68 H                     0.247511       0.000000
     69 C                    -0.305355       0.000000
     70 H                     0.259449      -0.000000
     71 C                     0.298487      -0.000000
     72 C                    -0.298229       0.000000
     73 H                     0.262135      -0.000000
     74 C                    -0.242233      -0.000000
     75 H                     0.248993       0.000000
     76 C                    -0.266789       0.000000
     77 H                     0.245573      -0.000000
     78 C                    -0.240626      -0.000000
     79 H                     0.247392       0.000000
     80 C                    -0.298099       0.000000
     81 H                     0.259724      -0.000000
     82 C                    -0.557356      -0.000000
     83 H                     0.256986       0.000000
     84 H                     0.245308       0.000000
     85 C                    -0.548866      -0.000000
     86 H                     0.252843       0.000000
     87 H                     0.243621       0.000000
     88 C                    -0.657818      -0.000000
     89 H                     0.238625       0.000000
     90 H                     0.222928      -0.000000
     91 H                     0.228059       0.000000
     92 C                    -0.657095      -0.000000
     93 H                     0.235595       0.000000
     94 H                     0.223084      -0.000000
     95 H                     0.229218       0.000000
     96 C                    -0.236141      -0.000003
     97 C                     0.063335       0.000003
     98 C                    -0.381293      -0.000003
     99 H                     0.249906       0.000000
    100 C                     0.323187       0.000003
    101 N                    -0.667395       0.000000
    102 C                    -0.375092      -0.000003
    103 H                     0.250443       0.000000
    104 C                     0.073685       0.000003
    105 C                     0.268679      -0.000001
    106 C                    -0.286020       0.000001
    107 H                     0.261386      -0.000000
    108 C                    -0.243748      -0.000001
    109 H                     0.250126       0.000000
    110 C                    -0.260978       0.000001
    111 H                     0.246924      -0.000000
    112 C                    -0.244597      -0.000001
    113 H                     0.250266       0.000000
    114 C                    -0.280207       0.000001
    115 H                     0.260583      -0.000000
    116 C                     0.279919      -0.000000
    117 C                    -0.292217       0.000001
    118 H                     0.261425      -0.000000
    119 C                    -0.243635      -0.000000
    120 H                     0.249757       0.000000
    121 C                    -0.262819       0.000001
    122 H                     0.246011      -0.000000
    123 C                    -0.244802      -0.000000
    124 H                     0.249420       0.000000
    125 C                    -0.287192       0.000001
    126 H                     0.262967      -0.000000
    127 C                    -0.558057      -0.000000
    128 H                     0.256858       0.000000
    129 H                     0.245140       0.000000
    130 C                    -0.545497      -0.000000
    131 H                     0.249450       0.000000
    132 H                     0.242376       0.000000
    133 C                    -0.655878       0.000000
    134 H                     0.236807      -0.000000
    135 H                     0.227119       0.000000
    136 H                     0.222710      -0.000000
    137 C                    -0.655065       0.000000
    138 H                     0.232384      -0.000000
    139 H                     0.228670       0.000000
    140 H                     0.222832      -0.000000
  --------------------------------------------------------
  Sum of atomic charges =    -0.000000

                    Cartesian Multipole Moments
 -----------------------------------------------------------------
    Charge (ESU x 10^10)
                -0.0000
    Dipole Moment (Debye)
         X      -1.1633      Y      -0.2134      Z      -0.6026
       Tot       1.3274
    Quadrupole Moments (Debye-Ang)
        XX    -402.3578     XY      -1.7666     YY    -459.7911
        XZ     -15.2328     YZ       1.0307     ZZ    -385.7146

             Standard Nuclear Orientation (Angstroms)
    I     Atom           X                Y                Z
 ----------------------------------------------------------------
    1      C      -0.1064440673     1.0023422090     0.2265531921
    2      C      -0.1129497343     1.0039675230     1.6256057655
    3      H       0.8277951474     0.9613816767     2.1638902745
    4      C      -1.3119894189     1.0598335259     2.3149119685
    5      C      -2.5306346147     1.0995460937     1.5980305671
    6      C      -2.5354339554     1.0807181843     0.2182850169
    7      H      -3.4741938077     1.0929854324    -0.3253148275
    8      C      -1.3283547729     1.0440642508    -0.4828014187
    9      C      -3.6314387827     1.1457828243     2.5526009304
   10      C      -4.9978620813     1.1961169910     2.4492219782
   11      H      -5.5000601036     1.2102623576     1.4898035387
   12      C      -3.0428396436     1.1311093476     3.8282554902
   13      C      -3.7673481831     1.1628230886     5.0143104591
   14      C      -1.6380087946     1.0789791548     3.7437502768
   15      C      -0.9216080652     1.0568864003     4.9110933505
   16      H       0.1601151018     1.0168882462     4.9191356705
   17      C      -5.7600971006     1.2304439416     3.6403631004
   18      H      -6.8391702290     1.2703160038     3.5645476005
   19      C      -5.1776538161     1.2144835876     4.8868008018
   20      H      -5.8013996014     1.2417375039     5.7717913022
   21      C      -1.6295339055     1.0884413998     6.1379933959
   22      H      -1.0619232665     1.0710239883     7.0590389538
   23      C      -3.0025846894     1.1398164452     6.2048421839
   24      H      -3.4962709402     1.1623874332     7.1685169372
   25      B      -1.3473545885     0.9957687887    -2.0319815957
   26      C       0.0046697982     1.0608296140    -2.8035156484
   27      C       0.0033913832     1.0964342544    -4.2024111389
   28      H      -0.9337518168     1.1130190952    -4.7464254074
   29      C       1.1954966380     1.0905111499    -4.8931798080
   30      C       2.4291239884     1.0276445622    -4.2050076334
   31      C       2.4389199314     0.9815530180    -2.8244324887
   32      H       3.3803771021     0.9073733030    -2.2928567543
   33      C       1.2328630337     1.0120319001    -2.1072764646
   34      C       1.4609254198     1.1063199991    -6.3275887248
   35      C       0.6841043644     1.1499865717    -7.4563132897
   36      H      -0.3972055746     1.1925769579    -7.4080831443
   37      C       2.8583631157     1.0482758047    -6.4632618500
   38      C       3.5147417409     1.0292241595    -7.6891612774
   39      C       3.4984242867     0.9989798367    -5.2100429930
   40      C       4.8662109309     0.9280230911    -5.1864894869
   41      H       5.4224498201     0.8829546180    -4.2585541164
   42      C       1.3257843190     1.1351351192    -8.7165642738
   43      H       0.7129427510     1.1693274511    -9.6081963359
   44      C       2.6946192709     1.0763842727    -8.8434106878
   45      H       3.1460772186     1.0642932260    -9.8276891002
   46      C       5.5648605964     0.9094880154    -6.4179590834
   47      H       6.6451132892     0.8530613926    -6.3930623873
   48      C       4.9263099403     0.9576825853    -7.6359659180
   49      H       5.5028780035     0.9383760829    -8.5525006768
   50      B       1.2309107440     0.9129099738    -0.5521042758
   51      C       2.5848131382     0.6383082624     0.1889560130
   52      C       2.9125807053    -0.6869471260     0.5113371799
   53      C       4.1496846876    -0.9758814671     1.0718179715
   54      H       4.4103646491    -2.0068258213     1.2839089210
   55      C       5.0608255948     0.0369201690     1.3500365110
   56      C       4.7216820860     1.3517272198     1.0628283512
   57      H       5.4237922629     2.1477356034     1.2853446522
   58      C       3.5016915143     1.6561450438     0.4739672713
   59      N       6.3267000534    -0.2662517461     1.8918867660
   60      C       6.4317349249    -1.1406944434     2.9810453875
   61      C       7.4806012693    -2.0591246682     3.0577090813
   62      H       8.2257357825    -2.0973672656     2.2739576469
   63      C       7.5707577748    -2.9331631261     4.1277063129
   64      H       8.3924395199    -3.6367021549     4.1669731273
   65      C       6.6093502073    -2.9290512601     5.1283830297
   66      H       6.6758281116    -3.6206818972     5.9575739214
   67      C       5.5588816937    -2.0265470751     5.0467443785
   68      H       4.7997520971    -2.0067933992     5.8181153338
   69      C       5.4706464528    -1.1326327530     3.9910575692
   70      H       4.6468261769    -0.4316664060     3.9513359571
   71      C       7.4682254230     0.2619285282     1.2692325311
   72      C       8.5431961238     0.7224397065     2.0258033520
   73      H       8.4997979237     0.6774904967     3.1063263914
   74      C       9.6666451769     1.2402358123     1.4011273628
   75      H      10.4924901145     1.5926584646     2.0055214778
   76      C       9.7303780112     1.3280332172     0.0182511019
   77      H      10.6061024877     1.7404592860    -0.4648173762
   78      C       8.6543977650     0.8820045250    -0.7372154971
   79      H       8.6894279794     0.9388736655    -1.8176811453
   80      C       7.5351997652     0.3448059402    -0.1227868167
   81      H       6.7120289840    -0.0158122641    -0.7260047338
   82      C       1.9900594937    -1.8329085036     0.1752923377
   83      H       0.9461581352    -1.5263181207     0.2779712342
   84      H       2.1383601450    -2.6370481863     0.8998394999
   85      C       3.1447355187     3.0969271939     0.2140871434
   86      H       2.5447133798     3.1797336158    -0.6969691899
   87      H       4.0522398602     3.6761485492     0.0308391810
   88      C       2.2138322532    -2.3828810528    -1.2333732893
   89      H       2.0291054584    -1.6261728244    -1.9960604165
   90      H       3.2381465133    -2.7361969658    -1.3575877841
   91      H       1.5442155111    -3.2212588776    -1.4293602257
   92      C       2.3709977728     3.7171936850     1.3768948355
   93      H       1.4345164609     3.1868277090     1.5510936256
   94      H       2.9511393543     3.6795728666     2.2992844656
   95      H       2.1280203070     4.7604977260     1.1726908698
   96      C      -2.6797328842     0.7868096996    -2.8356726863
   97      C      -3.1567313732    -0.5250789851    -2.9846891207
   98      C      -4.2949617698    -0.7751252600    -3.7359037691
   99      H      -4.6609941308    -1.7923950509    -3.8139808736
  100      C      -4.9734035330     0.2579070517    -4.3798482327
  101      N      -6.1023755686    -0.0156637031    -5.1601357548
  102      C      -4.4963781754     1.5588572318    -4.2407534412
  103      H      -4.9992397687     2.3743287074    -4.7483476717
  104      C      -3.3724011253     1.8271092478    -3.4702641820
  105      C      -6.1975663217    -1.2356994236    -5.8579333118
  106      C      -7.3589449192    -1.9988684303    -5.7735828959
  107      H      -8.1843133602    -1.6592919165    -5.1611250806
  108      C      -7.4593390915    -3.1944217500    -6.4677382320
  109      H      -8.3670769078    -3.7793179961    -6.3931545147
  110      C      -6.4001679588    -3.6513369318    -7.2388162203
  111      H      -6.4786251255    -4.5882096706    -7.7740520718
  112      C      -5.2385493380    -2.8950896681    -7.3154672399
  113      H      -4.4084241542    -3.2376973163    -7.9195142817
  114      C      -5.1367452490    -1.6899327770    -6.6379268836
  115      H      -4.2339690509    -1.0971209268    -6.7137196243
  116      C      -7.1984878815     0.8688777172    -5.1917010110
  117      C      -7.8571565043     1.1199762467    -6.3940879890
  118      H      -7.5056830309     0.6570058580    -7.3068290757
  119      C      -8.9607694106     1.9586585532    -6.4227915751
  120      H      -9.4632717369     2.1453790210    -7.3631686629
  121      C      -9.4134374907     2.5700072244    -5.2624264879
  122      H     -10.2718010059     3.2280001198    -5.2908648859
  123      C      -8.7561096634     2.3244146770    -4.0654182762
  124      H      -9.1082992459     2.7846144661    -3.1513084940
  125      C      -7.6627621806     1.4724319451    -4.0236854771
  126      H      -7.1752554117     1.2645879541    -3.0805363110
  127      C      -2.4406292954    -1.7089448841    -2.3875138328
  128      H      -1.8423856643    -1.4062050643    -1.5248902479
  129      H      -3.1765725503    -2.4219134154    -2.0058371955
  130      C      -2.9361191608     3.2609993726    -3.3188812821
  131      H      -1.8604513614     3.3162184126    -3.1282612210
  132      H      -3.1029570139     3.7940283872    -4.2580298567
  133      C      -1.5474873375    -2.4097883818    -3.4092431538
  134      H      -0.7847236660    -1.7366309480    -3.8024147118
  135      H      -1.0402855725    -3.2618163837    -2.9562556114
  136      H      -2.1319874486    -2.7794546360    -4.2537023853
  137      C      -3.6936517359     3.9687600066    -2.1964187053
  138      H      -3.5231812779     3.4799533012    -1.2371535290
  139      H      -3.3734668958     5.0060503527    -2.1032750643
  140      H      -4.7685123807     3.9641135307    -2.3846119665
 ----------------------------------------------------------------
