 Q-Chem 5.0, Q-Chem, Inc., Pleasanton, CA (2017)
 Q-Chem 5.0.1 for Intel X86 EM64T Linux

User input:
--------------------------------------------------------------
$rem
threads 8
jobtype	sp
method PBEh-3c
basis def2-mSVP
mem_static	1024
mem_total	8000
sym_ignore	true
unrestricted true
scf_convergence	9
solvent_method	pcm
$end

$molecule
read incoords.mol
$end

$solvent
dielectric	4.33
$end

$pcm
theory iefpcm
$end
--------------------------------------------------------------

   17   -3084.7986351945      4.64E-10 Convergence criterion met
 Total energy in the final basis set = -3084.79863519
 Total job time:  5311.11s(wall), 16278.05s(cpu)
        *  Thank you very much for using Q-Chem.  Have a nice day.  *
 Q-Chem 5.0, Q-Chem, Inc., Pleasanton, CA (2017)
 Q-Chem 5.0.1 for Intel X86 EM64T Linux

User input:
--------------------------------------------------------------

$rem
threads 8
jobtype opt
method PBEh-3c
basis def2-mSVP
scf_guess	read
mem_static      1024
mem_total       8000
sym_ignore      true
unrestricted true
mom_start       1
scf_algorithm	diis
scf_max_cycles	250
solvent_method	pcm
geom_opt_tol_energy 25
geom_opt_tol_gradient 75
$end

$solvent
dielectric      4.33
$end

$pcm
theory iefpcm
$end

$occupied
1 2 3 4 5 6 7 8 9 10 11 12 13 14 15 16 17 18 19 20 21 22 23 24 25 26 27 28 29 30 31 32 33 34 35 36 37 38 39 40 41 42 43 44 45 46 47 48 49 50 51 52 53 54 55 56 57 58 59 60 61 62 63 64 65 66 67 68 69 70 71 72 73 74 75 76 77 78 79 80 81 82 83 84 85 86 87 88 89 90 91 92 93 94 95 96 97 98 99 100 101 102 103 104 105 106 107 108 109 110 111 112 113 114 115 116 117 118 119 120 121 122 123 124 125 126 127 128 129 130 131 132 133 134 135 136 137 138 139 140 141 142 143 144 145 146 147 148 149 150 151 152 153 154 155 156 157 158 159 160 161 162 163 164 165 166 167 168 169 170 171 172 173 174 175 176 177 178 179 180 181 182 183 184 185 186 187 188 189 190 191 192 193 194 195 196 197 198 199 200 201 202 203 204 205 206 207 208 209 210 211 212 213 214 215 216 217 218 219 220 221 222 223 224 225 226 227 228 229 230 231 232 233 234 235 236 237 238 239 240 241 242 243 244 245 246 247 248 249 250 251 252 253 254 255 256 257 258 259 260 261 262 263 264 265 266 267 268 269  271
1 2 3 4 5 6 7 8 9 10 11 12 13 14 15 16 17 18 19 20 21 22 23 24 25 26 27 28 29 30 31 32 33 34 35 36 37 38 39 40 41 42 43 44 45 46 47 48 49 50 51 52 53 54 55 56 57 58 59 60 61 62 63 64 65 66 67 68 69 70 71 72 73 74 75 76 77 78 79 80 81 82 83 84 85 86 87 88 89 90 91 92 93 94 95 96 97 98 99 100 101 102 103 104 105 106 107 108 109 110 111 112 113 114 115 116 117 118 119 120 121 122 123 124 125 126 127 128 129 130 131 132 133 134 135 136 137 138 139 140 141 142 143 144 145 146 147 148 149 150 151 152 153 154 155 156 157 158 159 160 161 162 163 164 165 166 167 168 169 170 171 172 173 174 175 176 177 178 179 180 181 182 183 184 185 186 187 188 189 190 191 192 193 194 195 196 197 198 199 200 201 202 203 204 205 206 207 208 209 210 211 212 213 214 215 216 217 218 219 220 221 222 223 224 225 226 227 228 229 230 231 232 233 234 235 236 237 238 239 240 241 242 243 244 245 246 247 248 249 250 251 252 253 254 255 256 257 258 259 260 261 262 263 264 265 266 267 268 269 270
$end

$molecule
read
$end

--------------------------------------------------------------

   21   -3084.7366835994      9.81E-09 Convergence criterion met
 Total energy in the final basis set = -3084.73668360
   17   -3084.7996073759      9.77E-09 Convergence criterion met
 Total energy in the final basis set = -3084.79960738

             Standard Nuclear Orientation (Angstroms)
    I     Atom           X                Y                Z
 ----------------------------------------------------------------
    1      C      -0.1625179596     0.8294268092     0.3260800226
    2      C      -0.1975586967     0.8230137144     1.7424402511
    3      H       0.7321060794     0.7964860751     2.3034601680
    4      C      -1.3971662627     0.8481954715     2.4173033095
    5      C      -2.6205886085     0.8797068017     1.6748883457
    6      C      -2.6108666582     0.8812552756     0.2995167584
    7      H      -3.5478183253     0.8905422527    -0.2475520029
    8      C      -1.3955989608     0.8592030656    -0.4103206225
    9      C      -3.7309209871     0.8942882537     2.6196647985
   10      C      -5.1028690130     0.9243145357     2.5045068507
   11      H      -5.5975531253     0.9477703377     1.5403132512
   12      C      -3.1531215931     0.8666021829     3.9070943516
   13      C      -3.8941320031     0.8633883767     5.0891671406
   14      C      -1.7408700500     0.8395694485     3.8413127464
   15      C      -1.0373105531     0.8082936465     5.0237412471
   16      H       0.0460865332     0.7857861823     5.0466973772
   17      C      -5.8770001991     0.9237183052     3.6908097878
   18      H      -6.9560245809     0.9471075276     3.6021920686
   19      C      -5.3075916293     0.8931820799     4.9486959820
   20      H      -5.9398447637     0.8928049919     5.8290064753
   21      C      -1.7635671116     0.8033067748     6.2421219251
   22      H      -1.2063345369     0.7778650854     7.1703772124
   23      C      -3.1432994685     0.8294628427     6.2927717707
   24      H      -3.6518749987     0.8245409402     7.2497013111
   25      B      -1.3981017885     0.8196535063    -1.9485427099
   26      C      -0.0462460396     0.8605631705    -2.6898755327
   27      C      -0.0067365782     0.8849926986    -4.0952957756
   28      H      -0.9318343649     0.8907796299    -4.6605561398
   29      C       1.1938759484     0.8828470259    -4.7642390249
   30      C       2.4319467804     0.8432310745    -4.0512196827
   31      C       2.4154973959     0.8171958958    -2.6771276445
   32      H       3.3552702939     0.7691975353    -2.1358634461
   33      C       1.1901482595     0.8375481677    -1.9649111126
   34      C       1.4866041230     0.8859953925    -6.1935139874
   35      C       0.7267299866     0.9115888699    -7.3416777690
   36      H      -0.3562798849     0.9407816303    -7.3133835860
   37      C       2.8928994440     0.8444915477    -6.3070321334
   38      C       3.5718644830     0.8245501483    -7.5270446196
   39      C       3.5169588023     0.8154514024    -5.0391884775
   40      C       4.8918343824     0.7632228759    -4.9962695752
   41      H       5.4363468751     0.7350655986    -4.0593333287
   42      C       1.3935021989     0.8941368515    -8.5920787605
   43      H       0.7959907657     0.9115034482    -9.4949592946
   44      C       2.7692676039     0.8527442617    -8.6987311196
   45      H       3.2371166746     0.8372259872    -9.6762834009
   46      C       5.6090262034     0.7424227955    -6.2203862932
   47      H       6.6905001865     0.7001167602    -6.1803424754
   48      C       4.9876094117     0.7727876440    -7.4526770473
   49      H       5.5787065814     0.7528089414    -8.3610111287
   50      B       1.1792691511     0.7720536926    -0.4254138605
   51      C       2.5589873059     0.5961288612     0.3341310734
   52      C       2.9934580094    -0.6890053721     0.7110605365
   53      C       4.2649230591    -0.8696385466     1.2494338944
   54      H       4.6012769914    -1.8710617864     1.4998777889
   55      C       5.1190105711     0.2093191872     1.4340175794
   56      C       4.6850701149     1.4863110549     1.1029810666
   57      H       5.3458651249     2.3339968948     1.2571217717
   58      C       3.4225773128     1.6847191191     0.5505978334
   59      N       6.4465570076     0.0118777518     1.8921991259
   60      C       6.6691564129    -0.7222340262     3.0631688223
   61      C       7.7498599361    -1.6043665246     3.1823265944
   62      H       8.4434818275    -1.7370211947     2.3617314452
   63      C       7.9373713381    -2.3354795373     4.3480130144
   64      H       8.7793470338    -3.0141723815     4.4128581061
   65      C       7.0498535609    -2.2203810008     5.4132301982
   66      H       7.1956894977    -2.7982737695     6.3168833215
   67      C       5.9684975361    -1.3518651710     5.2954138470
   68      H       5.2656487281    -1.2437876173     6.1128192094
   69      C       5.7814456292    -0.6043650029     4.1409527046
   70      H       4.9373058688     0.0719350606     4.0802179135
   71      C       7.4892806537     0.3599085155     1.0143006313
   72      C       8.6732554193     0.9242051870     1.4977580749
   73      H       8.8026148452     1.0908458329     2.5604544302
   74      C       9.6858759747     1.2879104079     0.6205993224
   75      H      10.5945240171     1.7264837084     1.0147249049
   76      C       9.5322697529     1.1151227010    -0.7521031350
   77      H      10.3203485239     1.4097648087    -1.4333026476
   78      C       8.3500926374     0.5655418673    -1.2376907209
   79      H       8.2115859617     0.4223374290    -2.3026733928
   80      C       7.3394433750     0.1826191064    -0.3656482018
   81      H       6.4322950674    -0.2537721350    -0.7665809101
   82      C       2.1560435811    -1.9214373030     0.4584354368
   83      H       1.0949855566    -1.6918806148     0.5693650423
   84      H       2.3890174720    -2.6773863329     1.2130693761
   85      C       2.9883324483     3.0924244648     0.2267764564
   86      H       2.4156026993     3.1017478683    -0.7036465435
   87      H       3.8680060208     3.7172648548     0.0542163559
   88      C       2.3893298728    -2.5227986005    -0.9269045896
   89      H       2.1393340168    -1.8088686665    -1.7117896523
   90      H       3.4325388579    -2.8178190442    -1.0583522422
   91      H       1.7678307031    -3.4066242855    -1.0756755737
   92      C       2.1437229937     3.7151613589     1.3368058985
   93      H       1.2305810046     3.1422087450     1.5028675951
   94      H       2.6936008873     3.7485501477     2.2792126908
   95      H       1.8541353519     4.7351814901     1.0800867365
   96      C      -2.7529417262     0.6840060349    -2.7955542472
   97      C      -3.2505889184    -0.5996149176    -3.0898887225
   98      C      -4.3691686586    -0.7595944340    -3.8838572294
   99      H      -4.7664287242    -1.7538065456    -4.0490876040
  100      C      -5.0208342084     0.3500020807    -4.4424038153
  101      N      -6.0986351287     0.1731061797    -5.2630491810
  102      C      -4.5397698439     1.6344422504    -4.1420503835
  103      H      -5.0132705562     2.5027492649    -4.5841026226
  104      C      -3.4369366233     1.7980761243    -3.3255989150
  105      C      -6.2555267324    -1.0111953094    -6.0125429144
  106      C      -7.4957798842    -1.6503601978    -6.0045813978
  107      H      -8.3156128445    -1.2620373528    -5.4130006712
  108      C      -7.6531752937    -2.8144569224    -6.7352245840
  109      H      -8.6055645390    -3.3275747177    -6.7181168078
  110      C      -6.5929955835    -3.3213035846    -7.4838044845
  111      H      -6.7262308753    -4.2278499273    -8.0600520803
  112      C      -5.3664040138    -2.6627145394    -7.5021546182
  113      H      -4.5500445185    -3.0434388648    -8.1013715268
  114      C      -5.1870928884    -1.5053470015    -6.7639389834
  115      H      -4.2441700807    -0.9741694559    -6.8017441230
  116      C      -7.1076965244     1.1474380248    -5.3877310575
  117      C      -7.5949505235     1.4518463104    -6.6602268764
  118      H      -7.1755843895     0.9826623614    -7.5417465341
  119      C      -8.6035330364     2.3898901199    -6.7834083742
  120      H      -8.9752543482     2.6448948108    -7.7669417402
  121      C      -9.1352944842     2.9991030436    -5.6483925897
  122      H      -9.9325456909     3.7239606770    -5.7506140383
  123      C      -8.6546028034     2.6728688951    -4.3828683243
  124      H      -9.0834450951     3.1286075217    -3.5003374188
  125      C      -7.6354726394     1.7472608754    -4.2427437162
  126      H      -7.2852212792     1.4643674517    -3.2579981437
  127      C      -2.5750389454    -1.8616164360    -2.6065707232
  128      H      -1.9851627014    -1.6750011080    -1.7093234952
  129      H      -3.3384935140    -2.5897183830    -2.3253108567
  130      C      -3.0072416556     3.2083581721    -3.0039179965
  131      H      -1.9194962245     3.2781792918    -2.9345335707
  132      H      -3.3037192479     3.8679613802    -3.8207538566
  133      C      -1.6899128025    -2.4838307626    -3.6837200113
  134      H      -0.9132788989    -1.7893439104    -4.0062100334
  135      H      -1.2013468627    -3.3890800359    -3.3174918050
  136      H      -2.2826406719    -2.7504703788    -4.5592543302
  137      C      -3.6417910648     3.7249595553    -1.7159539960
  138      H      -3.3452783862     3.1219773785    -0.8579992543
  139      H      -3.3429865594     4.7560937802    -1.5198439526
  140      H      -4.7296059920     3.6949261607    -1.7860111827
 ----------------------------------------------------------------

   12   -3084.7994240856      9.46E-09 Convergence criterion met
 Total energy in the final basis set = -3084.79942409

                    Orbital Energies (a.u.)
 --------------------------------------------------------------

 Alpha MOs
 -- Occupied --
-14.670 -14.670 -10.494 -10.493 -10.492 -10.492 -10.486 -10.484
-10.468 -10.467 -10.467 -10.467 -10.467 -10.467 -10.466 -10.466
-10.466 -10.465 -10.465 -10.465 -10.463 -10.463 -10.463 -10.463
-10.463 -10.463 -10.460 -10.460 -10.460 -10.459 -10.458 -10.457
-10.456 -10.454 -10.454 -10.453 -10.451 -10.450 -10.450 -10.450
-10.450 -10.450 -10.450 -10.450 -10.449 -10.449 -10.449 -10.448
-10.448 -10.448 -10.448 -10.448 -10.447 -10.446 -10.446 -10.446
-10.444 -10.444 -10.444 -10.440 -10.440 -10.439 -10.439 -10.439
-10.438 -10.437 -10.434 -10.434 -10.432 -10.432 -10.432 -10.430
-10.429 -10.421 -10.420 -10.419 -10.419 -10.418  -6.951  -6.950
 -1.088  -1.079  -1.015  -1.015  -0.963  -0.962  -0.960  -0.959
 -0.958  -0.958  -0.940  -0.939  -0.932  -0.932  -0.908  -0.899
 -0.889  -0.888  -0.868  -0.866  -0.856  -0.856  -0.851  -0.850
 -0.846  -0.846  -0.844  -0.841  -0.840  -0.835  -0.825  -0.822
 -0.820  -0.813  -0.812  -0.803  -0.802  -0.798  -0.791  -0.788
 -0.735  -0.732  -0.727  -0.720  -0.717  -0.714  -0.712  -0.712
 -0.701  -0.699  -0.698  -0.696  -0.689  -0.685  -0.682  -0.679
 -0.679  -0.675  -0.668  -0.667  -0.648  -0.646  -0.638  -0.636
 -0.632  -0.630  -0.606  -0.604  -0.597  -0.594  -0.591  -0.588
 -0.587  -0.585  -0.582  -0.575  -0.575  -0.562  -0.561  -0.555
 -0.554  -0.544  -0.543  -0.543  -0.541  -0.537  -0.526  -0.526
 -0.524  -0.521  -0.518  -0.514  -0.510  -0.509  -0.503  -0.502
 -0.502  -0.499  -0.498  -0.497  -0.496  -0.495  -0.494  -0.490
 -0.490  -0.489  -0.488  -0.487  -0.486  -0.484  -0.484  -0.483
 -0.481  -0.479  -0.477  -0.477  -0.476  -0.469  -0.466  -0.465
 -0.462  -0.455  -0.455  -0.452  -0.443  -0.440  -0.437  -0.436
 -0.434  -0.434  -0.431  -0.429  -0.427  -0.427  -0.426  -0.426
 -0.424  -0.421  -0.420  -0.417  -0.413  -0.411  -0.407  -0.406
 -0.404  -0.402  -0.401  -0.400  -0.398  -0.397  -0.396  -0.395
 -0.395  -0.394  -0.393  -0.391  -0.391  -0.387  -0.387  -0.384
 -0.380  -0.375  -0.369  -0.364  -0.359  -0.357  -0.353  -0.350
 -0.346  -0.339  -0.321  -0.315  -0.309  -0.302  -0.301  -0.300
 -0.299  -0.296  -0.296  -0.295  -0.286  -0.284  -0.282  -0.276
 -0.275  -0.263  -0.258  -0.255  -0.225  -0.217

 Beta MOs
 -- Occupied --
-14.670 -14.670 -10.494 -10.493 -10.492 -10.492 -10.486 -10.484
-10.468 -10.467 -10.467 -10.467 -10.467 -10.467 -10.466 -10.466
-10.466 -10.465 -10.465 -10.465 -10.463 -10.463 -10.463 -10.463
-10.463 -10.463 -10.460 -10.460 -10.460 -10.459 -10.458 -10.457
-10.456 -10.454 -10.454 -10.453 -10.451 -10.450 -10.450 -10.450
-10.450 -10.450 -10.450 -10.450 -10.449 -10.449 -10.449 -10.448
-10.448 -10.448 -10.448 -10.448 -10.447 -10.446 -10.446 -10.446
-10.444 -10.444 -10.444 -10.440 -10.440 -10.439 -10.439 -10.439
-10.438 -10.437 -10.434 -10.434 -10.432 -10.432 -10.432 -10.430
-10.429 -10.421 -10.420 -10.419 -10.419 -10.418  -6.951  -6.950
 -1.088  -1.079  -1.015  -1.015  -0.963  -0.962  -0.960  -0.959
 -0.958  -0.958  -0.940  -0.939  -0.932  -0.932  -0.908  -0.899
 -0.889  -0.888  -0.868  -0.866  -0.856  -0.856  -0.851  -0.850
 -0.846  -0.846  -0.844  -0.841  -0.840  -0.835  -0.825  -0.822
 -0.820  -0.813  -0.812  -0.803  -0.802  -0.798  -0.791  -0.788
 -0.735  -0.732  -0.727  -0.720  -0.717  -0.714  -0.712  -0.712
 -0.701  -0.699  -0.698  -0.696  -0.689  -0.685  -0.682  -0.679
 -0.679  -0.675  -0.668  -0.667  -0.648  -0.646  -0.638  -0.636
 -0.632  -0.630  -0.606  -0.604  -0.597  -0.594  -0.591  -0.588
 -0.587  -0.585  -0.582  -0.575  -0.575  -0.562  -0.561  -0.555
 -0.554  -0.544  -0.543  -0.543  -0.541  -0.537  -0.526  -0.526
 -0.524  -0.521  -0.518  -0.514  -0.510  -0.509  -0.503  -0.502
 -0.502  -0.499  -0.498  -0.497  -0.496  -0.495  -0.494  -0.490
 -0.490  -0.489  -0.488  -0.487  -0.486  -0.485  -0.484  -0.483
 -0.481  -0.479  -0.477  -0.477  -0.476  -0.469  -0.466  -0.465
 -0.462  -0.455  -0.455  -0.452  -0.443  -0.440  -0.437  -0.436
 -0.434  -0.434  -0.431  -0.429  -0.427  -0.427  -0.426  -0.426
 -0.424  -0.421  -0.420  -0.417  -0.413  -0.411  -0.407  -0.406
 -0.404  -0.402  -0.401  -0.400  -0.398  -0.397  -0.396  -0.395
 -0.395  -0.394  -0.393  -0.391  -0.391  -0.387  -0.387  -0.384
 -0.380  -0.375  -0.369  -0.364  -0.359  -0.357  -0.353  -0.350
 -0.346  -0.339  -0.321  -0.316  -0.309  -0.302  -0.301  -0.300
 -0.299  -0.296  -0.296  -0.295  -0.286  -0.284  -0.282  -0.276
 -0.275  -0.263  -0.258  -0.255  -0.225  -0.217

          Ground-State Mulliken Net Atomic Charges

     Atom                 Charge (a.u.)    Spin (a.u.)
  --------------------------------------------------------
      1 C                    -0.152453       0.000226
      2 C                    -0.403113      -0.000487
      3 H                     0.246772       0.000037
      4 C                     0.101358       0.000574
      5 C                     0.076947      -0.000223
      6 C                    -0.399034       0.000255
      7 H                     0.250330      -0.000015
      8 C                    -0.149962      -0.000530
      9 C                     0.176215      -0.001569
     10 C                    -0.381800       0.001680
     11 H                     0.246189      -0.000116
     12 C                    -0.062862       0.001518
     13 C                     0.220073      -0.001568
     14 C                     0.182681      -0.001921
     15 C                    -0.390099       0.002009
     16 H                     0.246139      -0.000142
     17 C                    -0.229644      -0.001775
     18 H                     0.251739       0.000116
     19 C                    -0.339877       0.001944
     20 H                     0.248548      -0.000133
     21 C                    -0.226971      -0.002008
     22 H                     0.251493       0.000131
     23 C                    -0.343999       0.002241
     24 H                     0.248825      -0.000157
     25 B                     0.649605      -0.000153
     26 C                    -0.149430      -0.000667
     27 C                    -0.388981       0.000372
     28 H                     0.246879      -0.000023
     29 C                     0.074982      -0.000345
     30 C                     0.102409       0.000718
     31 C                    -0.394632      -0.000625
     32 H                     0.244872       0.000047
     33 C                    -0.153039       0.000359
     34 C                     0.178635      -0.001591
     35 C                    -0.382314       0.001705
     36 H                     0.246008      -0.000118
     37 C                    -0.063658       0.001582
     38 C                     0.218592      -0.001631
     39 C                     0.185976      -0.002047
     40 C                    -0.392150       0.002137
     41 H                     0.244923      -0.000151
     42 C                    -0.229651      -0.001820
     43 H                     0.251624       0.000119
     44 C                    -0.339547       0.001978
     45 H                     0.248280      -0.000135
     46 C                    -0.226549      -0.002112
     47 H                     0.250137       0.000138
     48 C                    -0.343746       0.002360
     49 H                     0.248679      -0.000166
     50 B                     0.647895       0.000001
     51 C                    -0.213764      -0.000053
     52 C                     0.050982       0.000049
     53 C                    -0.334980      -0.000048
     54 H                     0.241929       0.000004
     55 C                     0.259372       0.000045
     56 C                    -0.343070      -0.000048
     57 H                     0.239500       0.000004
     58 C                     0.066972       0.000048
     59 N                    -0.672011      -0.000002
     60 C                     0.318388      -0.000003
     61 C                    -0.312290       0.000004
     62 H                     0.258499      -0.000000
     63 C                    -0.233402      -0.000003
     64 H                     0.241785       0.000000
     65 C                    -0.268466       0.000004
     66 H                     0.237619      -0.000000
     67 C                    -0.231965      -0.000003
     68 H                     0.240714       0.000000
     69 C                    -0.302486       0.000004
     70 H                     0.254738      -0.000000
     71 C                     0.298324      -0.000003
     72 C                    -0.286247       0.000004
     73 H                     0.259218      -0.000000
     74 C                    -0.237281      -0.000004
     75 H                     0.243547       0.000000
     76 C                    -0.261197       0.000004
     77 H                     0.239730      -0.000000
     78 C                    -0.235009      -0.000004
     79 H                     0.239776       0.000000
     80 C                    -0.295794       0.000004
     81 H                     0.255579      -0.000000
     82 C                    -0.555053      -0.000006
     83 H                     0.254806       0.000001
     84 H                     0.243162       0.000001
     85 C                    -0.547124      -0.000006
     86 H                     0.251548       0.000001
     87 H                     0.241368       0.000001
     88 C                    -0.657215      -0.000001
     89 H                     0.244334       0.000001
     90 H                     0.219591       0.000000
     91 H                     0.226488       0.000000
     92 C                    -0.656788      -0.000002
     93 H                     0.239752       0.000001
     94 H                     0.220375       0.000000
     95 H                     0.227670       0.000000
     96 C                    -0.244635      -0.001155
     97 C                     0.065748       0.001133
     98 C                    -0.387049      -0.001117
     99 H                     0.250196       0.000082
    100 C                     0.335335       0.000981
    101 N                    -0.654629       0.000011
    102 C                    -0.390369      -0.001108
    103 H                     0.249651       0.000082
    104 C                     0.078877       0.001134
    105 C                     0.248226       0.000489
    106 C                    -0.273348      -0.000503
    107 H                     0.260848       0.000037
    108 C                    -0.240074       0.000520
    109 H                     0.245131      -0.000040
    110 C                    -0.256041      -0.000520
    111 H                     0.240278       0.000040
    112 C                    -0.240666       0.000517
    113 H                     0.245362      -0.000039
    114 C                    -0.268156      -0.000511
    115 H                     0.260137       0.000038
    116 C                     0.260841       0.000503
    117 C                    -0.280392      -0.000523
    118 H                     0.260677       0.000039
    119 C                    -0.238468       0.000539
    120 H                     0.244922      -0.000041
    121 C                    -0.258037      -0.000539
    122 H                     0.239601       0.000041
    123 C                    -0.240100       0.000536
    124 H                     0.244488      -0.000041
    125 C                    -0.274633      -0.000528
    126 H                     0.261782       0.000040
    127 C                    -0.554962      -0.000129
    128 H                     0.254445       0.000016
    129 H                     0.241751       0.000023
    130 C                    -0.543534      -0.000127
    131 H                     0.246432       0.000021
    132 H                     0.238591       0.000016
    133 C                    -0.653309       0.000039
    134 H                     0.238135      -0.000003
    135 H                     0.224364       0.000006
    136 H                     0.220137      -0.000003
    137 C                    -0.655623       0.000040
    138 H                     0.238003      -0.000004
    139 H                     0.226497       0.000006
    140 H                     0.218654      -0.000003
  --------------------------------------------------------
  Sum of atomic charges =    -0.000000

                    Cartesian Multipole Moments
 -----------------------------------------------------------------
    Charge (ESU x 10^10)
                -0.0000
    Dipole Moment (Debye)
         X      -1.8918      Y      -0.1678      Z      -1.3175
       Tot       2.3115
    Quadrupole Moments (Debye-Ang)
        XX    -405.0753     XY      -2.5740     YY    -461.4189
        XZ     -14.9645     YZ       2.7666     ZZ    -387.0744
