 Q-Chem 5.0, Q-Chem, Inc., Pleasanton, CA (2017)
 Q-Chem 5.0.1 for Intel X86 EM64T Linux

User input:
--------------------------------------------------------------
$rem
threads 8
jobtype	sp
method PBEh-3c
basis def2-mSVP
mem_static	1024
mem_total	8000
sym_ignore	true
unrestricted true
scf_convergence	9
solvent_method	pcm
$end

$molecule
read incoords.mol
$end

$solvent
dielectric	1.0001
$end

$pcm
theory iefpcm
$end
--------------------------------------------------------------

   17   -3084.7833223107      8.12E-10 Convergence criterion met
 Total energy in the final basis set = -3084.78332231
 Total job time:  5147.75s(wall), 15388.74s(cpu)
        *  Thank you very much for using Q-Chem.  Have a nice day.  *
 Q-Chem 5.0, Q-Chem, Inc., Pleasanton, CA (2017)
 Q-Chem 5.0.1 for Intel X86 EM64T Linux

User input:
--------------------------------------------------------------

$rem
threads 8
jobtype opt
method PBEh-3c
basis def2-mSVP
scf_guess	read
mem_static      1024
mem_total       8000
sym_ignore      true
unrestricted true
mom_start       1
scf_algorithm	diis
scf_max_cycles	250
solvent_method	pcm
geom_opt_tol_energy 25
geom_opt_tol_gradient 75
$end

$solvent
dielectric      1.0001
$end

$pcm
theory iefpcm
$end

$occupied
1 2 3 4 5 6 7 8 9 10 11 12 13 14 15 16 17 18 19 20 21 22 23 24 25 26 27 28 29 30 31 32 33 34 35 36 37 38 39 40 41 42 43 44 45 46 47 48 49 50 51 52 53 54 55 56 57 58 59 60 61 62 63 64 65 66 67 68 69 70 71 72 73 74 75 76 77 78 79 80 81 82 83 84 85 86 87 88 89 90 91 92 93 94 95 96 97 98 99 100 101 102 103 104 105 106 107 108 109 110 111 112 113 114 115 116 117 118 119 120 121 122 123 124 125 126 127 128 129 130 131 132 133 134 135 136 137 138 139 140 141 142 143 144 145 146 147 148 149 150 151 152 153 154 155 156 157 158 159 160 161 162 163 164 165 166 167 168 169 170 171 172 173 174 175 176 177 178 179 180 181 182 183 184 185 186 187 188 189 190 191 192 193 194 195 196 197 198 199 200 201 202 203 204 205 206 207 208 209 210 211 212 213 214 215 216 217 218 219 220 221 222 223 224 225 226 227 228 229 230 231 232 233 234 235 236 237 238 239 240 241 242 243 244 245 246 247 248 249 250 251 252 253 254 255 256 257 258 259 260 261 262 263 264 265 266 267 268 269  271
1 2 3 4 5 6 7 8 9 10 11 12 13 14 15 16 17 18 19 20 21 22 23 24 25 26 27 28 29 30 31 32 33 34 35 36 37 38 39 40 41 42 43 44 45 46 47 48 49 50 51 52 53 54 55 56 57 58 59 60 61 62 63 64 65 66 67 68 69 70 71 72 73 74 75 76 77 78 79 80 81 82 83 84 85 86 87 88 89 90 91 92 93 94 95 96 97 98 99 100 101 102 103 104 105 106 107 108 109 110 111 112 113 114 115 116 117 118 119 120 121 122 123 124 125 126 127 128 129 130 131 132 133 134 135 136 137 138 139 140 141 142 143 144 145 146 147 148 149 150 151 152 153 154 155 156 157 158 159 160 161 162 163 164 165 166 167 168 169 170 171 172 173 174 175 176 177 178 179 180 181 182 183 184 185 186 187 188 189 190 191 192 193 194 195 196 197 198 199 200 201 202 203 204 205 206 207 208 209 210 211 212 213 214 215 216 217 218 219 220 221 222 223 224 225 226 227 228 229 230 231 232 233 234 235 236 237 238 239 240 241 242 243 244 245 246 247 248 249 250 251 252 253 254 255 256 257 258 259 260 261 262 263 264 265 266 267 268 269 270
$end

$molecule
read
$end

--------------------------------------------------------------

   24   -3084.6923928910      9.24E-09 Convergence criterion met
 Total energy in the final basis set = -3084.69239289
   19   -3084.6965786516      8.93E-09 Convergence criterion met
 Total energy in the final basis set = -3084.69657865
   21   -3084.6962393494      4.25E-09 Convergence criterion met
 Total energy in the final basis set = -3084.69623935
   27   -3084.6954209167      4.12E-09 Convergence criterion met
 Total energy in the final basis set = -3084.69542092

                    Orbital Energies (a.u.)
 --------------------------------------------------------------

 Alpha MOs
 -- Occupied --
-14.733 -14.692 -10.528 -10.528 -10.520 -10.501 -10.501 -10.488
-10.482 -10.482 -10.481 -10.481 -10.480 -10.480 -10.479 -10.479
-10.477 -10.477 -10.464 -10.463 -10.462 -10.460 -10.457 -10.457
-10.456 -10.456 -10.456 -10.455 -10.455 -10.455 -10.453 -10.453
-10.440 -10.440 -10.439 -10.439 -10.439 -10.438 -10.438 -10.437
-10.437 -10.436 -10.436 -10.436 -10.436 -10.436 -10.436 -10.435
-10.435 -10.435 -10.435 -10.433 -10.432 -10.432 -10.432 -10.431
-10.429 -10.426 -10.425 -10.422 -10.421 -10.421 -10.421 -10.421
-10.421 -10.417 -10.417 -10.417 -10.416 -10.414 -10.414 -10.412
-10.404 -10.404 -10.395 -10.395 -10.392 -10.392  -6.889  -6.886
 -1.126  -1.093  -0.995  -0.987  -0.986  -0.986  -0.970  -0.965
 -0.962  -0.941  -0.928  -0.927  -0.907  -0.907  -0.897  -0.889
 -0.885  -0.878  -0.875  -0.872  -0.870  -0.866  -0.864  -0.860
 -0.847  -0.847  -0.837  -0.825  -0.823  -0.822  -0.821  -0.818
 -0.810  -0.808  -0.793  -0.791  -0.786  -0.782  -0.781  -0.770
 -0.743  -0.738  -0.718  -0.718  -0.715  -0.712  -0.710  -0.704
 -0.701  -0.700  -0.697  -0.696  -0.691  -0.690  -0.690  -0.678
 -0.667  -0.661  -0.651  -0.650  -0.648  -0.639  -0.634  -0.630
 -0.626  -0.617  -0.614  -0.612  -0.609  -0.592  -0.589  -0.582
 -0.574  -0.571  -0.569  -0.568  -0.567  -0.564  -0.557  -0.556
 -0.552  -0.549  -0.547  -0.546  -0.545  -0.538  -0.529  -0.528
 -0.527  -0.527  -0.519  -0.518  -0.515  -0.515  -0.507  -0.504
 -0.502  -0.500  -0.500  -0.496  -0.493  -0.492  -0.491  -0.486
 -0.480  -0.479  -0.476  -0.474  -0.473  -0.468  -0.468  -0.464
 -0.463  -0.462  -0.461  -0.459  -0.457  -0.456  -0.456  -0.455
 -0.454  -0.453  -0.452  -0.445  -0.445  -0.443  -0.438  -0.437
 -0.436  -0.436  -0.434  -0.432  -0.432  -0.429  -0.426  -0.422
 -0.420  -0.417  -0.416  -0.413  -0.412  -0.409  -0.407  -0.406
 -0.403  -0.400  -0.397  -0.393  -0.393  -0.386  -0.384  -0.383
 -0.374  -0.374  -0.372  -0.371  -0.370  -0.370  -0.368  -0.368
 -0.365  -0.360  -0.356  -0.351  -0.343  -0.340  -0.338  -0.334
 -0.328  -0.324  -0.318  -0.315  -0.312  -0.310  -0.305  -0.301
 -0.293  -0.291  -0.289  -0.286  -0.275  -0.273  -0.271  -0.268
 -0.255  -0.239  -0.228  -0.223  -0.196  -0.136

 Beta MOs
 -- Occupied --
-14.739 -14.695 -10.527 -10.527 -10.520 -10.501 -10.501 -10.488
-10.483 -10.483 -10.482 -10.482 -10.479 -10.479 -10.479 -10.479
-10.478 -10.478 -10.463 -10.463 -10.462 -10.461 -10.457 -10.457
-10.456 -10.456 -10.456 -10.456 -10.456 -10.455 -10.454 -10.454
-10.442 -10.440 -10.440 -10.440 -10.439 -10.438 -10.438 -10.437
-10.437 -10.436 -10.436 -10.436 -10.436 -10.435 -10.435 -10.434
-10.434 -10.434 -10.434 -10.434 -10.433 -10.433 -10.432 -10.431
-10.429 -10.425 -10.425 -10.422 -10.422 -10.421 -10.421 -10.420
-10.420 -10.417 -10.417 -10.417 -10.417 -10.416 -10.414 -10.412
-10.404 -10.404 -10.395 -10.395 -10.391 -10.391  -6.886  -6.883
 -1.136  -1.098  -0.996  -0.989  -0.985  -0.985  -0.971  -0.968
 -0.963  -0.942  -0.927  -0.926  -0.907  -0.906  -0.897  -0.891
 -0.886  -0.878  -0.875  -0.872  -0.871  -0.866  -0.865  -0.861
 -0.848  -0.847  -0.840  -0.824  -0.822  -0.821  -0.820  -0.819
 -0.812  -0.812  -0.793  -0.791  -0.785  -0.782  -0.781  -0.769
 -0.745  -0.740  -0.720  -0.719  -0.715  -0.713  -0.711  -0.704
 -0.700  -0.699  -0.698  -0.697  -0.691  -0.691  -0.690  -0.678
 -0.668  -0.661  -0.651  -0.649  -0.648  -0.638  -0.633  -0.630
 -0.626  -0.617  -0.614  -0.613  -0.609  -0.593  -0.589  -0.583
 -0.575  -0.573  -0.570  -0.567  -0.567  -0.562  -0.558  -0.556
 -0.552  -0.549  -0.548  -0.547  -0.545  -0.538  -0.529  -0.529
 -0.528  -0.528  -0.519  -0.518  -0.516  -0.514  -0.507  -0.505
 -0.502  -0.500  -0.500  -0.497  -0.494  -0.492  -0.490  -0.486
 -0.480  -0.479  -0.478  -0.476  -0.473  -0.472  -0.468  -0.465
 -0.464  -0.462  -0.461  -0.460  -0.458  -0.456  -0.455  -0.454
 -0.454  -0.454  -0.452  -0.447  -0.446  -0.443  -0.439  -0.438
 -0.438  -0.437  -0.435  -0.433  -0.432  -0.429  -0.426  -0.423
 -0.422  -0.420  -0.417  -0.416  -0.412  -0.409  -0.407  -0.406
 -0.400  -0.399  -0.395  -0.394  -0.392  -0.388  -0.383  -0.382
 -0.380  -0.374  -0.373  -0.370  -0.370  -0.368  -0.368  -0.368
 -0.364  -0.362  -0.359  -0.353  -0.343  -0.339  -0.337  -0.333
 -0.332  -0.327  -0.321  -0.317  -0.314  -0.311  -0.308  -0.304
 -0.300  -0.294  -0.286  -0.282  -0.282  -0.269  -0.269  -0.269
 -0.258  -0.244  -0.231  -0.228  -0.225  -0.216

          Ground-State Mulliken Net Atomic Charges

     Atom                 Charge (a.u.)    Spin (a.u.)
  --------------------------------------------------------
      1 C                    -0.132077       0.010191
      2 C                    -0.410255      -0.022895
      3 H                     0.192949       0.000615
      4 C                     0.107054       0.048251
      5 C                     0.075240       0.078114
      6 C                    -0.397979      -0.046307
      7 H                     0.207884       0.001705
      8 C                    -0.133170       0.043487
      9 C                     0.198537      -0.045215
     10 C                    -0.398218       0.069858
     11 H                     0.194923      -0.004216
     12 C                    -0.077627       0.022907
     13 C                     0.254394      -0.036951
     14 C                     0.196135      -0.053646
     15 C                    -0.385123       0.080216
     16 H                     0.203214      -0.004794
     17 C                    -0.197978      -0.045908
     18 H                     0.209386       0.002304
     19 C                    -0.347843       0.064774
     20 H                     0.208113      -0.003859
     21 C                    -0.343308       0.074218
     22 H                     0.207411      -0.004462
     23 C                    -0.202506      -0.050473
     24 H                     0.212496       0.002497
     25 B                     0.517381       0.346649
     26 C                    -0.127009       0.007924
     27 C                    -0.409033      -0.024684
     28 H                     0.193023       0.000592
     29 C                     0.104604       0.050308
     30 C                     0.074307       0.076796
     31 C                    -0.399630      -0.046440
     32 H                     0.208223       0.001642
     33 C                    -0.126611       0.043808
     34 C                     0.201462      -0.046347
     35 C                    -0.398388       0.071897
     36 H                     0.195139      -0.004340
     37 C                    -0.078196       0.022444
     38 C                     0.252264      -0.037441
     39 C                     0.197851      -0.054163
     40 C                    -0.386477       0.081041
     41 H                     0.204770      -0.004838
     42 C                    -0.197724      -0.046970
     43 H                     0.209355       0.002353
     44 C                    -0.347230       0.066496
     45 H                     0.208223      -0.003961
     46 C                    -0.342089       0.074316
     47 H                     0.207542      -0.004466
     48 C                    -0.202606      -0.050991
     49 H                     0.213099       0.002526
     50 B                     0.531579       0.312985
     51 C                    -0.176884      -0.138835
     52 C                     0.072875       0.038328
     53 C                    -0.349050      -0.044741
     54 H                     0.235398       0.002849
     55 C                     0.305918      -0.011025
     56 C                    -0.355758      -0.043969
     57 H                     0.236576       0.002794
     58 C                     0.062622       0.038976
     59 N                    -0.644078      -0.118845
     60 C                     0.280517       0.023921
     61 C                    -0.270048      -0.035172
     62 H                     0.250663       0.001864
     63 C                    -0.214590       0.024308
     64 H                     0.226846      -0.001239
     65 C                    -0.229891      -0.043166
     66 H                     0.225536       0.002405
     67 C                    -0.215686       0.025958
     68 H                     0.229324      -0.001423
     69 C                    -0.264786      -0.037198
     70 H                     0.256723       0.001994
     71 C                     0.276051       0.023572
     72 C                    -0.267797      -0.034518
     73 H                     0.250849       0.001836
     74 C                    -0.214816       0.023742
     75 H                     0.226986      -0.001227
     76 C                    -0.229552      -0.042245
     77 H                     0.225573       0.002354
     78 C                    -0.215713       0.025440
     79 H                     0.229743      -0.001380
     80 C                    -0.263535      -0.036349
     81 H                     0.256764       0.001940
     82 C                    -0.544007       0.001502
     83 H                     0.221155       0.000791
     84 H                     0.272321      -0.002221
     85 C                    -0.538687       0.000715
     86 H                     0.219920       0.000772
     87 H                     0.266887      -0.001353
     88 C                    -0.648797      -0.000016
     89 H                     0.257117      -0.000354
     90 H                     0.216522       0.000032
     91 H                     0.205059      -0.000061
     92 C                    -0.646852      -0.000059
     93 H                     0.258945      -0.000317
     94 H                     0.205332      -0.000059
     95 H                     0.212663       0.000069
     96 C                    -0.148490      -0.246369
     97 C                     0.080732       0.061386
     98 C                    -0.344099      -0.078013
     99 H                     0.245840       0.004820
    100 C                     0.301670      -0.039719
    101 C                    -0.347919      -0.074545
    102 H                     0.245711       0.004665
    103 C                     0.068323       0.062530
    104 N                    -0.616859      -0.226359
    105 C                     0.280835       0.050028
    106 C                    -0.263379      -0.073228
    107 H                     0.266900       0.003867
    108 C                    -0.215333       0.051160
    109 H                     0.239908      -0.002785
    110 C                    -0.222687      -0.082990
    111 H                     0.236858       0.004616
    112 C                    -0.215504       0.047725
    113 H                     0.236912      -0.002398
    114 C                    -0.265711      -0.069294
    115 H                     0.258093       0.003661
    116 C                     0.267087       0.047863
    117 C                    -0.255406      -0.068782
    118 H                     0.264014       0.003641
    119 C                    -0.215467       0.048025
    120 H                     0.241303      -0.002628
    121 C                    -0.221896      -0.077655
    122 H                     0.237281       0.004320
    123 C                    -0.216306       0.044611
    124 H                     0.237074      -0.002286
    125 C                    -0.261027      -0.065299
    126 H                     0.257293       0.003472
    127 C                    -0.551530       0.000852
    128 H                     0.223544       0.001059
    129 H                     0.288555      -0.003335
    130 C                    -0.544170       0.000112
    131 H                     0.221962       0.001107
    132 H                     0.279739      -0.002125
    133 C                    -0.648129       0.000391
    134 H                     0.268589      -0.000392
    135 H                     0.221328       0.000431
    136 H                     0.201890      -0.000129
    137 C                    -0.651112       0.000359
    138 H                     0.266898      -0.000473
    139 H                     0.223931       0.000325
    140 H                     0.202913      -0.000159
  --------------------------------------------------------
  Sum of atomic charges =    -0.000000

                    Cartesian Multipole Moments
 -----------------------------------------------------------------
    Charge (ESU x 10^10)
                -0.0000
    Dipole Moment (Debye)
         X       6.2440      Y      -2.0302      Z       3.7593
       Tot       7.5658
    Quadrupole Moments (Debye-Ang)
        XX    -316.6119     XY       1.2013     YY    -452.8964
        XZ      69.2255     YZ      -0.2258     ZZ    -429.3279

             Standard Nuclear Orientation (Angstroms)
    I     Atom           X                Y                Z
 ----------------------------------------------------------------
    1      C       0.1033483839     0.1263021651     0.0567718017
    2      C       0.1016003476     0.1337398806     1.4714334358
    3      H       1.0484806245     0.1654949156     2.0027321623
    4      C      -1.0742345237     0.1017833411     2.1777508782
    5      C      -2.3115706820     0.0444951259     1.4694052453
    6      C      -2.3348998545     0.0261602904     0.0991699140
    7      H      -3.2852858374    -0.0270307611    -0.4233371394
    8      C      -1.1403842997     0.0714770466    -0.6454482739
    9      C      -1.3856544740     0.1125414935     3.6086578845
   10      C      -0.6622121869     0.1657975960     4.7730081649
   11      H       0.4196606488     0.2155200000     4.7700175424
   12      C      -2.7921328914     0.0563873309     3.7105017549
   13      C      -3.5035606354     0.0483929718     4.9059352913
   14      C      -3.3964743510     0.0119995759     2.4387954752
   15      C      -4.7650117529    -0.0469232276     2.3577049975
   16      H      -5.2772770662    -0.0844871911     1.4040177635
   17      C      -1.3558824321     0.1599729279     6.0053394129
   18      H      -0.7791641285     0.2042499821     6.9206028859
   19      C      -2.7275355851     0.1026694418     6.0882954677
   20      H      -3.2109352137     0.1012769241     7.0575114110
   21      C      -4.9143256770    -0.0118916193     4.7967926419
   22      H      -5.5261992656    -0.0213023404     5.6905060512
   23      C      -5.5104670096    -0.0582843817     3.5574396406
   24      H      -6.5905508945    -0.1047965418     3.4967976174
   25      B       1.4096919060     0.1395343691    -0.7419590452
   26      C       1.3946727742     0.1761723170    -2.2709314975
   27      C       2.5967003632     0.2364508657    -3.0149016343
   28      H       3.5461766748     0.2723009661    -2.4887097989
   29      C       2.5791341880     0.2486000023    -4.3853031384
   30      C       1.3273228191     0.1884379596    -5.0691700360
   31      C       0.1504243986     0.1208565922    -4.3711965372
   32      H      -0.7913021902     0.0667818026    -4.9090131327
   33      C       0.1457382254     0.1185889475    -2.9623435944
   34      C       3.6346118000     0.3079903404    -5.3993041633
   35      C       5.0048530496     0.3832081438    -5.3936214129
   36      H       5.5703625957     0.4113067514    -4.4703854248
   37      C       2.9837607561     0.2803891130    -6.6508380931
   38      C       3.6304897337     0.3233384417    -7.8833959212
   39      C       1.5847254272     0.2086308913    -6.5028864351
   40      C       0.8028340172     0.1776983887    -7.6311365122
   41      H      -0.2775759371     0.1250346636    -7.5739965584
   42      C       5.6908709608     0.4269169306    -6.6292531734
   43      H       6.7719125502     0.4860048725    -6.6157295802
   44      C       5.0428045630     0.3991379207    -7.8419753797
   45      H       5.6131051057     0.4366083742    -8.7621233087
   46      C       2.8025166839     0.2896886801    -9.0314743359
   47      H       3.2461789145     0.3203809207   -10.0191993413
   48      C       1.4354106156     0.2187582735    -8.8935478185
   49      H       0.8185899037     0.1947677090    -9.7831807622
   50      B      -1.1702115782     0.0276357022    -2.1803476320
   51      C      -2.5446412967    -0.1710843192    -2.9481557153
   52      C      -3.2658093753     0.9102289188    -3.4875119526
   53      C      -4.4713817327     0.7051820122    -4.1389160324
   54      H      -5.0009738741     1.5484435801    -4.5668799646
   55      C      -5.0074983830    -0.5764864685    -4.2615107428
   56      C      -4.2972440029    -1.6544394242    -3.7354569225
   57      H      -4.7115855067    -2.6533688803    -3.8105724226
   58      C      -3.0814938794    -1.4642213877    -3.1012940902
   59      N      -6.2367431021    -0.7809218614    -4.8974082030
   60      C      -7.2790788999     0.1475605531    -4.7481912946
   61      C      -8.0781803606     0.4843962181    -5.8404409774
   62      H      -7.8735577450     0.0478083743    -6.8092343101
   63      C      -9.1250338923     1.3760695945    -5.6862006916
   64      H      -9.7373333705     1.6303683363    -6.5413630506
   65      C      -9.3812370336     1.9544884042    -4.4510496577
   66      H     -10.1978899843     2.6542444728    -4.3349754937
   67      C      -8.5799152263     1.6278330712    -3.3663335809
   68      H      -8.7754160330     2.0669893286    -2.3969611317
   69      C      -7.5387755019     0.7264058480    -3.5058932570
   70      H      -6.9282955120     0.4601327254    -2.6531147718
   71      C      -6.4610074207    -1.9431774872    -5.6547662736
   72      C      -7.6691172122    -2.6319170752    -5.5450549145
   73      H      -8.4314029248    -2.2764935983    -4.8642028215
   74      C      -7.8885733664    -3.7728269352    -6.2971428093
   75      H      -8.8279129129    -4.3011766871    -6.1999174562
   76      C      -6.9088518056    -4.2507030627    -7.1556907432
   77      H      -7.0820855659    -5.1464787250    -7.7368897395
   78      C      -5.7041043030    -3.5702042507    -7.2602526535
   79      H      -4.9354342267    -3.9296358572    -7.9316402457
   80      C      -5.4788697614    -2.4207925673    -6.5227147834
   81      H      -4.5423167435    -1.8870822223    -6.6165503541
   82      C      -2.3333456751    -2.6819192272    -2.6239692344
   83      H      -3.0462964682    -3.4360588383    -2.2795751415
   84      H      -1.7099757904    -2.4318114540    -1.7644364965
   85      C      -2.7706193021     2.3232790503    -3.3285638348
   86      H      -3.0764448490     2.9175809334    -4.1936229250
   87      H      -1.6794172172     2.3415313785    -3.3114963564
   88      C      -3.3111628162     2.9675663093    -2.0533489278
   89      H      -2.9937361475     2.4115297664    -1.1714443959
   90      H      -2.9522899217     3.9920212046    -1.9479524861
   91      H      -4.4019727721     2.9933317370    -2.0598900076
   92      C      -1.4648526148    -3.2782607302    -3.7305919180
   93      H      -0.7303663757    -2.5558167569    -4.0855623880
   94      H      -2.0726487192    -3.5862478904    -4.5829286520
   95      H      -0.9243478373    -4.1555001896    -3.3724651332
   96      C       2.7911305546     0.0116954726     0.0142031894
   97      C       3.6011724446     1.1361362276     0.2888575852
   98      C       4.7868673588     0.9892305011     0.9808593990
   99      H       5.3867059325     1.8588941897     1.2229078399
  100      C       5.2017392234    -0.2782848545     1.4081478325
  101      C       4.4167879179    -1.4003181558     1.1168520077
  102      H       4.7584269013    -2.3835969075     1.4180036836
  103      C       3.2300208132    -1.2670592508     0.4284900241
  104      N       6.3784628609    -0.4359773026     2.1287016013
  105      C       7.4936167454     0.3715174245     1.8614328141
  106      C       7.8132953556     0.7010181314     0.5432872533
  107      H       7.2133573361     0.3123188041    -0.2691675423
  108      C       8.9039276783     1.5099964424     0.2825719934
  109      H       9.1482577252     1.7590272562    -0.7413554575
  110      C       9.6898440085     1.9874852711     1.3225448319
  111      H      10.5422606255     2.6193519865     1.1134312364
  112      C       9.3771106499     1.6486374581     2.6320953537
  113      H       9.9807807903     2.0234319075     3.4476638067
  114      C       8.2838756644     0.8474492371     2.9074947487
  115      H       8.0289134306     0.6015772503     3.9299584489
  116      C       6.4535315902    -1.4360692982     3.1117453035
  117      C       5.3829145489    -1.6295116464     3.9850423502
  118      H       4.5121334600    -0.9902964654     3.9194491774
  119      C       5.4417732776    -2.6352787633     4.9321906900
  120      H       4.6088256255    -2.7795459895     5.6070396603
  121      C       6.5623920766    -3.4495372380     5.0233441830
  122      H       6.6030337770    -4.2365627173     5.7640459162
  123      C       7.6287700387    -3.2520635139     4.1569099517
  124      H       8.4994930845    -3.8914050968     4.2141211780
  125      C       7.5796336216    -2.2531641074     3.2010600118
  126      H       8.4013982162    -2.1175933971     2.5099089160
  127      C       2.4452765796    -2.5059476102     0.0834743972
  128      H       2.6033530518    -3.2613715305     0.8575852026
  129      H       1.3780508906    -2.2785620541     0.0882177709
  130      C       3.1475718275     2.5110967125    -0.1203378059
  131      H       4.0198157356     3.1459820374    -0.2960990356
  132      H       2.6129814841     2.4495258181    -1.0704805323
  133      C       2.8306169400    -3.0821476231    -1.2781646110
  134      H       2.6322898474    -2.3690698940    -2.0771024292
  135      H       2.2519669316    -3.9819058439    -1.4892880615
  136      H       3.8879336922    -3.3480222298    -1.3149027678
  137      C       2.2389450944     3.1590166592     0.9223575290
  138      H       1.3270037753     2.5793138455     1.0624580227
  139      H       1.9461309065     4.1608286278     0.6077316046
  140      H       2.7383786026     3.2426418029     1.8884071617
 ----------------------------------------------------------------
