 Q-Chem 5.0, Q-Chem, Inc., Pleasanton, CA (2017)
 Q-Chem 5.0.1 for Intel X86 EM64T Linux

User input:
--------------------------------------------------------------
$rem
threads 8
jobtype	sp
method PBEh-3c
basis def2-mSVP
mem_static	1024
mem_total	8000
sym_ignore	true
unrestricted true
scf_convergence	9
solvent_method	pcm
$end

$molecule
read incoords.mol
$end

$solvent
dielectric	2.38
$end

$pcm
theory iefpcm
$end
--------------------------------------------------------------

   17   -3084.8002069604      4.72E-10 Convergence criterion met
 Total energy in the final basis set = -3084.80020696
 Total job time:  5137.93s(wall), 15302.33s(cpu)
        *  Thank you very much for using Q-Chem.  Have a nice day.  *
 Q-Chem 5.0, Q-Chem, Inc., Pleasanton, CA (2017)
 Q-Chem 5.0.1 for Intel X86 EM64T Linux

User input:
--------------------------------------------------------------

$rem
threads 8
jobtype opt
method PBEh-3c
basis def2-mSVP
scf_guess	read
mem_static      1024
mem_total       8000
sym_ignore      true
unrestricted true
mom_start       1
scf_algorithm	diis
scf_max_cycles	250
solvent_method	pcm
geom_opt_tol_energy 25
geom_opt_tol_gradient 75
$end

$solvent
dielectric      2.38
$end

$pcm
theory iefpcm
$end

$occupied
1 2 3 4 5 6 7 8 9 10 11 12 13 14 15 16 17 18 19 20 21 22 23 24 25 26 27 28 29 30 31 32 33 34 35 36 37 38 39 40 41 42 43 44 45 46 47 48 49 50 51 52 53 54 55 56 57 58 59 60 61 62 63 64 65 66 67 68 69 70 71 72 73 74 75 76 77 78 79 80 81 82 83 84 85 86 87 88 89 90 91 92 93 94 95 96 97 98 99 100 101 102 103 104 105 106 107 108 109 110 111 112 113 114 115 116 117 118 119 120 121 122 123 124 125 126 127 128 129 130 131 132 133 134 135 136 137 138 139 140 141 142 143 144 145 146 147 148 149 150 151 152 153 154 155 156 157 158 159 160 161 162 163 164 165 166 167 168 169 170 171 172 173 174 175 176 177 178 179 180 181 182 183 184 185 186 187 188 189 190 191 192 193 194 195 196 197 198 199 200 201 202 203 204 205 206 207 208 209 210 211 212 213 214 215 216 217 218 219 220 221 222 223 224 225 226 227 228 229 230 231 232 233 234 235 236 237 238 239 240 241 242 243 244 245 246 247 248 249 250 251 252 253 254 255 256 257 258 259 260 261 262 263 264 265 266 267 268 269  271
1 2 3 4 5 6 7 8 9 10 11 12 13 14 15 16 17 18 19 20 21 22 23 24 25 26 27 28 29 30 31 32 33 34 35 36 37 38 39 40 41 42 43 44 45 46 47 48 49 50 51 52 53 54 55 56 57 58 59 60 61 62 63 64 65 66 67 68 69 70 71 72 73 74 75 76 77 78 79 80 81 82 83 84 85 86 87 88 89 90 91 92 93 94 95 96 97 98 99 100 101 102 103 104 105 106 107 108 109 110 111 112 113 114 115 116 117 118 119 120 121 122 123 124 125 126 127 128 129 130 131 132 133 134 135 136 137 138 139 140 141 142 143 144 145 146 147 148 149 150 151 152 153 154 155 156 157 158 159 160 161 162 163 164 165 166 167 168 169 170 171 172 173 174 175 176 177 178 179 180 181 182 183 184 185 186 187 188 189 190 191 192 193 194 195 196 197 198 199 200 201 202 203 204 205 206 207 208 209 210 211 212 213 214 215 216 217 218 219 220 221 222 223 224 225 226 227 228 229 230 231 232 233 234 235 236 237 238 239 240 241 242 243 244 245 246 247 248 249 250 251 252 253 254 255 256 257 258 259 260 261 262 263 264 265 266 267 268 269 270
$end

$molecule
read
$end

--------------------------------------------------------------

   23   -3084.7138510822      9.14E-09 Convergence criterion met
 Total energy in the final basis set = -3084.71385108
   20   -3084.7178960793      6.22E-09 Convergence criterion met
 Total energy in the final basis set = -3084.71789608
   23   -3084.7174904159      6.50E-09 Convergence criterion met
 Total energy in the final basis set = -3084.71749042
   19   -3084.7217122466      7.83E-09 Convergence criterion met
 Total energy in the final basis set = -3084.72171225
   17   -3084.7939877061      6.06E-09 Convergence criterion met
 Total energy in the final basis set = -3084.79398771
   12   -3084.7970777094      8.25E-09 Convergence criterion met
 Total energy in the final basis set = -3084.79707771
   13   -3084.7988756619      5.11E-09 Convergence criterion met
 Total energy in the final basis set = -3084.79887566
   13   -3084.7986028872      5.75E-09 Convergence criterion met
 Total energy in the final basis set = -3084.79860289
   12   -3084.7999039274      8.46E-09 Convergence criterion met
 Total energy in the final basis set = -3084.79990393
   12   -3084.7998864473      6.41E-09 Convergence criterion met
 Total energy in the final basis set = -3084.79988645
   12   -3084.8000136647      6.13E-09 Convergence criterion met
 Total energy in the final basis set = -3084.80001366
   12   -3084.7999928882      6.35E-09 Convergence criterion met
 Total energy in the final basis set = -3084.79999289

                    Orbital Energies (a.u.)
 --------------------------------------------------------------

 Alpha MOs
 -- Occupied --
-14.670 -14.669 -10.490 -10.490 -10.490 -10.490 -10.485 -10.484
-10.464 -10.464 -10.464 -10.464 -10.464 -10.464 -10.463 -10.463
-10.462 -10.462 -10.462 -10.462 -10.461 -10.461 -10.461 -10.460
-10.459 -10.459 -10.458 -10.458 -10.458 -10.458 -10.454 -10.454
-10.452 -10.452 -10.450 -10.450 -10.450 -10.450 -10.448 -10.448
-10.448 -10.448 -10.448 -10.448 -10.447 -10.447 -10.446 -10.446
-10.445 -10.445 -10.445 -10.445 -10.445 -10.444 -10.444 -10.444
-10.443 -10.443 -10.443 -10.442 -10.435 -10.435 -10.434 -10.434
-10.434 -10.434 -10.434 -10.433 -10.433 -10.433 -10.433 -10.432
-10.421 -10.420 -10.420 -10.419 -10.418 -10.418  -6.949  -6.949
 -1.080  -1.079  -1.016  -1.016  -0.964  -0.961  -0.960  -0.960
 -0.959  -0.959  -0.940  -0.940  -0.932  -0.932  -0.909  -0.900
 -0.889  -0.887  -0.868  -0.866  -0.854  -0.854  -0.851  -0.851
 -0.846  -0.846  -0.840  -0.840  -0.837  -0.837  -0.824  -0.822
 -0.820  -0.813  -0.812  -0.804  -0.800  -0.799  -0.791  -0.790
 -0.734  -0.730  -0.726  -0.720  -0.717  -0.716  -0.710  -0.710
 -0.699  -0.698  -0.698  -0.698  -0.688  -0.681  -0.681  -0.680
 -0.679  -0.673  -0.667  -0.665  -0.649  -0.647  -0.638  -0.636
 -0.631  -0.630  -0.605  -0.605  -0.595  -0.594  -0.591  -0.588
 -0.586  -0.585  -0.582  -0.575  -0.573  -0.562  -0.561  -0.555
 -0.554  -0.544  -0.543  -0.542  -0.542  -0.537  -0.527  -0.524
 -0.523  -0.523  -0.516  -0.512  -0.510  -0.507  -0.502  -0.502
 -0.501  -0.499  -0.497  -0.497  -0.496  -0.496  -0.494  -0.490
 -0.488  -0.487  -0.485  -0.484  -0.484  -0.483  -0.483  -0.482
 -0.481  -0.481  -0.477  -0.477  -0.475  -0.468  -0.466  -0.466
 -0.462  -0.455  -0.453  -0.450  -0.442  -0.439  -0.436  -0.435
 -0.434  -0.434  -0.431  -0.428  -0.428  -0.426  -0.426  -0.425
 -0.423  -0.421  -0.420  -0.417  -0.412  -0.411  -0.406  -0.406
 -0.405  -0.403  -0.399  -0.398  -0.397  -0.397  -0.396  -0.395
 -0.394  -0.393  -0.392  -0.391  -0.390  -0.387  -0.386  -0.384
 -0.379  -0.372  -0.368  -0.365  -0.356  -0.356  -0.352  -0.350
 -0.343  -0.339  -0.318  -0.313  -0.305  -0.304  -0.299  -0.299
 -0.296  -0.295  -0.295  -0.294  -0.287  -0.284  -0.280  -0.274
 -0.274  -0.261  -0.257  -0.255  -0.221  -0.220

 Beta MOs
 -- Occupied --
-14.670 -14.669 -10.490 -10.490 -10.490 -10.490 -10.485 -10.484
-10.464 -10.464 -10.464 -10.464 -10.464 -10.464 -10.463 -10.463
-10.462 -10.462 -10.462 -10.462 -10.461 -10.461 -10.461 -10.460
-10.459 -10.459 -10.458 -10.458 -10.458 -10.458 -10.454 -10.454
-10.452 -10.452 -10.450 -10.450 -10.450 -10.450 -10.448 -10.448
-10.448 -10.448 -10.448 -10.448 -10.447 -10.447 -10.446 -10.446
-10.445 -10.445 -10.445 -10.445 -10.445 -10.444 -10.444 -10.444
-10.443 -10.443 -10.443 -10.442 -10.435 -10.435 -10.434 -10.434
-10.434 -10.434 -10.434 -10.433 -10.433 -10.433 -10.433 -10.432
-10.421 -10.420 -10.420 -10.419 -10.418 -10.418  -6.949  -6.949
 -1.080  -1.079  -1.016  -1.016  -0.964  -0.961  -0.960  -0.960
 -0.959  -0.959  -0.940  -0.940  -0.932  -0.932  -0.909  -0.900
 -0.889  -0.887  -0.868  -0.866  -0.854  -0.854  -0.851  -0.851
 -0.846  -0.846  -0.840  -0.840  -0.837  -0.837  -0.824  -0.822
 -0.820  -0.813  -0.812  -0.804  -0.800  -0.799  -0.791  -0.790
 -0.734  -0.730  -0.726  -0.720  -0.717  -0.716  -0.710  -0.710
 -0.699  -0.698  -0.698  -0.698  -0.688  -0.681  -0.681  -0.680
 -0.679  -0.673  -0.667  -0.665  -0.649  -0.647  -0.638  -0.636
 -0.631  -0.630  -0.605  -0.605  -0.595  -0.594  -0.591  -0.588
 -0.586  -0.585  -0.582  -0.575  -0.573  -0.562  -0.561  -0.555
 -0.554  -0.544  -0.543  -0.542  -0.542  -0.537  -0.527  -0.524
 -0.523  -0.523  -0.516  -0.512  -0.510  -0.507  -0.502  -0.502
 -0.501  -0.499  -0.497  -0.497  -0.496  -0.496  -0.494  -0.490
 -0.488  -0.487  -0.485  -0.484  -0.484  -0.483  -0.483  -0.482
 -0.481  -0.481  -0.477  -0.477  -0.475  -0.468  -0.466  -0.466
 -0.462  -0.455  -0.453  -0.450  -0.442  -0.439  -0.436  -0.435
 -0.434  -0.434  -0.431  -0.428  -0.428  -0.426  -0.426  -0.425
 -0.423  -0.421  -0.420  -0.417  -0.412  -0.411  -0.406  -0.406
 -0.405  -0.403  -0.399  -0.398  -0.397  -0.397  -0.396  -0.395
 -0.394  -0.393  -0.392  -0.391  -0.390  -0.387  -0.386  -0.384
 -0.379  -0.372  -0.368  -0.365  -0.356  -0.356  -0.352  -0.350
 -0.343  -0.339  -0.318  -0.313  -0.305  -0.304  -0.299  -0.299
 -0.296  -0.295  -0.295  -0.294  -0.287  -0.284  -0.280  -0.274
 -0.274  -0.261  -0.257  -0.255  -0.221  -0.220

          Ground-State Mulliken Net Atomic Charges

     Atom                 Charge (a.u.)    Spin (a.u.)
  --------------------------------------------------------
      1 C                    -0.151202      -0.000000
      2 C                    -0.398753      -0.000000
      3 H                     0.241858       0.000000
      4 C                     0.103960       0.000000
      5 C                     0.078024       0.000000
      6 C                    -0.386232      -0.000000
      7 H                     0.237208       0.000000
      8 C                    -0.154646      -0.000000
      9 C                     0.188439      -0.000000
     10 C                    -0.393362       0.000000
     11 H                     0.235170      -0.000000
     12 C                    -0.064884       0.000000
     13 C                     0.238205      -0.000000
     14 C                     0.186953      -0.000000
     15 C                    -0.382845       0.000000
     16 H                     0.234472      -0.000000
     17 C                    -0.217872      -0.000000
     18 H                     0.242118       0.000000
     19 C                    -0.345155       0.000000
     20 H                     0.238057      -0.000000
     21 C                    -0.340556       0.000000
     22 H                     0.237632      -0.000000
     23 C                    -0.220903      -0.000000
     24 H                     0.242526       0.000000
     25 B                     0.652677      -0.000000
     26 C                    -0.153137      -0.000000
     27 C                    -0.392885      -0.000000
     28 H                     0.238861       0.000000
     29 C                     0.104199       0.000000
     30 C                     0.076799       0.000000
     31 C                    -0.387770      -0.000000
     32 H                     0.238682       0.000000
     33 C                    -0.151371      -0.000000
     34 C                     0.190898      -0.000000
     35 C                    -0.392780       0.000000
     36 H                     0.234499      -0.000000
     37 C                    -0.065472       0.000000
     38 C                     0.236098      -0.000000
     39 C                     0.189115      -0.000000
     40 C                    -0.383930       0.000000
     41 H                     0.235907      -0.000000
     42 C                    -0.217791      -0.000000
     43 H                     0.241759       0.000000
     44 C                    -0.344344       0.000000
     45 H                     0.238151      -0.000000
     46 C                    -0.339566       0.000000
     47 H                     0.237713      -0.000000
     48 C                    -0.221020      -0.000000
     49 H                     0.242962       0.000000
     50 B                     0.655790      -0.000000
     51 C                    -0.231059       0.000000
     52 C                     0.079338      -0.000000
     53 C                    -0.356378      -0.000000
     54 H                     0.241596      -0.000000
     55 C                     0.313045       0.000000
     56 C                    -0.368926      -0.000000
     57 H                     0.243039      -0.000000
     58 C                     0.064843      -0.000000
     59 N                    -0.672732      -0.000000
     60 C                     0.286687      -0.000000
     61 C                    -0.284157       0.000000
     62 H                     0.253919      -0.000000
     63 C                    -0.228910      -0.000000
     64 H                     0.235732       0.000000
     65 C                    -0.252185       0.000000
     66 H                     0.232802      -0.000000
     67 C                    -0.229405      -0.000000
     68 H                     0.234396       0.000000
     69 C                    -0.284731       0.000000
     70 H                     0.250754      -0.000000
     71 C                     0.286689      -0.000000
     72 C                    -0.287057       0.000000
     73 H                     0.254041      -0.000000
     74 C                    -0.228708      -0.000000
     75 H                     0.235673       0.000000
     76 C                    -0.251966       0.000000
     77 H                     0.232906      -0.000000
     78 C                    -0.229355      -0.000000
     79 H                     0.235535       0.000000
     80 C                    -0.281890       0.000000
     81 H                     0.251326      -0.000000
     82 C                    -0.557377      -0.000000
     83 H                     0.239439       0.000000
     84 H                     0.260128       0.000000
     85 C                    -0.546433      -0.000000
     86 H                     0.236353       0.000000
     87 H                     0.251697       0.000000
     88 C                    -0.648235      -0.000000
     89 H                     0.232370       0.000000
     90 H                     0.225223       0.000000
     91 H                     0.220526      -0.000000
     92 C                    -0.649267      -0.000000
     93 H                     0.239189       0.000000
     94 H                     0.221181      -0.000000
     95 H                     0.222336       0.000000
     96 C                    -0.217781       0.000000
     97 C                     0.080899       0.000000
     98 C                    -0.362908      -0.000000
     99 H                     0.240786       0.000000
    100 C                     0.311190       0.000000
    101 C                    -0.369804      -0.000000
    102 H                     0.242351       0.000000
    103 C                     0.067481       0.000000
    104 N                    -0.673696      -0.000000
    105 C                     0.298799       0.000000
    106 C                    -0.289357      -0.000000
    107 H                     0.252002       0.000000
    108 C                    -0.228292       0.000000
    109 H                     0.232947      -0.000000
    110 C                    -0.253357      -0.000000
    111 H                     0.232076       0.000000
    112 C                    -0.228705       0.000000
    113 H                     0.235259      -0.000000
    114 C                    -0.289747      -0.000000
    115 H                     0.253377       0.000000
    116 C                     0.283065       0.000000
    117 C                    -0.279647      -0.000000
    118 H                     0.250380       0.000000
    119 C                    -0.228815       0.000000
    120 H                     0.234752      -0.000000
    121 C                    -0.251527      -0.000000
    122 H                     0.233061       0.000000
    123 C                    -0.229901       0.000000
    124 H                     0.235898      -0.000000
    125 C                    -0.284004      -0.000000
    126 H                     0.253611       0.000000
    127 C                    -0.560629      -0.000000
    128 H                     0.240394       0.000000
    129 H                     0.259415       0.000000
    130 C                    -0.548147      -0.000000
    131 H                     0.236845       0.000000
    132 H                     0.250827       0.000000
    133 C                    -0.652542      -0.000000
    134 H                     0.244839       0.000000
    135 H                     0.221874       0.000000
    136 H                     0.220733      -0.000000
    137 C                    -0.651511      -0.000000
    138 H                     0.238918       0.000000
    139 H                     0.225221       0.000000
    140 H                     0.219120      -0.000000
  --------------------------------------------------------
  Sum of atomic charges =    -0.000000

                    Cartesian Multipole Moments
 -----------------------------------------------------------------
    Charge (ESU x 10^10)
                -0.0000
    Dipole Moment (Debye)
         X      -0.3156      Y       0.0230      Z      -0.0766
       Tot       0.3256
    Quadrupole Moments (Debye-Ang)
        XX    -412.2306     XY       1.9446     YY    -459.3959
        XZ     -14.2165     YZ      -1.9502     ZZ    -399.7402

             Standard Nuclear Orientation (Angstroms)
    I     Atom           X                Y                Z
 ----------------------------------------------------------------
    1      C       0.0405445116     0.3144577576     0.1149795214
    2      C       0.0329220869     0.3405031351     1.5154673369
    3      H       0.9728279269     0.3478736880     2.0564341262
    4      C      -1.1699688529     0.3515484599     2.2023358399
    5      C      -2.3842225725     0.3109567450     1.4810323953
    6      C      -2.3879288158     0.2600833578     0.1009804858
    7      H      -3.3258104175     0.2043278375    -0.4410864597
    8      C      -1.1812031654     0.2720845089    -0.5985460534
    9      C      -1.5020895909     0.3902018931     3.6308516874
   10      C      -0.7929681260     0.4401656042     4.8014931210
   11      H       0.2895738242     0.4603974393     4.8150991553
   12      C      -2.9090519696     0.3690618757     3.7078281496
   13      C      -3.6405072757     0.3931338026     4.8893235288
   14      C      -3.4920181027     0.3197751475     2.4293213597
   15      C      -4.8577009844     0.2905954288     2.3191451060
   16      H      -5.3542654875     0.2508021335     1.3570719362
   17      C      -1.5080812766     0.4669685389     6.0241613588
   18      H      -0.9452091910     0.5073439317     6.9474132860
   19      C      -2.8824292948     0.4443942234     6.0833012903
   20      H      -3.3822041560     0.4663341936     7.0438955653
   21      C      -5.0508379455     0.3629731426     4.7542859004
   22      H      -5.6795782399     0.3789583731     5.6361337884
   23      C      -5.6273187063     0.3127081188     3.5056829406
   24      H      -6.7063563609     0.2892517268     3.4243012414
   25      B       1.3850657628     0.3007074901    -0.6704538953
   26      C       1.3789586931     0.4369385202    -2.2216227330
   27      C       2.5827030130     0.5477724974    -2.9291335041
   28      H       3.5232013915     0.5677844234    -2.3900604772
   29      C       2.5706169638     0.6215154045    -4.3103608744
   30      C       1.3409001543     0.5466623026    -5.0031148913
   31      C       0.1512949289     0.4078973724    -4.3186536427
   32      H      -0.7833873641     0.3242448873    -4.8624837438
   33      C       0.1524402376     0.3692312927    -2.9235741333
   34      C       3.6382544084     0.7524183921    -5.3093256235
   35      C       5.0028789825     0.8723460235    -5.2799094070
   36      H       5.5566465127     0.8856202456    -4.3495122672
   37      C       3.0009291083     0.7485187893    -6.5659711969
   38      C       3.6562344272     0.8561071451    -7.7884340673
   39      C       1.6064922528     0.6246610682    -6.4367660407
   40      C       0.8329021312     0.6056746511    -7.5687392040
   41      H      -0.2455746150     0.5131233132    -7.5245727044
   42      C       5.7006593478     0.9830986742    -6.5079591339
   43      H       6.7782967158     1.0773578589    -6.4800466528
   44      C       5.0646658614     0.9768113349    -7.7277351500
   45      H       5.6422418321     1.0652268398    -8.6398234229
   46      C       2.8387250313     0.8342796350    -8.9454729643
   47      H       3.2885422408     0.9138715693    -9.9277170259
   48      C       1.4737171359     0.7120314726    -8.8256871140
   49      H       0.8650708380     0.6970055603    -9.7206184594
   50      B      -1.1861036646     0.1989625636    -2.1524824924
   51      C      -2.5210738584    -0.1002047966    -2.9288836424
   52      C      -3.2786757544     0.9045716044    -3.5453924716
   53      C      -4.4464640342     0.5866441224    -4.2268389527
   54      H      -5.0110031099     1.3756402218    -4.7112163357
   55      C      -4.9104738003    -0.7234551661    -4.2805032524
   56      C      -4.1633263183    -1.7218935234    -3.6650207113
   57      H      -4.5100160550    -2.7489989238    -3.6942423110
   58      C      -2.9751129168    -1.4249519333    -3.0133109560
   59      N      -6.1167889794    -1.0271132909    -4.9356091327
   60      C      -7.2356109313    -0.1915545605    -4.7731795077
   61      C      -8.0721944076     0.0686445634    -5.8579921833
   62      H      -7.8445288874    -0.3598537494    -6.8257251351
   63      C      -9.1923266684     0.8677436506    -5.7010249536
   64      H      -9.8323890521     1.0576428687    -6.5531186721
   65      C      -9.4867879992     1.4357282318    -4.4691588821
   66      H     -10.3590497673     2.0647767206    -4.3511822227
   67      C      -8.6495019277     1.1866896303    -3.3909343280
   68      H      -8.8707576432     1.6164519161    -2.4224146874
   69      C      -7.5373729987     0.3721034671    -3.5340717323
   70      H      -6.9018646388     0.1684383127    -2.6818266381
   71      C      -6.2630557061    -2.2438921898    -5.6259755265
   72      C      -7.4038299649    -3.0260433491    -5.4483628781
   73      H      -8.1818802986    -2.6991526895    -4.7704941163
   74      C      -7.5464472041    -4.2204076712    -6.1361560077
   75      H      -8.4390347401    -4.8146038587    -5.9873723905
   76      C      -6.5507336121    -4.6648286046    -6.9941783702
   77      H      -6.6623337389    -5.6017281689    -7.5236288177
   78      C      -5.4097758303    -3.8928407027    -7.1647421074
   79      H      -4.6268583187    -4.2228811053    -7.8354256409
   80      C      -5.2676331822    -2.6875317055    -6.4962094657
   81      H      -4.3798866978    -2.0864572428    -6.6462941563
   82      C      -2.1640172990    -2.5684156771    -2.4600973278
   83      H      -2.8342077504    -3.3317339377    -2.0564190105
   84      H      -1.5489377530    -2.2386105851    -1.6186436241
   85      C      -2.8900718866     2.3562339759    -3.4415036823
   86      H      -3.0784379860     2.8561731542    -4.3953524623
   87      H      -1.8177071421     2.4571441447    -3.2563701728
   88      C      -3.6670592801     3.0718621300    -2.3381747548
   89      H      -3.4745293148     2.6211514499    -1.3638925633
   90      H      -3.3860416725     4.1237343013    -2.2787609046
   91      H      -4.7412299601     3.0211725210    -2.5220665161
   92      C      -1.2709457831    -3.1954423107    -3.5290454222
   93      H      -0.5678673856    -2.4659347366    -3.9324378653
   94      H      -1.8660188861    -3.5785230051    -4.3590336684
   95      H      -0.6928832292    -4.0245101831    -3.1189729695
   96      C       2.7369716781     0.0665857565     0.0826717246
   97      C       3.6210686315     1.1133775067     0.3724906480
   98      C       4.8155296552     0.8558455598     1.0345172200
   99      H       5.4808906042     1.6772630274     1.2756228853
  100      C       5.1671582492    -0.4428093152     1.3862496585
  101      C       4.2981442372    -1.4835513718     1.0783587589
  102      H       4.5696694806    -2.5012657320     1.3350918110
  103      C       3.0862245728    -1.2418089728     0.4477522432
  104      N       6.3792789287    -0.7096814993     2.0492246317
  105      C       7.5676877587    -0.0977682533     1.6236010779
  106      C       7.8169901592     0.0946426806     0.2643993628
  107      H       7.0916652835    -0.2384161405    -0.4669825333
  108      C       8.9849675005     0.7118930590    -0.1513118930
  109      H       9.1607072119     0.8551276961    -1.2099206539
  110      C       9.9330412966     1.1276289708     0.7730848065
  111      H      10.8472503599     1.6031708053     0.4437159891
  112      C       9.6923149210     0.9256116019     2.1249505032
  113      H      10.4180563937     1.2500872472     2.8595371077
  114      C       8.5174523537     0.3277449605     2.5517636923
  115      H       8.3321483691     0.1924838390     3.6097478370
  116      C       6.4034353077    -1.6685674879     3.0760246566
  117      C       5.4076200440    -1.6789901452     4.0522602325
  118      H       4.6232166838    -0.9330972765     4.0266946749
  119      C       5.4102482356    -2.6466961656     5.0430966708
  120      H       4.6264502416    -2.6437753785     5.7897545230
  121      C       6.4134255886    -3.6049354727     5.0912638212
  122      H       6.4154894053    -4.3564937992     5.8695160035
  123      C       7.4115093950    -3.5891158391     4.1274902564
  124      H       8.1953420289    -4.3354687645     4.1456485719
  125      C       7.4046857151    -2.6371476362     3.1204429600
  126      H       8.1764990000    -2.6489295777     2.3612079921
  127      C       2.2026585766    -2.4159528996     0.1013461744
  128      H       2.3421850607    -3.2040901521     0.8452746711
  129      H       1.1486258864    -2.1325265140     0.1671927711
  130      C       3.2611890535     2.5391808863     0.0377547672
  131      H       4.1727836601     3.1095802132    -0.1562796034
  132      H       2.6825891066     2.5754119238    -0.8895669710
  133      C       2.4825343356    -2.9878551699    -1.2882761817
  134      H       2.3093956732    -2.2480103070    -2.0695559587
  135      H       1.8329454603    -3.8401823762    -1.4936007274
  136      H       3.5156891063    -3.3262459256    -1.3749108586
  137      C       2.4649829352     3.2230919803     1.1471893802
  138      H       1.5164007918     2.7161442334     1.3246991952
  139      H       2.2405297082     4.2573024592     0.8842025939
  140      H       3.0212663758     3.2274664353     2.0851840886
 ----------------------------------------------------------------
