 Q-Chem 5.0, Q-Chem, Inc., Pleasanton, CA (2017)
 Q-Chem 5.0.1 for Intel X86 EM64T Linux

User input:
--------------------------------------------------------------
$rem
threads 8
jobtype	sp
method PBEh-3c
basis def2-mSVP
mem_static	1024
mem_total	8000
sym_ignore	true
unrestricted true
scf_convergence	9
solvent_method	pcm
$end

$molecule
read incoords.mol
$end

$solvent
dielectric	2.38
$end

$pcm
theory iefpcm
$end
--------------------------------------------------------------

   17   -3084.7927038821      5.69E-10 Convergence criterion met
 Total energy in the final basis set = -3084.79270388
 Total job time:  3938.85s(wall), 12693.77s(cpu)
        *  Thank you very much for using Q-Chem.  Have a nice day.  *
 Q-Chem 5.0, Q-Chem, Inc., Pleasanton, CA (2017)
 Q-Chem 5.0.1 for Intel X86 EM64T Linux

User input:
--------------------------------------------------------------

$rem
threads 8
jobtype opt
method PBEh-3c
basis def2-mSVP
scf_guess	read
mem_static      1024
mem_total       8000
sym_ignore      true
unrestricted true
mom_start       1
scf_algorithm	diis
scf_max_cycles	250
solvent_method	pcm
geom_opt_tol_energy 25
geom_opt_tol_gradient 75
$end

$solvent
dielectric      2.38
$end

$pcm
theory iefpcm
$end

$occupied
1 2 3 4 5 6 7 8 9 10 11 12 13 14 15 16 17 18 19 20 21 22 23 24 25 26 27 28 29 30 31 32 33 34 35 36 37 38 39 40 41 42 43 44 45 46 47 48 49 50 51 52 53 54 55 56 57 58 59 60 61 62 63 64 65 66 67 68 69 70 71 72 73 74 75 76 77 78 79 80 81 82 83 84 85 86 87 88 89 90 91 92 93 94 95 96 97 98 99 100 101 102 103 104 105 106 107 108 109 110 111 112 113 114 115 116 117 118 119 120 121 122 123 124 125 126 127 128 129 130 131 132 133 134 135 136 137 138 139 140 141 142 143 144 145 146 147 148 149 150 151 152 153 154 155 156 157 158 159 160 161 162 163 164 165 166 167 168 169 170 171 172 173 174 175 176 177 178 179 180 181 182 183 184 185 186 187 188 189 190 191 192 193 194 195 196 197 198 199 200 201 202 203 204 205 206 207 208 209 210 211 212 213 214 215 216 217 218 219 220 221 222 223 224 225 226 227 228 229 230 231 232 233 234 235 236 237 238 239 240 241 242 243 244 245 246 247 248 249 250 251 252 253 254 255 256 257 258 259 260 261 262 263 264 265 266 267 268 269  271
1 2 3 4 5 6 7 8 9 10 11 12 13 14 15 16 17 18 19 20 21 22 23 24 25 26 27 28 29 30 31 32 33 34 35 36 37 38 39 40 41 42 43 44 45 46 47 48 49 50 51 52 53 54 55 56 57 58 59 60 61 62 63 64 65 66 67 68 69 70 71 72 73 74 75 76 77 78 79 80 81 82 83 84 85 86 87 88 89 90 91 92 93 94 95 96 97 98 99 100 101 102 103 104 105 106 107 108 109 110 111 112 113 114 115 116 117 118 119 120 121 122 123 124 125 126 127 128 129 130 131 132 133 134 135 136 137 138 139 140 141 142 143 144 145 146 147 148 149 150 151 152 153 154 155 156 157 158 159 160 161 162 163 164 165 166 167 168 169 170 171 172 173 174 175 176 177 178 179 180 181 182 183 184 185 186 187 188 189 190 191 192 193 194 195 196 197 198 199 200 201 202 203 204 205 206 207 208 209 210 211 212 213 214 215 216 217 218 219 220 221 222 223 224 225 226 227 228 229 230 231 232 233 234 235 236 237 238 239 240 241 242 243 244 245 246 247 248 249 250 251 252 253 254 255 256 257 258 259 260 261 262 263 264 265 266 267 268 269 270
$end

$molecule
read
$end

--------------------------------------------------------------

   20   -3084.7242848884      8.96E-09 Convergence criterion met
 Total energy in the final basis set = -3084.72428489
   18   -3084.7250399551      6.64E-09 Convergence criterion met
 Total energy in the final basis set = -3084.72503996
   18   -3084.7245496518      6.44E-09 Convergence criterion met
 Total energy in the final basis set = -3084.72454965
   17   -3084.7926628407      5.98E-09 Convergence criterion met
 Total energy in the final basis set = -3084.79266284
   12   -3084.7930541492      8.46E-09 Convergence criterion met
 Total energy in the final basis set = -3084.79305415
   12   -3084.7949146112      7.00E-09 Convergence criterion met
 Total energy in the final basis set = -3084.79491461

                    Orbital Energies (a.u.)
 --------------------------------------------------------------

 Alpha MOs
 -- Occupied --
-14.670 -14.669 -10.491 -10.490 -10.490 -10.490 -10.485 -10.483
-10.465 -10.465 -10.464 -10.464 -10.464 -10.464 -10.463 -10.463
-10.463 -10.462 -10.462 -10.461 -10.461 -10.461 -10.461 -10.460
-10.460 -10.460 -10.458 -10.458 -10.458 -10.458 -10.455 -10.453
-10.453 -10.452 -10.451 -10.451 -10.449 -10.449 -10.449 -10.449
-10.448 -10.447 -10.447 -10.447 -10.447 -10.447 -10.447 -10.446
-10.446 -10.446 -10.446 -10.446 -10.445 -10.444 -10.443 -10.443
-10.442 -10.442 -10.441 -10.439 -10.437 -10.436 -10.435 -10.435
-10.434 -10.433 -10.433 -10.432 -10.432 -10.430 -10.430 -10.429
-10.424 -10.419 -10.419 -10.419 -10.418 -10.417  -6.948  -6.944
 -1.083  -1.081  -1.016  -1.015  -0.964  -0.962  -0.960  -0.959
 -0.959  -0.958  -0.940  -0.939  -0.933  -0.933  -0.908  -0.899
 -0.888  -0.888  -0.868  -0.865  -0.855  -0.854  -0.851  -0.851
 -0.846  -0.846  -0.842  -0.840  -0.839  -0.835  -0.825  -0.822
 -0.820  -0.813  -0.811  -0.804  -0.801  -0.798  -0.791  -0.787
 -0.735  -0.731  -0.727  -0.720  -0.716  -0.715  -0.712  -0.710
 -0.699  -0.699  -0.698  -0.696  -0.689  -0.684  -0.681  -0.679
 -0.678  -0.675  -0.668  -0.666  -0.648  -0.645  -0.637  -0.636
 -0.631  -0.628  -0.606  -0.603  -0.596  -0.594  -0.591  -0.588
 -0.586  -0.585  -0.582  -0.575  -0.575  -0.562  -0.561  -0.555
 -0.553  -0.544  -0.543  -0.542  -0.541  -0.536  -0.527  -0.525
 -0.524  -0.521  -0.516  -0.513  -0.510  -0.507  -0.503  -0.502
 -0.501  -0.498  -0.497  -0.496  -0.496  -0.494  -0.493  -0.489
 -0.488  -0.487  -0.487  -0.485  -0.484  -0.484  -0.483  -0.483
 -0.481  -0.480  -0.477  -0.476  -0.475  -0.468  -0.466  -0.464
 -0.461  -0.455  -0.454  -0.450  -0.442  -0.440  -0.437  -0.435
 -0.434  -0.434  -0.430  -0.428  -0.427  -0.426  -0.426  -0.425
 -0.424  -0.421  -0.420  -0.416  -0.413  -0.410  -0.407  -0.405
 -0.403  -0.402  -0.399  -0.399  -0.398  -0.397  -0.396  -0.395
 -0.395  -0.393  -0.393  -0.391  -0.390  -0.387  -0.386  -0.383
 -0.379  -0.373  -0.367  -0.362  -0.357  -0.355  -0.353  -0.349
 -0.344  -0.337  -0.319  -0.314  -0.307  -0.301  -0.300  -0.299
 -0.297  -0.296  -0.295  -0.294  -0.286  -0.283  -0.280  -0.275
 -0.273  -0.261  -0.256  -0.255  -0.221  -0.216

 Beta MOs
 -- Occupied --
-14.670 -14.669 -10.491 -10.490 -10.490 -10.490 -10.485 -10.483
-10.465 -10.465 -10.464 -10.464 -10.464 -10.464 -10.463 -10.463
-10.463 -10.462 -10.462 -10.461 -10.461 -10.461 -10.461 -10.460
-10.460 -10.460 -10.458 -10.458 -10.458 -10.458 -10.455 -10.453
-10.453 -10.452 -10.451 -10.451 -10.449 -10.449 -10.449 -10.449
-10.448 -10.447 -10.447 -10.447 -10.447 -10.447 -10.447 -10.446
-10.446 -10.446 -10.446 -10.446 -10.445 -10.444 -10.443 -10.443
-10.442 -10.442 -10.441 -10.439 -10.437 -10.436 -10.435 -10.435
-10.434 -10.433 -10.433 -10.432 -10.432 -10.430 -10.430 -10.429
-10.424 -10.419 -10.419 -10.419 -10.418 -10.417  -6.948  -6.944
 -1.083  -1.081  -1.016  -1.015  -0.964  -0.962  -0.960  -0.959
 -0.959  -0.958  -0.940  -0.939  -0.933  -0.933  -0.908  -0.899
 -0.888  -0.888  -0.868  -0.865  -0.855  -0.854  -0.851  -0.851
 -0.846  -0.846  -0.842  -0.840  -0.839  -0.835  -0.825  -0.822
 -0.820  -0.813  -0.811  -0.804  -0.801  -0.798  -0.791  -0.787
 -0.735  -0.731  -0.727  -0.720  -0.716  -0.715  -0.712  -0.710
 -0.699  -0.699  -0.698  -0.696  -0.689  -0.684  -0.681  -0.679
 -0.678  -0.675  -0.668  -0.666  -0.648  -0.645  -0.637  -0.636
 -0.631  -0.628  -0.606  -0.603  -0.596  -0.594  -0.591  -0.588
 -0.586  -0.585  -0.582  -0.575  -0.575  -0.562  -0.561  -0.555
 -0.553  -0.544  -0.543  -0.542  -0.541  -0.536  -0.527  -0.525
 -0.524  -0.521  -0.516  -0.513  -0.510  -0.507  -0.503  -0.502
 -0.501  -0.498  -0.497  -0.496  -0.496  -0.494  -0.493  -0.489
 -0.488  -0.487  -0.487  -0.485  -0.484  -0.484  -0.483  -0.483
 -0.481  -0.480  -0.477  -0.476  -0.475  -0.468  -0.466  -0.464
 -0.461  -0.455  -0.454  -0.450  -0.442  -0.440  -0.437  -0.435
 -0.434  -0.434  -0.430  -0.428  -0.427  -0.426  -0.426  -0.425
 -0.424  -0.421  -0.420  -0.416  -0.413  -0.410  -0.407  -0.405
 -0.403  -0.402  -0.399  -0.399  -0.398  -0.397  -0.396  -0.395
 -0.395  -0.393  -0.393  -0.391  -0.390  -0.387  -0.386  -0.383
 -0.379  -0.373  -0.367  -0.362  -0.357  -0.355  -0.353  -0.349
 -0.344  -0.337  -0.319  -0.314  -0.307  -0.301  -0.300  -0.299
 -0.297  -0.296  -0.295  -0.294  -0.286  -0.283  -0.280  -0.275
 -0.273  -0.261  -0.256  -0.254  -0.221  -0.216

          Ground-State Mulliken Net Atomic Charges

     Atom                 Charge (a.u.)    Spin (a.u.)
  --------------------------------------------------------
      1 C                    -0.146755       0.000025
      2 C                    -0.398792      -0.000069
      3 H                     0.241198       0.000005
      4 C                     0.107134       0.000083
      5 C                     0.087243      -0.000021
      6 C                    -0.393220       0.000030
      7 H                     0.239819      -0.000002
      8 C                    -0.147709      -0.000074
      9 C                     0.187169      -0.000276
     10 C                    -0.383586       0.000295
     11 H                     0.236343      -0.000021
     12 C                    -0.065351       0.000259
     13 C                     0.238260      -0.000266
     14 C                     0.187197      -0.000321
     15 C                    -0.391813       0.000336
     16 H                     0.235537      -0.000024
     17 C                    -0.219957      -0.000307
     18 H                     0.243055       0.000020
     19 C                    -0.339876       0.000336
     20 H                     0.238316      -0.000023
     21 C                    -0.217407      -0.000337
     22 H                     0.242323       0.000022
     23 C                    -0.343862       0.000373
     24 H                     0.238677      -0.000027
     25 B                     0.642927      -0.000026
     26 C                    -0.153158      -0.000082
     27 C                    -0.389711       0.000032
     28 H                     0.237714      -0.000002
     29 C                     0.084857      -0.000023
     30 C                     0.107595       0.000093
     31 C                    -0.395159      -0.000079
     32 H                     0.237621       0.000006
     33 C                    -0.155780       0.000030
     34 C                     0.191225      -0.000292
     35 C                    -0.383230       0.000311
     36 H                     0.236575      -0.000022
     37 C                    -0.068173       0.000274
     38 C                     0.237155      -0.000281
     39 C                     0.191107      -0.000342
     40 C                    -0.390507       0.000357
     41 H                     0.233742      -0.000026
     42 C                    -0.220483      -0.000325
     43 H                     0.242820       0.000022
     44 C                    -0.340065       0.000355
     45 H                     0.237740      -0.000025
     46 C                    -0.217644      -0.000358
     47 H                     0.241275       0.000024
     48 C                    -0.344101       0.000397
     49 H                     0.238200      -0.000028
     50 B                     0.650416      -0.000005
     51 C                    -0.217085      -0.000003
     52 C                     0.059950       0.000004
     53 C                    -0.346318      -0.000004
     54 H                     0.239124       0.000000
     55 C                     0.272425       0.000003
     56 C                    -0.342996      -0.000004
     57 H                     0.238930       0.000000
     58 C                     0.073023       0.000003
     59 N                    -0.673062      -0.000000
     60 C                     0.316920      -0.000000
     61 C                    -0.302588       0.000001
     62 H                     0.257411      -0.000000
     63 C                    -0.227099      -0.000001
     64 H                     0.234045       0.000000
     65 C                    -0.257165       0.000001
     66 H                     0.230437      -0.000000
     67 C                    -0.226015      -0.000001
     68 H                     0.231865       0.000000
     69 C                    -0.298752       0.000001
     70 H                     0.251793      -0.000000
     71 C                     0.305011      -0.000000
     72 C                    -0.293215       0.000001
     73 H                     0.257357      -0.000000
     74 C                    -0.228832      -0.000001
     75 H                     0.234753       0.000000
     76 C                    -0.254412       0.000001
     77 H                     0.231354      -0.000000
     78 C                    -0.226580      -0.000001
     79 H                     0.230514       0.000000
     80 C                    -0.293196       0.000001
     81 H                     0.252014      -0.000000
     82 C                    -0.556293      -0.000001
     83 H                     0.258872       0.000000
     84 H                     0.239614       0.000000
     85 C                    -0.547996      -0.000001
     86 H                     0.253776       0.000000
     87 H                     0.237343       0.000000
     88 C                    -0.653039      -0.000000
     89 H                     0.244024       0.000000
     90 H                     0.220320      -0.000000
     91 H                     0.223190      -0.000000
     92 C                    -0.652481      -0.000000
     93 H                     0.238975       0.000000
     94 H                     0.219729      -0.000000
     95 H                     0.225378       0.000000
     96 C                    -0.249690      -0.000075
     97 C                     0.072373       0.000075
     98 C                    -0.379167      -0.000073
     99 H                     0.243414       0.000005
    100 C                     0.330772       0.000066
    101 N                    -0.665057      -0.000000
    102 C                    -0.382186      -0.000073
    103 H                     0.247315       0.000005
    104 C                     0.085558       0.000074
    105 C                     0.263248       0.000043
    106 C                    -0.273971      -0.000045
    107 H                     0.254077       0.000003
    108 C                    -0.231924       0.000046
    109 H                     0.236980      -0.000004
    110 C                    -0.247150      -0.000046
    111 H                     0.233757       0.000004
    112 C                    -0.233155       0.000046
    113 H                     0.237536      -0.000004
    114 C                    -0.268588      -0.000046
    115 H                     0.254071       0.000003
    116 C                     0.273995       0.000039
    117 C                    -0.279894      -0.000042
    118 H                     0.253932       0.000003
    119 C                    -0.230875       0.000043
    120 H                     0.236559      -0.000003
    121 C                    -0.248516      -0.000042
    122 H                     0.233164       0.000003
    123 C                    -0.232408       0.000043
    124 H                     0.236009      -0.000003
    125 C                    -0.276755      -0.000042
    126 H                     0.256227       0.000003
    127 C                    -0.554856      -0.000009
    128 H                     0.259658       0.000002
    129 H                     0.237704       0.000002
    130 C                    -0.543136      -0.000009
    131 H                     0.250865       0.000001
    132 H                     0.234515       0.000001
    133 C                    -0.648466       0.000002
    134 H                     0.237342      -0.000000
    135 H                     0.220631       0.000000
    136 H                     0.220120      -0.000000
    137 C                    -0.649461       0.000002
    138 H                     0.234790      -0.000000
    139 H                     0.224078       0.000000
    140 H                     0.218637      -0.000000
  --------------------------------------------------------
  Sum of atomic charges =    -0.000000

                    Cartesian Multipole Moments
 -----------------------------------------------------------------
    Charge (ESU x 10^10)
                -0.0000
    Dipole Moment (Debye)
         X      -1.6403      Y      -0.1384      Z      -0.8088
       Tot       1.8341
    Quadrupole Moments (Debye-Ang)
        XX    -411.2576     XY      -1.0490     YY    -461.1855
        XZ     -11.6084     YZ      -1.3424     ZZ    -394.5291

             Standard Nuclear Orientation (Angstroms)
    I     Atom           X                Y                Z
 ----------------------------------------------------------------
    1      C      -0.1111915023     0.9302336217     0.2330192743
    2      C      -0.1213099359     0.9183332289     1.6335608598
    3      H       0.8233931865     0.8674928788     2.1642616711
    4      C      -1.3146347970     0.9750208965     2.3244660255
    5      C      -2.5370240542     1.0279021745     1.6063491970
    6      C      -2.5405909896     1.0209274305     0.2311695184
    7      H      -3.4805534788     1.0415320717    -0.3103880147
    8      C      -1.3337300030     0.9834142003    -0.4753202346
    9      C      -3.6371724208     1.0650678996     2.5621924840
   10      C      -5.0050173387     1.1181981809     2.4673893486
   11      H      -5.5115845656     1.1466366973     1.5106537935
   12      C      -3.0450315332     1.0314733493     3.8368737470
   13      C      -3.7690605569     1.0462025595     5.0252299222
   14      C      -1.6392089560     0.9764123379     3.7530261013
   15      C      -0.9263715736     0.9343326807     4.9232492393
   16      H       0.1550981267     0.8905086075     4.9329445124
   17      C      -5.7637731066     1.1364983419     3.6591934712
   18      H      -6.8431436309     1.1789865277     3.5879478087
   19      C      -5.1785500690     1.1013711004     4.9026034258
   20      H      -5.7995832209     1.1162171941     5.7898665232
   21      C      -1.6342127279     0.9496221753     6.1485072005
   22      H      -1.0681098667     0.9171139013     7.0701710400
   23      C      -3.0060832894     1.0031764443     6.2150561679
   24      H      -3.5006070488     1.0119655093     7.1785937771
   25      B      -1.3424042915     0.9577719097    -2.0113719272
   26      C      -0.0048030138     1.0424117635    -2.7941302510
   27      C       0.0120802335     1.1120881020    -4.1957776712
   28      H      -0.9186076166     1.1368862889    -4.7510924671
   29      C       1.2045808495     1.1193238487    -4.8803460686
   30      C       2.4376898499     1.0394143594    -4.1830291350
   31      C       2.4360838501     0.9662175243    -2.8066668584
   32      H       3.3729448323     0.8725193346    -2.2683862517
   33      C       1.2273278771     0.9824212370    -2.0898460819
   34      C       1.4807689380     1.1556021896    -6.3099673674
   35      C       0.7129786748     1.2211048111    -7.4431300421
   36      H      -0.3682287612     1.2741279835    -7.3999153252
   37      C       2.8804886237     1.0903394528    -6.4365632863
   38      C       3.5455595161     1.0822013961    -7.6558936574
   39      C       3.5103423199     1.0213956297    -5.1777029150
   40      C       4.8771288055     0.9433346066    -5.1426218948
   41      H       5.4226767446     0.8855515039    -4.2089385067
   42      C       1.3634438927     1.2174763928    -8.6963066384
   43      H       0.7596356827     1.2687929412    -9.5932361677
   44      C       2.7323815620     1.1497379296    -8.8132571085
   45      H       3.1892869586     1.1466948373    -9.7949204010
   46      C       5.5835350058     0.9346554287    -6.3673472321
   47      H       6.6632293959     0.8715768228    -6.3357047757
   48      C       4.9558549277     1.0009398231    -7.5892988964
   49      H       5.5414040102     0.9894919018    -8.4998827355
   50      B       1.2218201249     0.8594895894    -0.5390801432
   51      C       2.5745502660     0.5995368592     0.2166123491
   52      C       2.9225243738    -0.7264758111     0.5298594369
   53      C       4.1658291004    -1.0017763796     1.0877604573
   54      H       4.4484734085    -2.0276662239     1.2969130192
   55      C       5.0561151219     0.0259086738     1.3709682598
   56      C       4.6925421098     1.3363282560     1.1051363891
   57      H       5.3866526455     2.1361927984     1.3372723222
   58      C       3.4724121861     1.6303187800     0.5190256065
   59      N       6.3447584549    -0.2267067254     1.8963215642
   60      C       6.4923990372    -1.0796369872     2.9932862858
   61      C       7.5796046928    -1.9492284858     3.0992061339
   62      H       8.3318810478    -1.9694079303     2.3224056119
   63      C       7.6964833257    -2.7931375260     4.1893226907
   64      H       8.5478222206    -3.4588600630     4.2500969265
   65      C       6.7307278007    -2.8094257737     5.1835160545
   66      H       6.8229604043    -3.4770709121     6.0293234932
   67      C       5.6421788918    -1.9578956067     5.0730106501
   68      H       4.8766821863    -1.9546782948     5.8382351835
   69      C       5.5237835621    -1.0947826595     3.9972974871
   70      H       4.6714881432    -0.4318807045     3.9287874518
   71      C       7.4467361943     0.2916161648     1.2025662247
   72      C       8.5578690893     0.7647087972     1.9003069827
   73      H       8.5704151754     0.7215710954     2.9814878047
   74      C       9.6389873226     1.2993137678     1.2217575614
   75      H      10.4892792622     1.6622653673     1.7845843369
   76      C       9.6310461549     1.3934468231    -0.1610275162
   77      H      10.4742590118     1.8206990347    -0.6867183007
   78      C       8.5231700572     0.9366145703    -0.8583430276
   79      H       8.4998922411     1.0007038469    -1.9387182203
   80      C       7.4431775469     0.3839428053    -0.1912731025
   81      H       6.5907350262     0.0244424437    -0.7518802871
   82      C       2.0165814970    -1.8791995314     0.1790616226
   83      H       0.9717124939    -1.5955591366     0.3209159642
   84      H       2.2001778223    -2.7051014177     0.8702239420
   85      C       3.1012767263     3.0736906608     0.2768634991
   86      H       2.5415601355     3.1711223961    -0.6580155587
   87      H       4.0072301572     3.6697965969     0.1481046802
   88      C       2.2146869063    -2.3660100158    -1.2552284505
   89      H       1.9965353283    -1.5823516414    -1.9811427188
   90      H       3.2429414406    -2.6894192420    -1.4186999979
   91      H       1.5589797981    -3.2109029510    -1.4704623935
   92      C       2.2744734467     3.6631553970     1.4198158103
   93      H       1.3294306407     3.1348234496     1.5328674813
   94      H       2.8088380889     3.5965061341     2.3677663586
   95      H       2.0437757471     4.7133133043     1.2368322833
   96      C      -2.6873082355     0.7613443417    -2.8011290690
   97      C      -3.1937911402    -0.5501857026    -2.9372598311
   98      C      -4.3293521485    -0.7842072589    -3.6925866411
   99      H      -4.7236495267    -1.7911911646    -3.7611789243
  100      C      -4.9978993912     0.2567214406    -4.3412185230
  101      N      -6.1114083547    -0.0078498824    -5.1263652180
  102      C      -4.4985750243     1.5563958113    -4.2045578801
  103      H      -4.9855571206     2.3748848390    -4.7199407023
  104      C      -3.3762737862     1.8108202235    -3.4440594961
  105      C      -6.2461190304    -1.2529238830    -5.7712288713
  106      C      -7.4448484038    -1.9536285923    -5.6756523430
  107      H      -8.2567324393    -1.5478590520    -5.0866241450
  108      C      -7.5947020450    -3.1610372504    -6.3347680360
  109      H      -8.5280923757    -3.7019169680    -6.2547947103
  110      C      -6.5503757593    -3.6844694179    -7.0827832267
  111      H      -6.6681890462    -4.6311016011    -7.5921213548
  112      C      -5.3536835133    -2.9887759961    -7.1729468353
  113      H      -4.5396929498    -3.3861959179    -7.7638692070
  114      C      -5.1987044806    -1.7740029315    -6.5260506741
  115      H      -4.2745157314    -1.2187650734    -6.6186991676
  116      C      -7.1479209112     0.9350810680    -5.2979851307
  117      C      -7.6841388562     1.1548980875    -6.5658238421
  118      H      -7.2857645552     0.6198567555    -7.4173037086
  119      C      -8.7155493780     2.0627499693    -6.7388466313
  120      H      -9.1193405331     2.2297414287    -7.7285732850
  121      C      -9.2226874078     2.7666485209    -5.6572034394
  122      H     -10.0259393751     3.4773382201    -5.7966648217
  123      C      -8.6916969927     2.5498320640    -4.3949497710
  124      H      -9.0875061488     3.0873190525    -3.5435969239
  125      C      -7.6681222152     1.6352987701    -4.2097414134
  126      H      -7.2681413996     1.4599244068    -3.2205148832
  127      C      -2.5281342047    -1.7524575549    -2.3203720364
  128      H      -1.9201071843    -1.4642710112    -1.4634312014
  129      H      -3.2997433963    -2.4228739388    -1.9316633703
  130      C      -2.9160882270     3.2392689759    -3.3016146632
  131      H      -1.8314728620     3.2828030264    -3.1876168208
  132      H      -3.1481448770     3.7883689148    -4.2179132765
  133      C      -1.6693919146    -2.5093433407    -3.3320097745
  134      H      -0.8706842067    -1.8818358463    -3.7240268849
  135      H      -1.2106628990    -3.3822074499    -2.8672089782
  136      H      -2.2685137617    -2.8552847544    -4.1760149728
  137      C      -3.5869825174     3.9413125456    -2.1201474587
  138      H      -3.3473731712     3.4524148813    -1.1771794360
  139      H      -3.2519512751     4.9750511208    -2.0468791141
  140      H      -4.6724628849     3.9485864022    -2.2287455433
 ----------------------------------------------------------------
