 Q-Chem 5.0, Q-Chem, Inc., Pleasanton, CA (2017)
 Q-Chem 5.0.1 for Intel X86 EM64T Linux

User input:
--------------------------------------------------------------
$rem
threads 8
jobtype	sp
method PBEh-3c
basis def2-mSVP
mem_static	1024
mem_total	8000
sym_ignore	true
unrestricted true
scf_convergence	9
solvent_method	pcm
$end

$molecule
read incoords.mol
$end

$solvent
dielectric	2.03
$end

$pcm
theory iefpcm
$end
--------------------------------------------------------------

   17   -3084.7878561657      6.24E-10 Convergence criterion met
 Total energy in the final basis set = -3084.78785617
 Total job time:  4702.43s(wall), 14523.07s(cpu)
        *  Thank you very much for using Q-Chem.  Have a nice day.  *
 Q-Chem 5.0, Q-Chem, Inc., Pleasanton, CA (2017)
 Q-Chem 5.0.1 for Intel X86 EM64T Linux

User input:
--------------------------------------------------------------

$rem
threads 8
jobtype opt
method PBEh-3c
basis def2-mSVP
scf_guess	read
mem_static      1024
mem_total       8000
sym_ignore      true
unrestricted true
mom_start       1
scf_algorithm	diis
scf_max_cycles	250
solvent_method	pcm
geom_opt_tol_energy 25
geom_opt_tol_gradient 75
$end

$solvent
dielectric      2.03
$end
$pcm
theory iefpcm
$end

$occupied
1 2 3 4 5 6 7 8 9 10 11 12 13 14 15 16 17 18 19 20 21 22 23 24 25 26 27 28 29 30 31 32 33 34 35 36 37 38 39 40 41 42 43 44 45 46 47 48 49 50 51 52 53 54 55 56 57 58 59 60 61 62 63 64 65 66 67 68 69 70 71 72 73 74 75 76 77 78 79 80 81 82 83 84 85 86 87 88 89 90 91 92 93 94 95 96 97 98 99 100 101 102 103 104 105 106 107 108 109 110 111 112 113 114 115 116 117 118 119 120 121 122 123 124 125 126 127 128 129 130 131 132 133 134 135 136 137 138 139 140 141 142 143 144 145 146 147 148 149 150 151 152 153 154 155 156 157 158 159 160 161 162 163 164 165 166 167 168 169 170 171 172 173 174 175 176 177 178 179 180 181 182 183 184 185 186 187 188 189 190 191 192 193 194 195 196 197 198 199 200 201 202 203 204 205 206 207 208 209 210 211 212 213 214 215 216 217 218 219 220 221 222 223 224 225 226 227 228 229 230 231 232 233 234 235 236 237 238 239 240 241 242 243 244 245 246 247 248 249 250 251 252 253 254 255 256 257 258 259 260 261 262 263 264 265 266 267 268 269  271
1 2 3 4 5 6 7 8 9 10 11 12 13 14 15 16 17 18 19 20 21 22 23 24 25 26 27 28 29 30 31 32 33 34 35 36 37 38 39 40 41 42 43 44 45 46 47 48 49 50 51 52 53 54 55 56 57 58 59 60 61 62 63 64 65 66 67 68 69 70 71 72 73 74 75 76 77 78 79 80 81 82 83 84 85 86 87 88 89 90 91 92 93 94 95 96 97 98 99 100 101 102 103 104 105 106 107 108 109 110 111 112 113 114 115 116 117 118 119 120 121 122 123 124 125 126 127 128 129 130 131 132 133 134 135 136 137 138 139 140 141 142 143 144 145 146 147 148 149 150 151 152 153 154 155 156 157 158 159 160 161 162 163 164 165 166 167 168 169 170 171 172 173 174 175 176 177 178 179 180 181 182 183 184 185 186 187 188 189 190 191 192 193 194 195 196 197 198 199 200 201 202 203 204 205 206 207 208 209 210 211 212 213 214 215 216 217 218 219 220 221 222 223 224 225 226 227 228 229 230 231 232 233 234 235 236 237 238 239 240 241 242 243 244 245 246 247 248 249 250 251 252 253 254 255 256 257 258 259 260 261 262 263 264 265 266 267 268 269 270
$end

$molecule
read
$end

--------------------------------------------------------------

   20   -3084.7190110618      9.28E-09 Convergence criterion met
 Total energy in the final basis set = -3084.71901106
   16   -3084.7189959671      9.64E-09 Convergence criterion met
 Total energy in the final basis set = -3084.71899597
   16   -3084.7189565723      9.34E-09 Convergence criterion met
 Total energy in the final basis set = -3084.71895657
   16   -3084.7189138481      9.71E-09 Convergence criterion met
 Total energy in the final basis set = -3084.71891385
   16   -3084.7188867545      9.48E-09 Convergence criterion met
 Total energy in the final basis set = -3084.71888675
   16   -3084.7188687893      9.59E-09 Convergence criterion met
 Total energy in the final basis set = -3084.71886879
   16   -3084.7188763216      9.74E-09 Convergence criterion met
 Total energy in the final basis set = -3084.71887632
   16   -3084.7188563059      9.60E-09 Convergence criterion met
 Total energy in the final basis set = -3084.71885631
   16   -3084.7188481522      9.54E-09 Convergence criterion met
 Total energy in the final basis set = -3084.71884815
   16   -3084.7188241570      9.78E-09 Convergence criterion met
 Total energy in the final basis set = -3084.71882416
   16   -3084.7187745012      9.49E-09 Convergence criterion met
 Total energy in the final basis set = -3084.71877450

             Standard Nuclear Orientation (Angstroms)
    I     Atom           X                Y                Z
 ----------------------------------------------------------------
    1      C      -0.1891215297     0.9506779050     0.3670808099
    2      C      -0.2158241934     0.9106645245     1.7777900843
    3      H       0.7234642241     0.8865236425     2.3215317019
    4      C      -1.4092892269     0.8917314152     2.4616502999
    5      C      -2.6359350213     0.9023457182     1.7336389361
    6      C      -2.6353768104     0.9362432450     0.3638428677
    7      H      -3.5802116460     0.9315046309    -0.1730081662
    8      C      -1.4227816299     0.9724186255    -0.3551822276
    9      C      -3.7377442113     0.8625690354     2.6872231376
   10      C      -5.1066583552     0.8525440984     2.5868262371
   11      H      -5.6086804553     0.8791367145     1.6270530736
   12      C      -3.1512044742     0.8277073677     3.9666332754
   13      C      -3.8794306082     0.7812541726     5.1517121104
   14      C      -1.7424436023     0.8440203207     3.8850991754
   15      C      -1.0320457826     0.8114876996     5.0580935491
   16      H       0.0505732058     0.8210061457     5.0691014757
   17      C      -5.8703543248     0.8068760336     3.7747147478
   18      H      -6.9504931020     0.7992553209     3.6972697895
   19      C      -5.2902719699     0.7716075882     5.0225302964
   20      H      -5.9151292789     0.7367310452     5.9067663091
   21      C      -1.7437670947     0.7638854333     6.2803447731
   22      H      -1.1777701546     0.7383220235     7.2027740728
   23      C      -3.1183223937     0.7487198810     6.3446873026
   24      H      -3.6157156659     0.7118014259     7.3061622226
   25      B      -1.4096335239     0.9821990961    -1.8821780723
   26      C      -0.0864976657     1.0436640581    -2.6442309891
   27      C      -0.0599542483     1.0901699729    -4.0534686459
   28      H      -0.9895858014     1.1083900246    -4.6151733449
   29      C       1.1292332402     1.1065478116    -4.7308669625
   30      C       2.3677820275     1.0622103381    -4.0268355494
   31      C       2.3621687610     1.0083338384    -2.6538071584
   32      H       3.3010223458     0.9554936671    -2.1128573114
   33      C       1.1490746372     1.0081263855    -1.9308486092
   34      C       1.4125544739     1.1414619426    -6.1608119280
   35      C       0.6506954658     1.1880553803    -7.3022978948
   36      H      -0.4318644278     1.2156004878    -7.2651052621
   37      C       2.8148740140     1.1129764589    -6.2846502240
   38      C       3.4851711072     1.1257818957    -7.5057878512
   39      C       3.4423987190     1.0662071264    -5.0215187752
   40      C       4.8142187686     1.0328149720    -4.9894311292
   41      H       5.3617751680     0.9992715527    -4.0556216126
   42      C       1.3059637038     1.2029078578    -8.5545683780
   43      H       0.7047786269     1.2407174805    -9.4546156447
   44      C       2.6770506476     1.1723188752    -8.6685166132
   45      H       3.1381181684     1.1847221218    -9.6488164980
   46      C       5.5235537434     1.0448935362    -6.2140799514
   47      H       6.6053629739     1.0188626177    -6.1809083164
   48      C       4.8983158296     1.0892557545    -7.4391146077
   49      H       5.4862136270     1.0966833641    -8.3489820427
   50      B       1.1459415659     0.9164710427    -0.3943445513
   51      C       2.5212151397     0.6896714788     0.3456738696
   52      C       2.8869466218    -0.6084820249     0.7357991219
   53      C       4.1550201025    -0.8508553396     1.2497381452
   54      H       4.4433543967    -1.8610169245     1.5210335034
   55      C       5.0707892708     0.1801193331     1.3916377415
   56      C       4.7028647781     1.4725293255     1.0492609657
   57      H       5.4186032898     2.2782292457     1.1707504249
   58      C       3.4423356639     1.7326157161     0.5242729034
   59      N       6.3965562081    -0.0886157805     1.8160081507
   60      C       6.6020579404    -0.8100297789     2.9950126945
   61      C       7.6346917800    -1.7427721947     3.1170169494
   62      H       8.3037484983    -1.9239183174     2.2862620846
   63      C       7.8007910320    -2.4551012281     4.2937713767
   64      H       8.6066156868    -3.1750355514     4.3623526007
   65      C       6.9384475328    -2.2733994401     5.3645595245
   66      H       7.0670101732    -2.8393159989     6.2774865957
   67      C       5.9036132181    -1.3560501267     5.2415084222
   68      H       5.2180747621    -1.1978015550     6.0643690496
   69      C       5.7379915568    -0.6251968374     4.0780328059
   70      H       4.9287223580     0.0895435156     4.0023629943
   71      C       7.4206576878     0.1173564716     0.8782135327
   72      C       8.6782062185     0.5668428069     1.2819555418
   73      H       8.8692158799     0.7528120556     2.3310920684
   74      C       9.6773988366     0.7810943751     0.3471765807
   75      H      10.6462827815     1.1316853243     0.6792120840
   76      C       9.4397185110     0.5724608455    -1.0046810069
   77      H      10.2202567630     0.7506828910    -1.7323570746
   78      C       8.1860530278     0.1383536940    -1.4098762848
   79      H       7.9831163325    -0.0326752068    -2.4597873239
   80      C       7.1848484804    -0.0951960650    -0.4811855006
   81      H       6.2139726713    -0.4417833754    -0.8121033688
   82      C       1.9657994222    -1.7864102472     0.5248380956
   83      H       0.9277552255    -1.4910602489     0.6880868327
   84      H       2.1853113892    -2.5527954496     1.2729483957
   85      C       3.0689389178     3.1523580213     0.1828216847
   86      H       2.4972376058     3.1757850422    -0.7480856030
   87      H       3.9753476004     3.7348375118    -0.0008243312
   88      C       2.0967745098    -2.3973299438    -0.8700791443
   89      H       1.8458773991    -1.6727917960    -1.6446034119
   90      H       3.1145035252    -2.7439254697    -1.0557662222
   91      H       1.4266222677    -3.2513495548    -0.9838089337
   92      C       2.2511617271     3.8204988426     1.2859464602
   93      H       1.3114075472     3.2938924173     1.4532066482
   94      H       2.7993116520     3.8336002191     2.2290028812
   95      H       2.0093093180     4.8512218128     1.0228735086
   96      C      -2.7369201697     0.7810737929    -2.7253792266
   97      C      -3.2043938316    -0.5415708785    -2.9588883039
   98      C      -4.2843858979    -0.7627467163    -3.7752376688
   99      H      -4.6500589040    -1.7723580758    -3.9152097678
  100      C      -4.9472515349     0.3117140815    -4.4037027334
  101      N      -5.9852702974     0.0657165301    -5.2542445327
  102      C      -4.5109727593     1.6310794445    -4.1538105471
  103      H      -4.9911283679     2.4595093588    -4.6597193315
  104      C      -3.4336836250     1.8630682602    -3.3339310517
  105      C      -6.0886523332    -1.1736435968    -5.9297439026
  106      C      -7.3036121911    -1.8528854530    -5.9302939671
  107      H      -8.1564351544    -1.4449024757    -5.4036280911
  108      C      -7.4031156819    -3.0650732247    -6.5897209934
  109      H      -8.3418261283    -3.6021167997    -6.5795919219
  110      C      -6.3030976040    -3.5947744616    -7.2521078003
  111      H      -6.3866191146    -4.5427574264    -7.7662526619
  112      C      -5.0978112205    -2.9062962868    -7.2582438475
  113      H      -4.2429989116    -3.3093168809    -7.7839452622
  114      C      -4.9842791202    -1.6928270262    -6.6012647482
  115      H      -4.0505254813    -1.1455595774    -6.6200825320
  116      C      -6.9960879838     1.0229218348    -5.4955554117
  117      C      -7.4106199866     1.2626093335    -6.8034664331
  118      H      -6.9386643311     0.7441872471    -7.6279480708
  119      C      -8.4175621757     2.1807264782    -7.0389429475
  120      H      -8.7329020007     2.3775402548    -8.0545455997
  121      C      -9.0160841903     2.8507336779    -5.9793898496
  122      H      -9.8053939030     3.5656278635    -6.1686819598
  123      C      -8.6066209899     2.5981223636    -4.6773256616
  124      H      -9.0821861743     3.1059314772    -3.8493991022
  125      C      -7.5991002925     1.6823454007    -4.4273215623
  126      H      -7.2972423412     1.4630162887    -3.4112866352
  127      C      -2.5050043490    -1.7379851458    -2.3731673560
  128      H      -1.9543448218    -1.4542956072    -1.4768906539
  129      H      -3.2503973686    -2.4746358246    -2.0615076608
  130      C      -2.9993826938     3.2797731097    -3.0889727455
  131      H      -1.9133075072     3.3247804205    -2.9921678490
  132      H      -3.2636176154     3.8963332249    -3.9514626684
  133      C      -1.5510110150    -2.3746031745    -3.3832240824
  134      H      -0.7917542232    -1.6644138100    -3.7098019960
  135      H      -1.0380827900    -3.2274504776    -2.9389526942
  136      H      -2.0871476373    -2.7280622126    -4.2659698257
  137      C      -3.6508494339     3.8531182464    -1.8321848170
  138      H      -3.3697460715     3.2829069829    -0.9473997414
  139      H      -3.3348361279     4.8838421002    -1.6739725843
  140      H      -4.7389548011     3.8424711967    -1.9131401639
 ----------------------------------------------------------------

   16   -3084.7187757594      9.66E-09 Convergence criterion met
 Total energy in the final basis set = -3084.71877576
 Final energy is   -3084.71877575944
 **  OPTIMIZATION CONVERGED  **

                    Orbital Energies (a.u.)
 --------------------------------------------------------------

 Alpha MOs
 -- Occupied --
-14.763 -14.655 -10.548 -10.539 -10.538 -10.493 -10.492 -10.492
-10.491 -10.486 -10.486 -10.486 -10.485 -10.485 -10.485 -10.485
-10.483 -10.482 -10.481 -10.480 -10.480 -10.466 -10.463 -10.448
-10.447 -10.447 -10.445 -10.445 -10.444 -10.444 -10.444 -10.444
-10.444 -10.443 -10.443 -10.443 -10.442 -10.442 -10.442 -10.442
-10.442 -10.441 -10.441 -10.438 -10.438 -10.436 -10.435 -10.434
-10.433 -10.433 -10.433 -10.433 -10.433 -10.433 -10.431 -10.430
-10.430 -10.430 -10.430 -10.430 -10.430 -10.429 -10.428 -10.426
-10.426 -10.426 -10.424 -10.419 -10.419 -10.414 -10.414 -10.405
-10.405 -10.403 -10.402 -10.401 -10.401 -10.401  -6.900  -6.893
 -1.149  -1.066  -1.005  -1.002  -0.995  -0.994  -0.979  -0.949
 -0.944  -0.937  -0.935  -0.925  -0.916  -0.916  -0.915  -0.904
 -0.895  -0.884  -0.881  -0.880  -0.875  -0.869  -0.850  -0.850
 -0.840  -0.833  -0.832  -0.830  -0.829  -0.828  -0.826  -0.824
 -0.820  -0.805  -0.798  -0.793  -0.791  -0.784  -0.779  -0.774
 -0.755  -0.753  -0.728  -0.724  -0.722  -0.713  -0.710  -0.710
 -0.708  -0.699  -0.698  -0.695  -0.688  -0.683  -0.677  -0.669
 -0.668  -0.661  -0.661  -0.659  -0.652  -0.643  -0.640  -0.628
 -0.626  -0.623  -0.621  -0.613  -0.603  -0.595  -0.592  -0.585
 -0.580  -0.576  -0.575  -0.572  -0.568  -0.564  -0.563  -0.558
 -0.555  -0.555  -0.549  -0.548  -0.538  -0.538  -0.534  -0.531
 -0.526  -0.523  -0.523  -0.522  -0.516  -0.510  -0.509  -0.507
 -0.507  -0.501  -0.498  -0.492  -0.489  -0.486  -0.486  -0.485
 -0.482  -0.482  -0.479  -0.477  -0.472  -0.472  -0.471  -0.469
 -0.469  -0.468  -0.467  -0.466  -0.465  -0.465  -0.465  -0.459
 -0.459  -0.458  -0.456  -0.451  -0.451  -0.450  -0.446  -0.443
 -0.439  -0.439  -0.436  -0.434  -0.426  -0.426  -0.423  -0.419
 -0.417  -0.417  -0.414  -0.412  -0.410  -0.408  -0.406  -0.405
 -0.400  -0.398  -0.397  -0.395  -0.391  -0.388  -0.384  -0.382
 -0.381  -0.380  -0.379  -0.379  -0.377  -0.377  -0.374  -0.370
 -0.369  -0.367  -0.356  -0.352  -0.349  -0.345  -0.344  -0.340
 -0.336  -0.332  -0.327  -0.322  -0.313  -0.310  -0.303  -0.301
 -0.295  -0.290  -0.288  -0.282  -0.282  -0.280  -0.266  -0.263
 -0.257  -0.247  -0.237  -0.233  -0.210  -0.145

 Beta MOs
 -- Occupied --
-14.773 -14.656 -10.549 -10.538 -10.537 -10.494 -10.493 -10.493
-10.493 -10.487 -10.486 -10.485 -10.485 -10.485 -10.485 -10.484
-10.483 -10.483 -10.482 -10.480 -10.480 -10.472 -10.463 -10.449
-10.448 -10.446 -10.446 -10.445 -10.444 -10.444 -10.444 -10.444
-10.444 -10.443 -10.443 -10.443 -10.442 -10.442 -10.442 -10.441
-10.441 -10.441 -10.440 -10.438 -10.438 -10.436 -10.435 -10.434
-10.433 -10.433 -10.433 -10.433 -10.432 -10.431 -10.431 -10.430
-10.430 -10.430 -10.430 -10.430 -10.429 -10.429 -10.428 -10.427
-10.427 -10.426 -10.424 -10.419 -10.419 -10.414 -10.413 -10.406
-10.406 -10.403 -10.402 -10.401 -10.400 -10.400  -6.897  -6.891
 -1.163  -1.066  -1.007  -1.005  -0.995  -0.994  -0.984  -0.949
 -0.944  -0.936  -0.934  -0.925  -0.916  -0.915  -0.914  -0.907
 -0.896  -0.883  -0.882  -0.881  -0.875  -0.869  -0.853  -0.850
 -0.840  -0.833  -0.831  -0.829  -0.828  -0.828  -0.828  -0.827
 -0.824  -0.804  -0.796  -0.792  -0.790  -0.784  -0.778  -0.774
 -0.757  -0.757  -0.731  -0.725  -0.724  -0.712  -0.711  -0.709
 -0.707  -0.699  -0.698  -0.695  -0.687  -0.683  -0.678  -0.669
 -0.668  -0.662  -0.660  -0.659  -0.650  -0.642  -0.641  -0.629
 -0.627  -0.623  -0.621  -0.613  -0.605  -0.595  -0.594  -0.591
 -0.585  -0.575  -0.574  -0.571  -0.567  -0.565  -0.563  -0.558
 -0.555  -0.554  -0.549  -0.547  -0.539  -0.537  -0.535  -0.531
 -0.527  -0.524  -0.522  -0.521  -0.517  -0.512  -0.509  -0.507
 -0.507  -0.501  -0.500  -0.497  -0.492  -0.486  -0.486  -0.485
 -0.484  -0.481  -0.479  -0.478  -0.476  -0.474  -0.471  -0.471
 -0.469  -0.468  -0.468  -0.466  -0.465  -0.464  -0.464  -0.463
 -0.459  -0.459  -0.458  -0.453  -0.451  -0.450  -0.446  -0.442
 -0.442  -0.439  -0.435  -0.433  -0.431  -0.426  -0.423  -0.418
 -0.417  -0.417  -0.414  -0.410  -0.409  -0.406  -0.405  -0.404
 -0.400  -0.400  -0.397  -0.395  -0.394  -0.390  -0.387  -0.384
 -0.382  -0.380  -0.379  -0.377  -0.377  -0.376  -0.374  -0.370
 -0.368  -0.368  -0.354  -0.352  -0.349  -0.346  -0.343  -0.341
 -0.339  -0.338  -0.330  -0.326  -0.316  -0.313  -0.313  -0.295
 -0.291  -0.290  -0.288  -0.282  -0.278  -0.277  -0.277  -0.264
 -0.257  -0.254  -0.240  -0.234  -0.226  -0.210

          Ground-State Mulliken Net Atomic Charges

     Atom                 Charge (a.u.)    Spin (a.u.)
  --------------------------------------------------------
      1 C                    -0.143192       0.069116
      2 C                    -0.407784      -0.063061
      3 H                     0.225182       0.002442
      4 C                     0.092220       0.097917
      5 C                     0.069328       0.028660
      6 C                    -0.408653      -0.006410
      7 H                     0.194255      -0.000070
      8 C                    -0.128313      -0.017805
      9 C                     0.187287      -0.041044
     10 C                    -0.396977       0.064345
     11 H                     0.209728      -0.003834
     12 C                    -0.075946       0.022519
     13 C                     0.241966      -0.036500
     14 C                     0.188507      -0.057304
     15 C                    -0.403998       0.084585
     16 H                     0.225728      -0.004984
     17 C                    -0.216027      -0.043113
     18 H                     0.224899       0.002149
     19 C                    -0.351560       0.060548
     20 H                     0.223465      -0.003556
     21 C                    -0.212676      -0.052364
     22 H                     0.229689       0.002546
     23 C                    -0.356576       0.076748
     24 H                     0.223543      -0.004568
     25 B                     0.499890       0.387388
     26 C                    -0.125415      -0.017938
     27 C                    -0.398345      -0.009424
     28 H                     0.190757       0.000585
     29 C                     0.066279       0.029027
     30 C                     0.094482       0.097441
     31 C                    -0.402609      -0.064770
     32 H                     0.225922       0.002556
     33 C                    -0.142024       0.072454
     34 C                     0.189567      -0.040672
     35 C                    -0.398282       0.064198
     36 H                     0.207052      -0.003846
     37 C                    -0.077612       0.022472
     38 C                     0.240253      -0.036430
     39 C                     0.190905      -0.056874
     40 C                    -0.406473       0.084247
     41 H                     0.227251      -0.004969
     42 C                    -0.216047      -0.042931
     43 H                     0.224239       0.002142
     44 C                    -0.351010       0.060352
     45 H                     0.223594      -0.003546
     46 C                    -0.212244      -0.052057
     47 H                     0.228773       0.002534
     48 C                    -0.356162       0.076336
     49 H                     0.223728      -0.004544
     50 B                     0.542828       0.271017
     51 C                    -0.183875      -0.028496
     52 C                     0.047260       0.005612
     53 C                    -0.330712      -0.002417
     54 H                     0.228023       0.000403
     55 C                     0.242951       0.003171
     56 C                    -0.337910      -0.002560
     57 H                     0.223362       0.000474
     58 C                     0.064025       0.006542
     59 N                    -0.667708      -0.000146
     60 C                     0.324096      -0.000064
     61 C                    -0.312918       0.000129
     62 H                     0.253176      -0.000007
     63 C                    -0.224351      -0.000092
     64 H                     0.226908       0.000005
     65 C                    -0.258956       0.000142
     66 H                     0.223104      -0.000008
     67 C                    -0.222887      -0.000086
     68 H                     0.227444       0.000005
     69 C                    -0.296317       0.000123
     70 H                     0.253141      -0.000013
     71 C                     0.303683      -0.000050
     72 C                    -0.282877       0.000146
     73 H                     0.252281      -0.000008
     74 C                    -0.229228      -0.000098
     75 H                     0.228827       0.000005
     76 C                    -0.251000       0.000155
     77 H                     0.225449      -0.000009
     78 C                    -0.227970      -0.000091
     79 H                     0.227583       0.000011
     80 C                    -0.289758       0.000117
     81 H                     0.256518      -0.000017
     82 C                    -0.546606       0.001937
     83 H                     0.260116      -0.001709
     84 H                     0.226907       0.000370
     85 C                    -0.537653       0.002150
     86 H                     0.256290      -0.001403
     87 H                     0.224787       0.000249
     88 C                    -0.655057       0.000625
     89 H                     0.255187      -0.000857
     90 H                     0.212432      -0.000089
     91 H                     0.208929      -0.000007
     92 C                    -0.653333       0.000388
     93 H                     0.247747      -0.000488
     94 H                     0.212123      -0.000079
     95 H                     0.215024      -0.000031
     96 C                    -0.139425      -0.414685
     97 C                     0.061482       0.122351
     98 C                    -0.349600      -0.155743
     99 H                     0.279127       0.008888
    100 C                     0.345806      -0.041290
    101 N                    -0.586437      -0.337778
    102 C                    -0.350541      -0.150268
    103 H                     0.276041       0.008688
    104 C                     0.083473       0.114189
    105 C                     0.240980       0.064780
    106 C                    -0.251270      -0.079340
    107 H                     0.271925       0.004215
    108 C                    -0.227763       0.052713
    109 H                     0.258360      -0.002779
    110 C                    -0.221746      -0.090997
    111 H                     0.258455       0.005018
    112 C                    -0.228656       0.057811
    113 H                     0.262634      -0.003241
    114 C                    -0.252671      -0.084130
    115 H                     0.280920       0.004353
    116 C                     0.255953       0.068148
    117 C                    -0.256830      -0.083836
    118 H                     0.273575       0.004413
    119 C                    -0.226617       0.056217
    120 H                     0.258631      -0.002910
    121 C                    -0.222512      -0.095907
    122 H                     0.258156       0.005290
    123 C                    -0.228361       0.060666
    124 H                     0.260402      -0.003395
    125 C                    -0.257075      -0.088182
    126 H                     0.279538       0.004593
    127 C                    -0.553792      -0.001978
    128 H                     0.296133      -0.002549
    129 H                     0.237523       0.001827
    130 C                    -0.539264      -0.002260
    131 H                     0.284109      -0.000713
    132 H                     0.233511       0.001403
    133 C                    -0.654211       0.000415
    134 H                     0.263244      -0.000334
    135 H                     0.235302       0.000575
    136 H                     0.202688      -0.000031
    137 C                    -0.656316       0.000632
    138 H                     0.260865      -0.000460
    139 H                     0.236898       0.000007
    140 H                     0.205712      -0.000025
  --------------------------------------------------------
  Sum of atomic charges =    -0.000000

                    Cartesian Multipole Moments
 -----------------------------------------------------------------
    Charge (ESU x 10^10)
                -0.0000
    Dipole Moment (Debye)
         X     -21.5704      Y      -2.6530      Z     -14.7855
       Tot      26.2856
    Quadrupole Moments (Debye-Ang)
        XX    -327.3184     XY      -6.5107     YY    -452.3274
        XZ     112.4254     YZ       8.8967     ZZ    -365.5383

 Total job time:  54148.03s(wall), 171314.09s(cpu)
        *  Thank you very much for using Q-Chem.  Have a nice day.  *
