 Q-Chem 5.0, Q-Chem, Inc., Pleasanton, CA (2017)
 Q-Chem 5.0.1 for Intel X86 EM64T Linux

User input:
--------------------------------------------------------------
$rem
threads 8
jobtype	sp
method PBEh-3c
basis def2-mSVP
mem_static	1024
mem_total	8000
sym_ignore	true
unrestricted true
scf_convergence	9
solvent_method	pcm
$end

$molecule
read incoords.mol
$end

$solvent
dielectric	2.38
$end

$pcm
theory iefpcm
$end
--------------------------------------------------------------

   17   -3084.7906774820      5.78E-10 Convergence criterion met
 Total energy in the final basis set = -3084.79067748
 Total job time:  4379.88s(wall), 13856.52s(cpu)
        *  Thank you very much for using Q-Chem.  Have a nice day.  *
 Q-Chem 5.0, Q-Chem, Inc., Pleasanton, CA (2017)
 Q-Chem 5.0.1 for Intel X86 EM64T Linux

User input:
--------------------------------------------------------------

$rem
threads 8
jobtype opt
method PBEh-3c
basis def2-mSVP
scf_guess	read
mem_static      1024
mem_total       8000
sym_ignore      true
unrestricted true
mom_start       1
scf_algorithm	diis
scf_max_cycles	250
solvent_method	pcm
geom_opt_tol_energy 25
geom_opt_tol_gradient 75
$end

$solvent
dielectric      2.38
$end

$pcm
theory iefpcm
$end

$occupied
1 2 3 4 5 6 7 8 9 10 11 12 13 14 15 16 17 18 19 20 21 22 23 24 25 26 27 28 29 30 31 32 33 34 35 36 37 38 39 40 41 42 43 44 45 46 47 48 49 50 51 52 53 54 55 56 57 58 59 60 61 62 63 64 65 66 67 68 69 70 71 72 73 74 75 76 77 78 79 80 81 82 83 84 85 86 87 88 89 90 91 92 93 94 95 96 97 98 99 100 101 102 103 104 105 106 107 108 109 110 111 112 113 114 115 116 117 118 119 120 121 122 123 124 125 126 127 128 129 130 131 132 133 134 135 136 137 138 139 140 141 142 143 144 145 146 147 148 149 150 151 152 153 154 155 156 157 158 159 160 161 162 163 164 165 166 167 168 169 170 171 172 173 174 175 176 177 178 179 180 181 182 183 184 185 186 187 188 189 190 191 192 193 194 195 196 197 198 199 200 201 202 203 204 205 206 207 208 209 210 211 212 213 214 215 216 217 218 219 220 221 222 223 224 225 226 227 228 229 230 231 232 233 234 235 236 237 238 239 240 241 242 243 244 245 246 247 248 249 250 251 252 253 254 255 256 257 258 259 260 261 262 263 264 265 266 267 268 269  271
1 2 3 4 5 6 7 8 9 10 11 12 13 14 15 16 17 18 19 20 21 22 23 24 25 26 27 28 29 30 31 32 33 34 35 36 37 38 39 40 41 42 43 44 45 46 47 48 49 50 51 52 53 54 55 56 57 58 59 60 61 62 63 64 65 66 67 68 69 70 71 72 73 74 75 76 77 78 79 80 81 82 83 84 85 86 87 88 89 90 91 92 93 94 95 96 97 98 99 100 101 102 103 104 105 106 107 108 109 110 111 112 113 114 115 116 117 118 119 120 121 122 123 124 125 126 127 128 129 130 131 132 133 134 135 136 137 138 139 140 141 142 143 144 145 146 147 148 149 150 151 152 153 154 155 156 157 158 159 160 161 162 163 164 165 166 167 168 169 170 171 172 173 174 175 176 177 178 179 180 181 182 183 184 185 186 187 188 189 190 191 192 193 194 195 196 197 198 199 200 201 202 203 204 205 206 207 208 209 210 211 212 213 214 215 216 217 218 219 220 221 222 223 224 225 226 227 228 229 230 231 232 233 234 235 236 237 238 239 240 241 242 243 244 245 246 247 248 249 250 251 252 253 254 255 256 257 258 259 260 261 262 263 264 265 266 267 268 269 270
$end

$molecule
read
$end

--------------------------------------------------------------

   20   -3084.7233469709      9.06E-09 Convergence criterion met
 Total energy in the final basis set = -3084.72334697
   17   -3084.7233490275      7.88E-09 Convergence criterion met
 Total energy in the final basis set = -3084.72334903
   17   -3084.7233144079      7.96E-09 Convergence criterion met
 Total energy in the final basis set = -3084.72331441
   17   -3084.7233107782      7.31E-09 Convergence criterion met
 Total energy in the final basis set = -3084.72331078
   17   -3084.7233021621      7.46E-09 Convergence criterion met
 Total energy in the final basis set = -3084.72330216
   17   -3084.7232915588      7.58E-09 Convergence criterion met
 Total energy in the final basis set = -3084.72329156
   17   -3084.7232685563      8.04E-09 Convergence criterion met
   17   -3084.7232541676      7.50E-09 Convergence criterion met
 Total energy in the final basis set = -3084.72325417
   17   -3084.7232275637      7.51E-09 Convergence criterion met
 Total energy in the final basis set = -3084.72322756
   17   -3084.7231297335      7.60E-09 Convergence criterion met
 Total energy in the final basis set = -3084.72312973
   17   -3084.7231208437      7.53E-09 Convergence criterion met
 Total energy in the final basis set = -3084.72312084
   17   -3084.7231332097      7.49E-09 Convergence criterion met
 Total energy in the final basis set = -3084.72313321
   17   -3084.7231273397      7.51E-09 Convergence criterion met
 Total energy in the final basis set = -3084.72312734

             Standard Nuclear Orientation (Angstroms)
    I     Atom           X                Y                Z
 ----------------------------------------------------------------
    1      C      -0.1851041907     0.9545187038     0.3571072790
    2      C      -0.2153320828     0.9155181812     1.7679898816
    3      H       0.7223935457     0.8914940116     2.3144881912
    4      C      -1.4105141745     0.8975536855     2.4489047494
    5      C      -2.6355060241     0.9082316301     1.7177387708
    6      C      -2.6315060736     0.9409376096     0.3477560920
    7      H      -3.5748797230     0.9361062875    -0.1915250520
    8      C      -1.4171961623     0.9761612525    -0.3682483879
    9      C      -3.7396806068     0.8698289729     2.6685181391
   10      C      -5.1085056733     0.8605708989     2.5645715270
   11      H      -5.6080988601     0.8868042356     1.6035191112
   12      C      -3.1563246338     0.8355142362     3.9495271216
   13      C      -3.8876571305     0.7901952996     5.1328775568
   14      C      -1.7472821255     0.8509997956     3.8716391570
   15      C      -1.0397629327     0.8187677591     5.0465702684
   16      H       0.0428553221     0.8276946936     5.0604325891
   17      C      -5.8751959582     0.8161151659     3.7506944183
   18      H      -6.9551396643     0.8090876445     3.6704626245
   19      C      -5.2983151585     0.7812750945     5.0001624336
   20      H      -5.9254107438     0.7473231394     5.8828604393
   21      C      -1.7547091588     0.7722610689     6.2670727763
   22      H      -1.1910784806     0.7469057713     7.1909717985
   23      C      -3.1295940766     0.7579195120     6.3279097887
   24      H      -3.6295127691     0.7218272384     7.2881223345
   25      B      -1.4012933302     0.9845837155    -1.8955950867
   26      C      -0.0755902410     1.0469188796    -2.6536049516
   27      C      -0.0462494650     1.0945045550    -4.0626301291
   28      H      -0.9749458191     1.1130135446    -4.6257771188
   29      C       1.1445133526     1.1112817256    -4.7376960222
   30      C       2.3816591856     1.0654891464    -4.0309507801
   31      C       2.3732700034     1.0108093658    -2.6579539003
   32      H       3.3111931818     0.9570975930    -2.1154172256
   33      C       1.1584955061     1.0110366093    -1.9374339860
   34      C       1.4309460381     1.1470856629    -6.1669711785
   35      C       0.6714208464     1.1948400991    -7.3101276307
   36      H      -0.4111995373     1.2227873377    -7.2753483477
   37      C       2.8336179408     1.1175254177    -6.2878100912
   38      C       3.5065519151     1.1302302091    -7.5076041330
   39      C       3.4585302328     1.0690287254    -5.0233960892
   40      C       4.8303409450     1.0333885308    -4.9883658094
   41      H       5.3759525360     0.9978355353    -4.0534702993
   42      C       1.3295219733     1.2098863144    -8.5610419827
   43      H       0.7301926458     1.2485273656    -9.4622842278
   44      C       2.7009393405     1.1782164076    -8.6721639643
   45      H       3.1641318979     1.1906309160    -9.6514677989
   46      C       5.5422929894     1.0453568345    -6.2116100691
   47      H       6.6239956107     1.0174803749    -6.1761820792
   48      C       4.9195934135     1.0916917197    -7.4380237236
   49      H       5.5093599639     1.0988575124    -8.3467009816
   50      B       1.1517301255     0.9192499241    -0.4009505952
   51      C       2.5249075679     0.6904892879     0.3427372122
   52      C       2.8875819322    -0.6079743096     0.7351453121
   53      C       4.1540913781    -0.8520587024     1.2524185629
   54      H       4.4398815161    -1.8626446634     1.5248796800
   55      C       5.0712450964     0.1775337874     1.3960034512
   56      C       4.7061416445     1.4703511265     1.0518906844
   57      H       5.4224801185     2.2753171753     1.1750275192
   58      C       3.4473713929     1.7320163571     0.5232501293
   59      N       6.3954423666    -0.0928043430     1.8241404022
   60      C       6.5972412922    -0.8156531343     3.0029538495
   61      C       7.6282879381    -1.7501058154     3.1260167912
   62      H       8.2988554425    -1.9314857147     2.2965055063
   63      C       7.7911401206    -2.4638849175     4.3024659979
   64      H       8.5957782087    -3.1850839433     4.3718965198
   65      C       6.9269613359    -2.2818177845     5.3718849786
   66      H       7.0529480596    -2.8487845903     6.2845452812
   67      C       5.8936674658    -1.3626921211     5.2477945653
   68      H       5.2068731502    -1.2040681573     6.0695585940
   69      C       5.7313901329    -0.6304246321     4.0845685948
   70      H       4.9234154715     0.0857889657     4.0084647857
   71      C       7.4229205949     0.1138244892     0.8899635353
   72      C       8.6788975832     0.5635067215     1.2984971257
   73      H       8.8663894571     0.7492236456     2.3483442198
   74      C       9.6814951195     0.7784527035     0.3673648851
   75      H      10.6490825797     1.1291744461     0.7030678729
   76      C       9.4486781621     0.5703458343    -0.9855368805
   77      H      10.2317691281     0.7491931633    -1.7103415042
   78      C       8.1965404656     0.1359582388    -1.3955020399
   79      H       7.9973264668    -0.0345240847    -2.4462181543
   80      C       7.1920749506    -0.0984421875    -0.4703586556
   81      H       6.2226655821    -0.4454298599    -0.8052189570
   82      C       1.9646829227    -1.7846459169     0.5243197330
   83      H       0.9273030546    -1.4880703373     0.6895022171
   84      H       2.1846081103    -2.5519581315     1.2713410146
   85      C       3.0773108666     3.1523850602     0.1806290554
   86      H       2.5071739290     3.1765662642    -0.7511878988
   87      H       3.9851220824     3.7331611062    -0.0014128402
   88      C       2.0920079252    -2.3950828189    -0.8711634606
   89      H       1.8389652904    -1.6704317840    -1.6449074412
   90      H       3.1092203484    -2.7418160081    -1.0595294989
   91      H       1.4213318498    -3.2488805303    -0.9832119251
   92      C       2.2587696701     3.8223202036     1.2821380030
   93      H       1.3181160942     3.2968927591     1.4482690634
   94      H       2.8055199946     3.8353010989     2.2260382914
   95      H       2.0186619517     4.8531855025     1.0180336939
   96      C      -2.7280223412     0.7813552786    -2.7398580628
   97      C      -3.1907274329    -0.5419076491    -2.9742574788
   98      C      -4.2771404343    -0.7656026299    -3.7822296125
   99      H      -4.6410441834    -1.7761412036    -3.9203650176
  100      C      -4.9490032536     0.3077886360    -4.4019961349
  101      N      -5.9966596419     0.0602683392    -5.2412529738
  102      C      -4.5134407363     1.6275228424    -4.1556560611
  103      H      -4.9992031804     2.4552565003    -4.6574021672
  104      C      -3.4302486648     1.8614276874    -3.3432902077
  105      C      -6.1018399275    -1.1766317657    -5.9200269328
  106      C      -7.3142664431    -1.8607673160    -5.9105269494
  107      H      -8.1631705664    -1.4588331093    -5.3729840237
  108      C      -7.4152805622    -3.0710956815    -6.5730273440
  109      H      -8.3514844845    -3.6123010282    -6.5549960524
  110      C      -6.3197632481    -3.5937059954    -7.2487118177
  111      H      -6.4047190615    -4.5401385580    -7.7655142928
  112      C      -5.1172657463    -2.9002404218    -7.2647812752
  113      H      -4.2664310969    -3.2976787685    -7.8010814737
  114      C      -5.0018533100    -1.6888612197    -6.6043664939
  115      H      -4.0709041265    -1.1371989811    -6.6314343172
  116      C      -7.0149635024     1.0130695821    -5.4649185603
  117      C      -7.4523024213     1.2513090592    -6.7659992968
  118      H      -6.9917329222     0.7358916937    -7.5987592923
  119      C      -8.4665539585     2.1655306803    -6.9841795602
  120      H      -8.7994020038     2.3616045595    -7.9943274037
  121      C      -9.0500821316     2.8327729048    -5.9143605542
  122      H      -9.8454888429     3.5443590484    -6.0902398058
  123      C      -8.6178640982     2.5816032324    -4.6192106687
  124      H      -9.0818974958     3.0869676153    -3.7832888527
  125      C      -7.6024191633     1.6701764859    -4.3862894873
  126      H      -7.2833894277     1.4514854331    -3.3753890650
  127      C      -2.4816425872    -1.7375214077    -2.3980252915
  128      H      -1.9193509968    -1.4533489937    -1.5090146153
  129      H      -3.2214047136    -2.4755340419    -2.0764128694
  130      C      -2.9990076641     3.2797619243    -3.1007555292
  131      H      -1.9135315361     3.3270784405    -2.9983633870
  132      H      -3.2594981284     3.8929480342    -3.9667685242
  133      C      -1.5397892581    -2.3727908898    -3.4200678062
  134      H      -0.7849622601    -1.6617114071    -3.7550652354
  135      H      -1.0211371870    -3.2258448786    -2.9828102410
  136      H      -2.0862530670    -2.7257408777    -4.2966052228
  137      C      -3.6582086088     3.8568885538    -1.8498266187
  138      H      -3.3825787864     3.2890435671    -0.9617468717
  139      H      -3.3437297643     4.8882767022    -1.6926122852
  140      H      -4.7457965591     3.8453486645    -1.9374705442
 ----------------------------------------------------------------

   17   -3084.7231297407      7.52E-09 Convergence criterion met
 Total energy in the final basis set = -3084.72312974
 Final energy is   -3084.72312974069
 **  OPTIMIZATION CONVERGED  **

                    Orbital Energies (a.u.)
 --------------------------------------------------------------

 Alpha MOs
 -- Occupied --
-14.762 -14.657 -10.546 -10.537 -10.536 -10.490 -10.490 -10.489
-10.489 -10.484 -10.484 -10.484 -10.483 -10.483 -10.483 -10.482
-10.482 -10.482 -10.481 -10.481 -10.479 -10.465 -10.464 -10.450
-10.449 -10.447 -10.446 -10.446 -10.445 -10.445 -10.445 -10.445
-10.444 -10.444 -10.444 -10.444 -10.444 -10.443 -10.443 -10.443
-10.443 -10.442 -10.440 -10.440 -10.439 -10.437 -10.437 -10.436
-10.435 -10.434 -10.434 -10.434 -10.434 -10.434 -10.432 -10.432
-10.432 -10.431 -10.431 -10.431 -10.431 -10.431 -10.430 -10.428
-10.427 -10.426 -10.424 -10.421 -10.421 -10.415 -10.415 -10.406
-10.406 -10.404 -10.404 -10.402 -10.402 -10.402  -6.901  -6.895
 -1.147  -1.068  -1.003  -1.000  -0.996  -0.996  -0.977  -0.950
 -0.946  -0.939  -0.937  -0.927  -0.917  -0.916  -0.915  -0.902
 -0.893  -0.885  -0.878  -0.878  -0.876  -0.871  -0.852  -0.848
 -0.841  -0.834  -0.833  -0.831  -0.830  -0.830  -0.826  -0.824
 -0.819  -0.806  -0.799  -0.794  -0.792  -0.785  -0.781  -0.776
 -0.753  -0.751  -0.726  -0.722  -0.721  -0.714  -0.711  -0.709
 -0.709  -0.700  -0.700  -0.696  -0.689  -0.685  -0.675  -0.670
 -0.669  -0.662  -0.660  -0.659  -0.653  -0.644  -0.639  -0.628
 -0.625  -0.624  -0.623  -0.615  -0.601  -0.596  -0.590  -0.585
 -0.578  -0.577  -0.576  -0.573  -0.570  -0.564  -0.561  -0.558
 -0.556  -0.554  -0.549  -0.548  -0.539  -0.535  -0.532  -0.532
 -0.524  -0.523  -0.523  -0.521  -0.515  -0.510  -0.509  -0.508
 -0.508  -0.502  -0.499  -0.492  -0.489  -0.488  -0.487  -0.486
 -0.483  -0.481  -0.480  -0.478  -0.473  -0.472  -0.472  -0.471
 -0.470  -0.468  -0.467  -0.467  -0.466  -0.466  -0.465  -0.460
 -0.460  -0.456  -0.454  -0.452  -0.451  -0.449  -0.447  -0.442
 -0.438  -0.437  -0.436  -0.435  -0.427  -0.426  -0.424  -0.420
 -0.419  -0.417  -0.415  -0.413  -0.412  -0.408  -0.407  -0.406
 -0.401  -0.398  -0.396  -0.395  -0.392  -0.389  -0.384  -0.383
 -0.382  -0.381  -0.380  -0.380  -0.378  -0.376  -0.375  -0.371
 -0.370  -0.368  -0.357  -0.353  -0.350  -0.345  -0.342  -0.341
 -0.334  -0.330  -0.329  -0.323  -0.315  -0.308  -0.303  -0.301
 -0.296  -0.292  -0.290  -0.284  -0.283  -0.281  -0.268  -0.265
 -0.259  -0.248  -0.238  -0.235  -0.212  -0.146

 Beta MOs
 -- Occupied --
-14.772 -14.657 -10.546 -10.536 -10.535 -10.492 -10.491 -10.491
-10.490 -10.485 -10.484 -10.483 -10.483 -10.483 -10.483 -10.482
-10.482 -10.482 -10.482 -10.481 -10.480 -10.470 -10.465 -10.450
-10.449 -10.447 -10.446 -10.446 -10.445 -10.445 -10.445 -10.444
-10.444 -10.444 -10.444 -10.443 -10.443 -10.443 -10.443 -10.442
-10.442 -10.442 -10.440 -10.440 -10.439 -10.437 -10.437 -10.436
-10.434 -10.434 -10.434 -10.434 -10.433 -10.433 -10.432 -10.432
-10.431 -10.431 -10.431 -10.431 -10.431 -10.430 -10.430 -10.428
-10.428 -10.426 -10.424 -10.421 -10.421 -10.415 -10.415 -10.407
-10.407 -10.404 -10.404 -10.403 -10.401 -10.401  -6.898  -6.892
 -1.162  -1.067  -1.004  -1.004  -0.996  -0.995  -0.982  -0.950
 -0.946  -0.938  -0.936  -0.927  -0.916  -0.915  -0.915  -0.906
 -0.894  -0.884  -0.880  -0.879  -0.876  -0.870  -0.852  -0.851
 -0.841  -0.834  -0.832  -0.830  -0.829  -0.829  -0.827  -0.826
 -0.826  -0.806  -0.797  -0.793  -0.791  -0.785  -0.779  -0.775
 -0.756  -0.755  -0.730  -0.723  -0.722  -0.713  -0.710  -0.710
 -0.708  -0.700  -0.699  -0.696  -0.689  -0.685  -0.677  -0.670
 -0.669  -0.661  -0.660  -0.660  -0.651  -0.642  -0.640  -0.629
 -0.627  -0.624  -0.622  -0.614  -0.603  -0.596  -0.592  -0.589
 -0.584  -0.576  -0.575  -0.572  -0.568  -0.564  -0.563  -0.558
 -0.555  -0.554  -0.549  -0.548  -0.539  -0.536  -0.533  -0.532
 -0.525  -0.523  -0.522  -0.521  -0.516  -0.511  -0.510  -0.508
 -0.508  -0.501  -0.500  -0.498  -0.491  -0.488  -0.487  -0.486
 -0.483  -0.482  -0.480  -0.479  -0.476  -0.473  -0.472  -0.471
 -0.471  -0.469  -0.468  -0.467  -0.466  -0.466  -0.465  -0.462
 -0.460  -0.459  -0.457  -0.452  -0.451  -0.450  -0.447  -0.442
 -0.440  -0.437  -0.436  -0.434  -0.430  -0.427  -0.424  -0.419
 -0.419  -0.417  -0.415  -0.411  -0.410  -0.407  -0.406  -0.405
 -0.401  -0.399  -0.398  -0.395  -0.394  -0.392  -0.389  -0.384
 -0.383  -0.381  -0.380  -0.379  -0.378  -0.378  -0.375  -0.371
 -0.370  -0.369  -0.356  -0.353  -0.348  -0.346  -0.344  -0.340
 -0.339  -0.337  -0.329  -0.327  -0.315  -0.314  -0.313  -0.296
 -0.292  -0.292  -0.290  -0.284  -0.280  -0.279  -0.276  -0.266
 -0.259  -0.255  -0.241  -0.236  -0.228  -0.212

          Ground-State Mulliken Net Atomic Charges

     Atom                 Charge (a.u.)    Spin (a.u.)
  --------------------------------------------------------
      1 C                    -0.142878       0.067213
      2 C                    -0.408709      -0.061587
      3 H                     0.225810       0.002355
      4 C                     0.090282       0.095841
      5 C                     0.067243       0.031932
      6 C                    -0.409112      -0.009462
      7 H                     0.197204       0.000110
      8 C                    -0.129674      -0.013810
      9 C                     0.185400      -0.042086
     10 C                    -0.398557       0.065893
     11 H                     0.213342      -0.003918
     12 C                    -0.076367       0.022735
     13 C                     0.239114      -0.036875
     14 C                     0.186562      -0.057019
     15 C                    -0.405486       0.084518
     16 H                     0.228265      -0.004972
     17 C                    -0.218660      -0.043926
     18 H                     0.228028       0.002181
     19 C                    -0.353220       0.061931
     20 H                     0.226465      -0.003633
     21 C                    -0.215342      -0.052442
     22 H                     0.232396       0.002546
     23 C                    -0.358147       0.076791
     24 H                     0.226543      -0.004559
     25 B                     0.501350       0.382600
     26 C                    -0.126534      -0.014430
     27 C                    -0.399352      -0.011880
     28 H                     0.194205       0.000692
     29 C                     0.064350       0.031857
     30 C                     0.092638       0.095020
     31 C                    -0.403721      -0.062878
     32 H                     0.226423       0.002450
     33 C                    -0.141576       0.070120
     34 C                     0.187631      -0.041479
     35 C                    -0.399810       0.065324
     36 H                     0.211155      -0.003902
     37 C                    -0.077938       0.022562
     38 C                     0.237396      -0.036594
     39 C                     0.188936      -0.056349
     40 C                    -0.407787       0.083766
     41 H                     0.229584      -0.004933
     42 C                    -0.218697      -0.043479
     43 H                     0.227555       0.002161
     44 C                    -0.352626       0.061310
     45 H                     0.226615      -0.003597
     46 C                    -0.214945      -0.051881
     47 H                     0.231488       0.002522
     48 C                    -0.357647       0.075997
     49 H                     0.226739      -0.004512
     50 B                     0.539251       0.273603
     51 C                    -0.183072      -0.028737
     52 C                     0.045779       0.005684
     53 C                    -0.332411      -0.002458
     54 H                     0.229369       0.000406
     55 C                     0.243839       0.003238
     56 C                    -0.339767      -0.002606
     57 H                     0.225038       0.000478
     58 C                     0.062762       0.006628
     59 N                    -0.667582      -0.000141
     60 C                     0.323623      -0.000067
     61 C                    -0.314158       0.000135
     62 H                     0.254399      -0.000007
     63 C                    -0.226794      -0.000096
     64 H                     0.229695       0.000005
     65 C                    -0.261529       0.000148
     66 H                     0.225842      -0.000009
     67 C                    -0.225341      -0.000089
     68 H                     0.230225       0.000005
     69 C                    -0.298178       0.000129
     70 H                     0.254381      -0.000013
     71 C                     0.303031      -0.000053
     72 C                    -0.284204       0.000151
     73 H                     0.253741      -0.000009
     74 C                    -0.231545      -0.000102
     75 H                     0.231596       0.000006
     76 C                    -0.253467       0.000161
     77 H                     0.228218      -0.000010
     78 C                    -0.230305      -0.000094
     79 H                     0.230450       0.000011
     80 C                    -0.291466       0.000122
     81 H                     0.257626      -0.000017
     82 C                    -0.546401       0.001902
     83 H                     0.259713      -0.001695
     84 H                     0.227701       0.000372
     85 C                    -0.537705       0.002153
     86 H                     0.256085      -0.001412
     87 H                     0.225772       0.000252
     88 C                    -0.656353       0.000650
     89 H                     0.254755      -0.000884
     90 H                     0.212815      -0.000089
     91 H                     0.210428      -0.000006
     92 C                    -0.654493       0.000392
     93 H                     0.247137      -0.000492
     94 H                     0.212585      -0.000080
     95 H                     0.216133      -0.000032
     96 C                    -0.141496      -0.408210
     97 C                     0.059670       0.125892
     98 C                    -0.349291      -0.160339
     99 H                     0.281016       0.009057
    100 C                     0.344945      -0.032786
    101 N                    -0.584050      -0.345767
    102 C                    -0.349736      -0.154626
    103 H                     0.277999       0.008838
    104 C                     0.081568       0.117891
    105 C                     0.240803       0.065843
    106 C                    -0.251969      -0.081821
    107 H                     0.274533       0.004331
    108 C                    -0.229593       0.054542
    109 H                     0.260704      -0.002874
    110 C                    -0.222989      -0.094360
    111 H                     0.260679       0.005194
    112 C                    -0.230425       0.059660
    113 H                     0.264532      -0.003328
    114 C                    -0.252936      -0.086729
    115 H                     0.282754       0.004473
    116 C                     0.256278       0.069502
    117 C                    -0.257805      -0.086875
    118 H                     0.276140       0.004558
    119 C                    -0.228376       0.058446
    120 H                     0.260943      -0.003019
    121 C                    -0.223773      -0.100021
    122 H                     0.260434       0.005507
    123 C                    -0.230128       0.062935
    124 H                     0.262599      -0.003499
    125 C                    -0.257532      -0.091359
    126 H                     0.281787       0.004745
    127 C                    -0.553859      -0.002210
    128 H                     0.294648      -0.002604
    129 H                     0.239004       0.001875
    130 C                    -0.539331      -0.002624
    131 H                     0.282285      -0.000667
    132 H                     0.235173       0.001440
    133 C                    -0.655031       0.000639
    134 H                     0.260876      -0.000316
    135 H                     0.235367       0.000620
    136 H                     0.204488      -0.000031
    137 C                    -0.656921       0.000811
    138 H                     0.258672      -0.000442
    139 H                     0.237098       0.000088
    140 H                     0.207096      -0.000034
  --------------------------------------------------------
  Sum of atomic charges =    -0.000000

                    Cartesian Multipole Moments
 -----------------------------------------------------------------
    Charge (ESU x 10^10)
                -0.0000
    Dipole Moment (Debye)
         X     -22.1231      Y      -2.7721      Z     -15.1098
       Tot      26.9337
    Quadrupole Moments (Debye-Ang)
        XX    -322.1796     XY      -6.5470     YY    -452.0528
        XZ     115.1028     YZ       9.2556     ZZ    -362.7958

 Total job time:  66043.42s(wall), 204670.90s(cpu)
        *  Thank you very much for using Q-Chem.  Have a nice day.  *
