 Q-Chem 5.0, Q-Chem, Inc., Pleasanton, CA (2017)
 Q-Chem 5.0.1 for Intel X86 EM64T Linux

User input:
--------------------------------------------------------------
$rem
threads 8
jobtype	sp
method PBEh-3c
basis def2-mSVP
mem_static	1024
mem_total	8000
sym_ignore	true
unrestricted true
scf_convergence	9
solvent_method	pcm
$end

$molecule
read incoords.mol
$end

$solvent
dielectric	8.93
$end

$pcm
theory iefpcm
$end
--------------------------------------------------------------

   17   -3084.8075895431      4.32E-10 Convergence criterion met
 Total energy in the final basis set = -3084.80758954
 Total job time:  5873.40s(wall), 16892.04s(cpu)
        *  Thank you very much for using Q-Chem.  Have a nice day.  *
 Q-Chem 5.0, Q-Chem, Inc., Pleasanton, CA (2017)
 Q-Chem 5.0.1 for Intel X86 EM64T Linux

User input:
--------------------------------------------------------------

$rem
threads 8
jobtype opt
method PBEh-3c
basis def2-mSVP
scf_guess	read
mem_static      1024
mem_total       8000
sym_ignore      true
unrestricted true
mom_start       1
scf_algorithm	diis
scf_max_cycles	250
solvent_method	pcm
geom_opt_tol_energy 25
geom_opt_tol_gradient 75
$end

$solvent
dielectric      8.93
$end
$pcm
theory iefpcm
$end

$occupied
1 2 3 4 5 6 7 8 9 10 11 12 13 14 15 16 17 18 19 20 21 22 23 24 25 26 27 28 29 30 31 32 33 34 35 36 37 38 39 40 41 42 43 44 45 46 47 48 49 50 51 52 53 54 55 56 57 58 59 60 61 62 63 64 65 66 67 68 69 70 71 72 73 74 75 76 77 78 79 80 81 82 83 84 85 86 87 88 89 90 91 92 93 94 95 96 97 98 99 100 101 102 103 104 105 106 107 108 109 110 111 112 113 114 115 116 117 118 119 120 121 122 123 124 125 126 127 128 129 130 131 132 133 134 135 136 137 138 139 140 141 142 143 144 145 146 147 148 149 150 151 152 153 154 155 156 157 158 159 160 161 162 163 164 165 166 167 168 169 170 171 172 173 174 175 176 177 178 179 180 181 182 183 184 185 186 187 188 189 190 191 192 193 194 195 196 197 198 199 200 201 202 203 204 205 206 207 208 209 210 211 212 213 214 215 216 217 218 219 220 221 222 223 224 225 226 227 228 229 230 231 232 233 234 235 236 237 238 239 240 241 242 243 244 245 246 247 248 249 250 251 252 253 254 255 256 257 258 259 260 261 262 263 264 265 266 267 268 269  271
1 2 3 4 5 6 7 8 9 10 11 12 13 14 15 16 17 18 19 20 21 22 23 24 25 26 27 28 29 30 31 32 33 34 35 36 37 38 39 40 41 42 43 44 45 46 47 48 49 50 51 52 53 54 55 56 57 58 59 60 61 62 63 64 65 66 67 68 69 70 71 72 73 74 75 76 77 78 79 80 81 82 83 84 85 86 87 88 89 90 91 92 93 94 95 96 97 98 99 100 101 102 103 104 105 106 107 108 109 110 111 112 113 114 115 116 117 118 119 120 121 122 123 124 125 126 127 128 129 130 131 132 133 134 135 136 137 138 139 140 141 142 143 144 145 146 147 148 149 150 151 152 153 154 155 156 157 158 159 160 161 162 163 164 165 166 167 168 169 170 171 172 173 174 175 176 177 178 179 180 181 182 183 184 185 186 187 188 189 190 191 192 193 194 195 196 197 198 199 200 201 202 203 204 205 206 207 208 209 210 211 212 213 214 215 216 217 218 219 220 221 222 223 224 225 226 227 228 229 230 231 232 233 234 235 236 237 238 239 240 241 242 243 244 245 246 247 248 249 250 251 252 253 254 255 256 257 258 259 260 261 262 263 264 265 266 267 268 269 270
$end

$molecule
read
$end

--------------------------------------------------------------

   27   -3084.7480069516      6.72E-09 Convergence criterion met
 Total energy in the final basis set = -3084.74800695
   18   -3084.8085675864      8.90E-09 Convergence criterion met
 Total energy in the final basis set = -3084.80856759
   12   -3084.8095263302      8.92E-09 Convergence criterion met
 Total energy in the final basis set = -3084.80952633
   12   -3084.8109623436      9.06E-09 Convergence criterion met
 Total energy in the final basis set = -3084.81096234
   12   -3084.8130056150      9.44E-09 Convergence criterion met
 Total energy in the final basis set = -3084.81300561
   12   -3084.8143249955      9.42E-09 Convergence criterion met
 Total energy in the final basis set = -3084.81432500
   12   -3084.8147999627      9.65E-09 Convergence criterion met
 Total energy in the final basis set = -3084.81467291
   12   -3084.8150407349      9.15E-09 Convergence criterion met
 Total energy in the final basis set = -3084.81504073
   12   -3084.8150017353      9.20E-09 Convergence criterion met
 Total energy in the final basis set = -3084.81500174
   12   -3084.8151973159      9.59E-09 Convergence criterion met
 Total energy in the final basis set = -3084.81519732
   12   -3084.8151420777      9.36E-09 Convergence criterion met
 Total energy in the final basis set = -3084.81514208
   12   -3084.8151269628      9.68E-09 Convergence criterion met
 Total energy in the final basis set = -3084.81512696
   12   -3084.8146775830      9.48E-09 Convergence criterion met
 Total energy in the final basis set = -3084.81467758
   12   -3084.8150727881      9.11E-09 Convergence criterion met
 Total energy in the final basis set = -3084.81507279

                    Orbital Energies (a.u.)
 --------------------------------------------------------------

 Alpha MOs
 -- Occupied --
-14.672 -14.672 -10.494 -10.493 -10.493 -10.493 -10.488 -10.487
-10.468 -10.468 -10.466 -10.466 -10.466 -10.465 -10.465 -10.465
-10.465 -10.465 -10.464 -10.464 -10.462 -10.462 -10.462 -10.462
-10.462 -10.462 -10.459 -10.458 -10.458 -10.458 -10.458 -10.458
-10.456 -10.455 -10.454 -10.454 -10.454 -10.453 -10.450 -10.450
-10.449 -10.449 -10.449 -10.449 -10.449 -10.449 -10.449 -10.449
-10.447 -10.447 -10.446 -10.446 -10.446 -10.446 -10.446 -10.446
-10.444 -10.444 -10.443 -10.443 -10.439 -10.439 -10.439 -10.438
-10.438 -10.437 -10.437 -10.437 -10.437 -10.436 -10.436 -10.435
-10.426 -10.425 -10.422 -10.422 -10.421 -10.421  -6.954  -6.953
 -1.082  -1.082  -1.019  -1.019  -0.967  -0.964  -0.962  -0.962
 -0.962  -0.962  -0.942  -0.942  -0.934  -0.934  -0.912  -0.903
 -0.892  -0.891  -0.871  -0.869  -0.857  -0.857  -0.853  -0.853
 -0.847  -0.847  -0.842  -0.841  -0.839  -0.838  -0.827  -0.825
 -0.822  -0.815  -0.814  -0.807  -0.804  -0.801  -0.794  -0.793
 -0.737  -0.732  -0.727  -0.722  -0.720  -0.718  -0.713  -0.712
 -0.701  -0.701  -0.701  -0.700  -0.690  -0.683  -0.682  -0.682
 -0.680  -0.675  -0.669  -0.667  -0.651  -0.650  -0.640  -0.638
 -0.634  -0.632  -0.607  -0.607  -0.597  -0.596  -0.591  -0.589
 -0.588  -0.587  -0.584  -0.576  -0.575  -0.563  -0.562  -0.557
 -0.556  -0.546  -0.544  -0.544  -0.544  -0.540  -0.528  -0.525
 -0.525  -0.524  -0.518  -0.513  -0.511  -0.510  -0.504  -0.504
 -0.503  -0.500  -0.499  -0.498  -0.498  -0.497  -0.496  -0.492
 -0.491  -0.490  -0.489  -0.488  -0.486  -0.484  -0.484  -0.483
 -0.482  -0.482  -0.478  -0.478  -0.476  -0.472  -0.469  -0.467
 -0.463  -0.458  -0.454  -0.452  -0.445  -0.440  -0.439  -0.438
 -0.437  -0.437  -0.435  -0.431  -0.430  -0.429  -0.429  -0.427
 -0.427  -0.423  -0.421  -0.419  -0.413  -0.412  -0.408  -0.407
 -0.406  -0.405  -0.401  -0.400  -0.398  -0.398  -0.398  -0.397
 -0.397  -0.395  -0.394  -0.393  -0.392  -0.390  -0.389  -0.387
 -0.382  -0.375  -0.370  -0.369  -0.359  -0.359  -0.355  -0.354
 -0.347  -0.343  -0.322  -0.317  -0.307  -0.306  -0.302  -0.302
 -0.299  -0.298  -0.297  -0.297  -0.290  -0.287  -0.283  -0.278
 -0.277  -0.264  -0.261  -0.258  -0.225  -0.224

 Beta MOs
 -- Occupied --
-14.672 -14.672 -10.494 -10.493 -10.493 -10.493 -10.488 -10.487
-10.468 -10.468 -10.466 -10.466 -10.466 -10.465 -10.465 -10.465
-10.465 -10.465 -10.464 -10.464 -10.462 -10.462 -10.462 -10.462
-10.462 -10.462 -10.459 -10.458 -10.458 -10.458 -10.458 -10.458
-10.456 -10.455 -10.454 -10.454 -10.454 -10.453 -10.450 -10.450
-10.449 -10.449 -10.449 -10.449 -10.449 -10.449 -10.449 -10.449
-10.447 -10.447 -10.446 -10.446 -10.446 -10.446 -10.446 -10.446
-10.444 -10.444 -10.443 -10.443 -10.439 -10.439 -10.439 -10.438
-10.438 -10.437 -10.437 -10.437 -10.437 -10.436 -10.436 -10.435
-10.426 -10.425 -10.422 -10.422 -10.421 -10.421  -6.954  -6.953
 -1.082  -1.082  -1.019  -1.019  -0.967  -0.964  -0.962  -0.962
 -0.962  -0.962  -0.942  -0.942  -0.934  -0.934  -0.912  -0.903
 -0.892  -0.891  -0.871  -0.869  -0.857  -0.857  -0.853  -0.853
 -0.847  -0.847  -0.842  -0.841  -0.839  -0.838  -0.827  -0.825
 -0.822  -0.815  -0.814  -0.807  -0.804  -0.801  -0.794  -0.793
 -0.737  -0.732  -0.727  -0.722  -0.720  -0.718  -0.713  -0.712
 -0.701  -0.701  -0.701  -0.700  -0.690  -0.683  -0.682  -0.682
 -0.680  -0.675  -0.669  -0.667  -0.651  -0.650  -0.640  -0.638
 -0.634  -0.632  -0.607  -0.607  -0.597  -0.596  -0.591  -0.589
 -0.588  -0.587  -0.584  -0.576  -0.575  -0.563  -0.562  -0.557
 -0.556  -0.546  -0.544  -0.544  -0.544  -0.540  -0.528  -0.525
 -0.525  -0.524  -0.518  -0.513  -0.511  -0.510  -0.504  -0.504
 -0.503  -0.500  -0.499  -0.498  -0.498  -0.497  -0.496  -0.492
 -0.491  -0.490  -0.489  -0.488  -0.486  -0.484  -0.484  -0.483
 -0.482  -0.482  -0.478  -0.478  -0.476  -0.472  -0.469  -0.467
 -0.463  -0.458  -0.454  -0.452  -0.445  -0.440  -0.439  -0.438
 -0.437  -0.437  -0.435  -0.431  -0.430  -0.429  -0.429  -0.427
 -0.427  -0.423  -0.421  -0.419  -0.413  -0.412  -0.408  -0.407
 -0.406  -0.405  -0.401  -0.400  -0.398  -0.398  -0.398  -0.397
 -0.397  -0.395  -0.394  -0.393  -0.392  -0.390  -0.389  -0.387
 -0.382  -0.375  -0.370  -0.369  -0.359  -0.359  -0.355  -0.354
 -0.347  -0.343  -0.322  -0.317  -0.307  -0.306  -0.302  -0.302
 -0.299  -0.298  -0.297  -0.297  -0.290  -0.287  -0.283  -0.278
 -0.277  -0.264  -0.261  -0.258  -0.225  -0.224

          Ground-State Mulliken Net Atomic Charges

     Atom                 Charge (a.u.)    Spin (a.u.)
  --------------------------------------------------------
      1 C                    -0.151297       0.000000
      2 C                    -0.397782      -0.000000
      3 H                     0.249695      -0.000000
      4 C                     0.092618       0.000000
      5 C                     0.070662       0.000000
      6 C                    -0.392213      -0.000000
      7 H                     0.241901      -0.000000
      8 C                    -0.157107      -0.000000
      9 C                     0.177193      -0.000000
     10 C                    -0.389597       0.000000
     11 H                     0.251212      -0.000000
     12 C                    -0.065694       0.000000
     13 C                     0.222992      -0.000000
     14 C                     0.178414      -0.000000
     15 C                    -0.397125       0.000000
     16 H                     0.251041      -0.000000
     17 C                    -0.233880      -0.000000
     18 H                     0.257729       0.000000
     19 C                    -0.346976       0.000000
     20 H                     0.254593      -0.000000
     21 C                    -0.350524       0.000000
     22 H                     0.254934      -0.000000
     23 C                    -0.231981      -0.000000
     24 H                     0.257162       0.000000
     25 B                     0.650856      -0.000000
     26 C                    -0.152978      -0.000000
     27 C                    -0.386702      -0.000000
     28 H                     0.246207       0.000000
     29 C                     0.066560       0.000000
     30 C                     0.094829      -0.000000
     31 C                    -0.399160      -0.000000
     32 H                     0.247104      -0.000000
     33 C                    -0.147583       0.000000
     34 C                     0.178574      -0.000000
     35 C                    -0.389424       0.000000
     36 H                     0.251273      -0.000000
     37 C                    -0.065930       0.000000
     38 C                     0.220399      -0.000000
     39 C                     0.179888      -0.000000
     40 C                    -0.398173       0.000000
     41 H                     0.251306      -0.000000
     42 C                    -0.234181      -0.000000
     43 H                     0.257864       0.000000
     44 C                    -0.345630       0.000000
     45 H                     0.254693      -0.000000
     46 C                    -0.231368      -0.000000
     47 H                     0.257165       0.000000
     48 C                    -0.350084       0.000000
     49 H                     0.255133      -0.000000
     50 B                     0.648908      -0.000000
     51 C                    -0.217129       0.000000
     52 C                     0.057005      -0.000000
     53 C                    -0.360769       0.000000
     54 H                     0.246568       0.000000
     55 C                     0.287865      -0.000000
     56 C                    -0.355671      -0.000000
     57 H                     0.245646       0.000000
     58 C                     0.079376       0.000000
     59 N                    -0.671789      -0.000000
     60 C                     0.305048      -0.000000
     61 C                    -0.298891       0.000000
     62 H                     0.260991      -0.000000
     63 C                    -0.241347      -0.000000
     64 H                     0.248597       0.000000
     65 C                    -0.267800       0.000000
     66 H                     0.245180       0.000000
     67 C                    -0.240550      -0.000000
     68 H                     0.247745      -0.000000
     69 C                    -0.304363       0.000000
     70 H                     0.259760       0.000000
     71 C                     0.295664       0.000000
     72 C                    -0.300194      -0.000000
     73 H                     0.260946      -0.000000
     74 C                    -0.241657       0.000000
     75 H                     0.248723      -0.000000
     76 C                    -0.267236       0.000000
     77 H                     0.245353      -0.000000
     78 C                    -0.239787      -0.000000
     79 H                     0.247812      -0.000000
     80 C                    -0.295631       0.000000
     81 H                     0.258874      -0.000000
     82 C                    -0.561260      -0.000000
     83 H                     0.262273       0.000000
     84 H                     0.246964      -0.000000
     85 C                    -0.547408      -0.000000
     86 H                     0.249298       0.000000
     87 H                     0.243669       0.000000
     88 C                    -0.658944      -0.000000
     89 H                     0.239907       0.000000
     90 H                     0.228562       0.000000
     91 H                     0.224150       0.000000
     92 C                    -0.659017      -0.000000
     93 H                     0.237034       0.000000
     94 H                     0.222730      -0.000000
     95 H                     0.230190      -0.000000
     96 C                    -0.227847       0.000000
     97 C                     0.078117      -0.000000
     98 C                    -0.361967      -0.000000
     99 H                     0.247308       0.000000
    100 C                     0.310193      -0.000000
    101 N                    -0.673960       0.000000
    102 C                    -0.367340       0.000000
    103 H                     0.248984      -0.000000
    104 C                     0.055135      -0.000000
    105 C                     0.291436       0.000000
    106 C                    -0.293682      -0.000000
    107 H                     0.259274      -0.000000
    108 C                    -0.241181       0.000000
    109 H                     0.248848      -0.000000
    110 C                    -0.266291      -0.000000
    111 H                     0.245806       0.000000
    112 C                    -0.241122       0.000000
    113 H                     0.248844       0.000000
    114 C                    -0.297636      -0.000000
    115 H                     0.260576      -0.000000
    116 C                     0.290911       0.000000
    117 C                    -0.294584      -0.000000
    118 H                     0.260576       0.000000
    119 C                    -0.241534       0.000000
    120 H                     0.249285      -0.000000
    121 C                    -0.264861      -0.000000
    122 H                     0.246302      -0.000000
    123 C                    -0.241848       0.000000
    124 H                     0.248752      -0.000000
    125 C                    -0.294860      -0.000000
    126 H                     0.258991      -0.000000
    127 C                    -0.561284       0.000000
    128 H                     0.260968       0.000000
    129 H                     0.247107       0.000000
    130 C                    -0.544972       0.000000
    131 H                     0.249916       0.000000
    132 H                     0.243122       0.000000
    133 C                    -0.656574       0.000000
    134 H                     0.236203       0.000000
    135 H                     0.228523       0.000000
    136 H                     0.224706      -0.000000
    137 C                    -0.652212      -0.000000
    138 H                     0.227766      -0.000000
    139 H                     0.229627      -0.000000
    140 H                     0.224473      -0.000000
  --------------------------------------------------------
  Sum of atomic charges =    -0.000000

                    Cartesian Multipole Moments
 -----------------------------------------------------------------
    Charge (ESU x 10^10)
                -0.0000
    Dipole Moment (Debye)
         X      -0.5225      Y       0.1665      Z      -0.4008
       Tot       0.6792
    Quadrupole Moments (Debye-Ang)
        XX    -407.4006     XY      -7.7141     YY    -459.6162
        XZ     -17.9366     YZ       3.7907     ZZ    -388.3687

             Standard Nuclear Orientation (Angstroms)
    I     Atom           X                Y                Z
 ----------------------------------------------------------------
    1      C      -0.0820684794     1.3785050628     0.2699067839
    2      C      -0.0377222751     1.4652355973     1.6667024213
    3      H       0.9128793944     1.3894906810     2.1821331732
    4      C      -1.2070572029     1.6434357278     2.3869458165
    5      C      -2.4457477058     1.7050263439     1.7093357018
    6      C      -2.5044413561     1.5848777875     0.3333191028
    7      H      -3.4622963327     1.6005181772    -0.1751348809
    8      C      -1.3275735806     1.4396923643    -0.4017953083
    9      C      -3.5060919784     1.8840899600     2.6954129744
   10      C      -4.8700231166     2.0106595267     2.6366151587
   11      H      -5.4081636873     1.9892926867     1.6965818740
   12      C      -2.8708486642     1.9235618971     3.9490227954
   13      C      -3.5451124507     2.0825598706     5.1542798070
   14      C      -1.4754452404     1.7812784474     3.8211496829
   15      C      -0.7157110942     1.7990991645     4.9607477284
   16      H       0.3617993117     1.6952591828     4.9321355834
   17      C      -5.5827685545     2.1737372422     3.8480138843
   18      H      -6.6596636096     2.2736672410     3.8052162652
   19      C      -4.9543950546     2.2100043314     5.0724930549
   20      H      -5.5399846677     2.3368439835     5.9747978999
   21      C      -2.7368618242     2.0975979734     6.3163888131
   22      H      -3.1915532953     2.2176460252     7.2920597552
   23      C      -1.3716701775     1.9590973206     6.2063093453
   24      H      -0.7699072981     1.9729019424     7.1054915519
   25      B      -1.3853862517     1.3012579797    -1.9489135742
   26      C      -0.0606449688     1.3256697691    -2.7631300171
   27      C      -0.1073536650     1.3515375562    -4.1568342364
   28      H      -1.0618859930     1.3955394163    -4.6689367199
   29      C       1.0636471157     1.2964786039    -4.8844537494
   30      C       2.3154087665     1.1856147437    -4.2379554545
   31      C       2.3686619251     1.1490412028    -2.8556221419
   32      H       3.3221532336     1.0357098257    -2.3517682949
   33      C       1.1880519314     1.2369049366    -2.1057975127
   34      C       1.2795495503     1.2786873875    -6.3274816539
   35      C       0.4651898495     1.3378343340    -7.4295642590
   36      H      -0.6103553937     1.4341526788    -7.3433550336
   37      C       2.6669914313     1.1502670410    -6.5113917351
   38      C       3.2775178536     1.0721167467    -7.7599714117
   39      C       3.3468493859     1.0909226240    -5.2791243210
   40      C       4.7099801347     0.9487512568    -5.3022555628
   41      H       5.2951884774     0.8910893413    -4.3931305120
   42      C       1.0597060749     1.2655300744    -8.7119129692
   43      H       0.4187898144     1.3109922794    -9.5830142323
   44      C       2.4189372082     1.1357127453    -8.8858064050
   45      H       2.8323757010     1.0797971200    -9.8855480992
   46      C       5.3631953289     0.8703731635    -6.5574724196
   47      H       6.4393184088     0.7571809730    -6.5700927513
   48      C       4.6853777722     0.9276725768    -7.7539015572
   49      H       5.2283040086     0.8586555009    -8.6887383317
   50      B       1.2233554539     1.1533809902    -0.5537705341
   51      C       2.5405893858     0.7522815171     0.1928029187
   52      C       2.6777365630    -0.5779032942     0.6178101522
   53      C       3.8124554132    -0.9678287501     1.3131336163
   54      H       3.9156302441    -1.9997533112     1.6304471236
   55      C       4.8115642344    -0.0520021415     1.6208233746
   56      C       4.6854857977     1.2615004854     1.1852664103
   57      H       5.4627243144     1.9816972628     1.4162493419
   58      C       3.5661614682     1.6658919384     0.4656705147
   59      N       5.9314226075    -0.4597147488     2.3746501225
   60      C       7.2229869703    -0.1857810423     1.9033064295
   61      C       8.2499664307     0.1436103496     2.7893662375
   62      H       8.0508848536     0.1913993987     3.8524745649
   63      C       9.5227774335     0.4139024195     2.3130270769
   64      H      10.3070330587     0.6682444140     3.0145515726
   65      C       9.7915706418     0.3813617102     0.9507206576
   66      H      10.7848374829     0.6014705733     0.5825876932
   67      C       8.7683770474     0.0646469551     0.0675976398
   68      H       8.9613327260     0.0291744729    -0.9971430664
   69      C       7.4965851992    -0.2261133953     0.5352995242
   70      H       6.7128111568    -0.4873857274    -0.1646595699
   71      C       5.7219720896    -1.2457929392     3.5188411885
   72      C       6.5273530914    -2.3511651338     3.7940903138
   73      H       7.3377847089    -2.6123043821     3.1253909565
   74      C       6.2866062240    -3.1287896498     4.9165421932
   75      H       6.9200975272    -3.9846797986     5.1120004360
   76      C       5.2323878625    -2.8345752455     5.7700762369
   77      H       5.0415336322    -3.4512267937     6.6383841225
   78      C       4.4243973010    -1.7396074573     5.4930136111
   79      H       3.6000948217    -1.4930053316     6.1500935766
   80      C       4.6690542350    -0.9451224224     4.3852148772
   81      H       4.0348592076    -0.0903370396     4.1866347395
   82      C       1.6453780112    -1.6216824118     0.2676012396
   83      H       0.6428988899    -1.1848660208     0.2625390683
   84      H       1.6287144671    -2.3908145353     1.0435767753
   85      C       3.4428032710     3.1115649601     0.0560967717
   86      H       2.9115234994     3.1922405457    -0.8961398889
   87      H       4.4388965979     3.5243769763    -0.1198873228
   88      C       1.9080441554    -2.2835367861    -1.0850120319
   89      H       1.8824771051    -1.5573025518    -1.8980146856
   90      H       1.1524890444    -3.0418086534    -1.2961339431
   91      H       2.8840829239    -2.7698868208    -1.1017803994
   92      C       2.7260937284     3.9635120938     1.1014940925
   93      H       1.6986191400     3.6313051371     1.2504605023
   94      H       3.2349887313     3.9134095645     2.0647721411
   95      H       2.6926312876     5.0088128115     0.7925847654
   96      C      -2.7428969769     1.0547127504    -2.7056968508
   97      C      -3.4960661954     2.0885798339    -3.2749076247
   98      C      -4.6418656591     1.8020429376    -4.0091577618
   99      H      -5.1966069957     2.6119667662    -4.4700577136
  100      C      -5.0743977484     0.4909124181    -4.1703883575
  101      N      -6.2188169126     0.1933743246    -4.9339018467
  102      C      -4.3447961905    -0.5339982110    -3.5791877849
  103      H      -4.6783530888    -1.5605681837    -3.6862693204
  104      C      -3.1808378067    -0.2669777225    -2.8734736949
  105      C      -6.2073080147    -0.9091771003    -5.8041354299
  106      C      -5.0847910399    -1.1786523727    -6.5886452252
  107      H      -4.2213020138    -0.5277943016    -6.5374035997
  108      C      -5.0681279857    -2.2767641653    -7.4336053286
  109      H      -4.1874671491    -2.4705092264    -8.0327084916
  110      C      -6.1729100355    -3.1130017861    -7.5293718508
  111      H      -6.1590953522    -3.9656787015    -8.1953043430
  112      C      -7.2945720359    -2.8408406467    -6.7582252268
  113      H      -8.1617761201    -3.4865918315    -6.8143247442
  114      C      -7.3125762739    -1.7561221999    -5.8950086055
  115      H      -8.1886065499    -1.5682015641    -5.2872427038
  116      C      -7.3815106109     0.9718804299    -4.8051340401
  117      C      -8.1109430122     1.3394404642    -5.9361908537
  118      H      -7.7721714056     1.0349575098    -6.9184908308
  119      C      -9.2693386902     2.0888532706    -5.8074512047
  120      H      -9.8253945886     2.3631285791    -6.6949486288
  121      C      -9.7076810448     2.5016413831    -4.5561173569
  122      H     -10.6091062928     3.0923342334    -4.4596947987
  123      C      -8.9765304313     2.1467340492    -3.4304753431
  124      H      -9.3103923441     2.4542180955    -2.4477031697
  125      C      -7.8278054151     1.3794213890    -3.5486287870
  126      H      -7.2773332926     1.0902157914    -2.6623040105
  127      C      -2.3831858956    -1.4378686868    -2.3555990594
  128      H      -1.7038272525    -1.1279584593    -1.5558942889
  129      H      -3.0584677318    -2.1678612066    -1.9015040929
  130      C      -3.1010261756     3.5319376190    -3.1015712958
  131      H      -2.0503686743     3.6103879674    -2.8072336049
  132      H      -3.1800165918     4.0526982889    -4.0597131549
  133      C      -1.5820799701    -2.1180081393    -3.4642729763
  134      H      -0.8795761932    -1.4226240428    -3.9242845220
  135      H      -1.0117671579    -2.9610921995    -3.0722712137
  136      H      -2.2397823585    -2.4954286612    -4.2487219621
  137      C      -3.9716198433     4.2462438746    -2.0705976782
  138      H      -3.8864932167     3.7766246557    -1.0902019713
  139      H      -3.6784117369     5.2913033270    -1.9667755711
  140      H      -5.0228113789     4.2203934792    -2.3609878386
 ----------------------------------------------------------------
