 Q-Chem 5.0, Q-Chem, Inc., Pleasanton, CA (2017)
 Q-Chem 5.0.1 for Intel X86 EM64T Linux

User input:
--------------------------------------------------------------
$rem
threads 8
jobtype opt
method PBEh-3c
basis def2-mSVP
mem_static      1024
mem_total       8000
sym_ignore      true
unrestricted true
scf_algorithm   diis
scf_max_cycles  250
solvent_method  pcm
geom_opt_tol_energy 25
geom_opt_tol_gradient 75
$end

$pcm
theory  iefpcm
$end

$solvent
dielectric      1.0001
$end

$molecule
read uincoords.mol
$end

--------------------------------------------------------------

   34   -3084.6925675842      5.71E-09 Convergence criterion met
 Total energy in the final basis set = -3084.69256758
   20   -3084.6967214033      9.03E-09 Convergence criterion met
 Total energy in the final basis set = -3084.69672140
   19   -3084.6964391543      7.85E-09 Convergence criterion met
 Total energy in the final basis set = -3084.69643915
   21   -3084.6966773806      7.56E-09 Convergence criterion met
 Total energy in the final basis set = -3084.69667738
   22   -3084.6970787135      9.60E-09 Convergence criterion met
 Total energy in the final basis set = -3084.69707871
   23   -3084.6974703621      5.20E-09 Convergence criterion met
 Total energy in the final basis set = -3084.69747036
   17   -3084.6974676171      9.84E-09 Convergence criterion met
 Total energy in the final basis set = -3084.69746762
   14   -3084.6978922595      7.41E-09 Convergence criterion met
   13   -3084.6982536740      6.29E-09 Convergence criterion met
 Total energy in the final basis set = -3084.69825367
    9   -3084.6982645029      9.67E-09 Convergence criterion met
 Total energy in the final basis set = -3084.69826450
    9   -3084.6982676110      7.40E-09 Convergence criterion met
 Total energy in the final basis set = -3084.69826761
    9   -3084.6982821153      9.96E-09 Convergence criterion met
 Total energy in the final basis set = -3084.69828212
   10   -3084.6982989110      6.47E-09 Convergence criterion met
 Total energy in the final basis set = -3084.69829891
    9   -3084.6983051478      8.34E-09 Convergence criterion met
 Total energy in the final basis set = -3084.69830515

             Standard Nuclear Orientation (Angstroms)
    I     Atom           X                Y                Z
 ----------------------------------------------------------------
    1      C       0.1515313524     0.1545520742    -0.0209452484
    2      C       0.1427049027     0.1910710636     1.3949286094
    3      H       1.0817827296     0.2533591838     1.9382942865
    4      C      -1.0395358622     0.1571188422     2.0916686950
    5      C      -2.2707169209     0.0711910988     1.3795074862
    6      C      -2.2842097487     0.0320688496     0.0076238143
    7      H      -3.2270679029    -0.0378702173    -0.5251167442
    8      C      -1.0871677012     0.0795131294    -0.7265145753
    9      C      -1.3582234218     0.1913938653     3.5224480842
   10      C      -0.6407865429     0.2775681643     4.6875600327
   11      H       0.4403662558     0.3432974349     4.6882670517
   12      C      -2.7640641396     0.1183691923     3.6169155499
   13      C      -3.4817774530     0.1243136119     4.8084490586
   14      C      -3.3605394804     0.0429038377     2.3427834247
   15      C      -4.7277160228    -0.0346378620     2.2559073820
   16      H      -5.2356691834    -0.0963012577     1.3011669842
   17      C      -1.3411655265     0.2864135615     5.9165594101
   18      H      -0.7711803739     0.3572009138     6.8342610000
   19      C      -2.7127256293     0.2119938371     5.9923491352
   20      H      -3.2023522826     0.2232062242     6.9584431489
   21      C      -4.8919938695     0.0440307438     4.6933858299
   22      H      -5.5094545345     0.0436972980     5.5832627484
   23      C      -5.4797841906    -0.0331975583     3.4520673469
   24      H      -6.5587137567    -0.0946196589     3.3848766817
   25      B       1.4540931235     0.1698663916    -0.8216072378
   26      C       1.4528136975     0.1931917225    -2.3466536198
   27      C       2.6559045808     0.2414926501    -3.0943086242
   28      H       3.6115303678     0.2753799294    -2.5781454417
   29      C       2.6302055506     0.2459312964    -4.4647948765
   30      C       1.3783024286     0.1868574365    -5.1462200801
   31      C       0.2020979533     0.1210774444    -4.4419344173
   32      H      -0.7445817048     0.0640224862    -4.9699159350
   33      C       0.2039308579     0.1227216273    -3.0375371296
   34      C       3.6853970698     0.3021308192    -5.4817642460
   35      C       5.0551183351     0.3760982556    -5.4768347986
   36      H       5.6215290481     0.4045569618    -4.5541432070
   37      C       3.0312538304     0.2736124803    -6.7309927172
   38      C       3.6754581388     0.3147079873    -7.9649520606
   39      C       1.6320851670     0.2038606385    -6.5792515760
   40      C       0.8476941795     0.1726812095    -7.7063976671
   41      H      -0.2325885750     0.1208671504    -7.6481869957
   42      C       5.7388135004     0.4180678782    -6.7144222250
   43      H       6.8198360112     0.4765478388    -6.7048325434
   44      C       5.0870761074     0.3893722641    -7.9254843393
   45      H       5.6548936296     0.4254085048    -8.8473368252
   46      C       2.8443979825     0.2807403715    -9.1120955948
   47      H       3.2843510711     0.3100757735   -10.1015287750
   48      C       1.4779109137     0.2114129944    -8.9703885740
   49      H       0.8583270182     0.1868114139    -9.8580640924
   50      B      -1.1205989092     0.0244564787    -2.2651018252
   51      C      -2.4935356759    -0.1807327513    -3.0275774395
   52      C      -3.2145288453     0.8957987847    -3.5645156269
   53      C      -4.4318597556     0.6855093272    -4.2010218959
   54      H      -4.9746105901     1.5279048511    -4.6160276255
   55      C      -4.9759374783    -0.5879583338    -4.2932186286
   56      C      -4.2673456579    -1.6604678038    -3.7713852102
   57      H      -4.6837909086    -2.6598365498    -3.8387665918
   58      C      -3.0343576897    -1.4692290626    -3.1613040072
   59      N      -6.2438412819    -0.7784205825    -4.8880021758
   60      C      -7.3150515265     0.0292889718    -4.4759839270
   61      C      -8.2534408077     0.4841210102    -5.4026062145
   62      H      -8.1456971976     0.2184618806    -6.4464746918
   63      C      -9.3183957937     1.2676427396    -4.9926958004
   64      H     -10.0373166687     1.6103648331    -5.7258922280
   65      C      -9.4578186686     1.6296019528    -3.6604343509
   66      H     -10.2869680225     2.2486968275    -3.3450248464
   67      C      -8.5185704005     1.1897396777    -2.7393613913
   68      H      -8.6148925133     1.4600430472    -1.6957036743
   69      C      -7.4602690425     0.3900312343    -3.1372568511
   70      H      -6.7392861774     0.0415912401    -2.4094863384
   71      C      -6.4696858376    -1.8727271672    -5.7329513233
   72      C      -7.6584483866    -2.6009619017    -5.6627635174
   73      H      -8.4176298453    -2.3249451633    -4.9426886726
   74      C      -7.8721218346    -3.6786997168    -6.5058199619
   75      H      -8.8016082196    -4.2290183891    -6.4337851749
   76      C      -6.9033872838    -4.0674658355    -7.4185507348
   77      H      -7.0701918489    -4.9151647488    -8.0695862315
   78      C      -5.7149712242    -3.3538753220    -7.4817570256
   79      H      -4.9482550433    -3.6404624691    -8.1901648532
   80      C      -5.4991456754    -2.2629256520    -6.6575657516
   81      H      -4.5714313835    -1.7097205168    -6.7229639776
   82      C      -2.2836973025    -2.6877228599    -2.6895592501
   83      H      -2.9906476298    -3.4311445928    -2.3105210414
   84      H      -1.6332272620    -2.4331459414    -1.8498596528
   85      C      -2.7262452831     2.3132583326    -3.4217165144
   86      H      -2.9900542003     2.8831927791    -4.3170530183
   87      H      -1.6361944062     2.3361990449    -3.3570662944
   88      C      -3.3254672455     2.9957848848    -2.1942999892
   89      H      -3.0435594322     2.4716842816    -1.2810165097
   90      H      -2.9796626733     4.0267061742    -2.1071508906
   91      H      -4.4152011927     3.0105303634    -2.2475578545
   92      C      -1.4504526710    -3.3071530972    -3.8092412356
   93      H      -0.7203465465    -2.5936742573    -4.1916257661
   94      H      -2.0812378050    -3.6185156711    -4.6433029071
   95      H      -0.9071436402    -4.1850844487    -3.4560321755
   96      C       2.8222011225     0.0233904231    -0.0578912268
   97      C       3.6910473229     1.1314324948     0.1643417535
   98      C       4.8487185723     0.9702521863     0.8823371266
   99      H       5.4780652621     1.8264466874     1.0908861254
  100      C       5.1855736403    -0.2926975000     1.4206848456
  101      C       4.3430275637    -1.3996620263     1.1770262068
  102      H       4.6307432952    -2.3785709060     1.5386007925
  103      C       3.1969019607    -1.2601164302     0.4404757561
  104      N       6.3071289368    -0.4541152514     2.1817354614
  105      C       7.4376223008     0.3761725464     2.0190867685
  106      C       7.9019381790     0.6672596900     0.7388392076
  107      H       7.4062285286     0.2459163793    -0.1263075002
  108      C       9.0075207501     1.4848050914     0.5842954213
  109      H       9.3682551394     1.7098666071    -0.4100661570
  110      C       9.6573128101     2.0000168526     1.6967969503
  111      H      10.5218200779     2.6375074833     1.5714722776
  112      C       9.1995637208     1.6918133854     2.9709531529
  113      H       9.7019162261     2.0937367113     3.8401491573
  114      C       8.0918282396     0.8804135885     3.1390117285
  115      H       7.7259430645     0.6500466024     4.1309394753
  116      C       6.3545304272    -1.4715578662     3.1653239733
  117      C       5.3068834690    -1.5934831416     4.0736321517
  118      H       4.4742098046    -0.9027462198     4.0372722572
  119      C       5.3399923800    -2.6010019266     5.0215665398
  120      H       4.5252949148    -2.6971963556     5.7261841750
  121      C       6.4141992487    -3.4778707671     5.0703585349
  122      H       6.4356392515    -4.2663492623     5.8102606715
  123      C       7.4617621310    -3.3429830068     4.1692419643
  124      H       8.2967426253    -4.0295423955     4.2011314974
  125      C       7.4391391795    -2.3403876128     3.2154266391
  126      H       8.2466250212    -2.2425880806     2.5014308208
  127      C       2.3718084043    -2.4795635288     0.1321658158
  128      H       2.5524604576    -3.2372022315     0.8987892596
  129      H       1.3115673550    -2.2290969929     0.1854599917
  130      C       3.3056017646     2.4967175321    -0.3308549432
  131      H       4.2024461785     3.1143810232    -0.4220156976
  132      H       2.8793673980     2.4118279786    -1.3322967722
  133      C       2.6858564551    -3.0659650672    -1.2445973993
  134      H       2.4635276468    -2.3568287805    -2.0400972574
  135      H       2.0816464810    -3.9558737830    -1.4203107768
  136      H       3.7353806613    -3.3521139643    -1.3261725506
  137      C       2.2980699114     3.1885243762     0.5863938441
  138      H       1.3687849948     2.6249223240     0.6549981309
  139      H       2.0536769539     4.1772719592     0.1992428741
  140      H       2.6968274712     3.3111177739     1.5942222414
 ----------------------------------------------------------------

    9   -3084.6983095878      6.28E-09 Convergence criterion met
 Total energy in the final basis set = -3084.69830959
 Final energy is   -3084.69830958783
 **  OPTIMIZATION CONVERGED  **

                    Orbital Energies (a.u.)
 --------------------------------------------------------------

 Alpha MOs
 -- Occupied --
-14.775 -14.649 -10.558 -10.548 -10.547 -10.504 -10.504 -10.504
-10.504 -10.498 -10.498 -10.498 -10.497 -10.497 -10.497 -10.492
-10.491 -10.490 -10.489 -10.478 -10.473 -10.472 -10.458 -10.449
-10.445 -10.443 -10.442 -10.442 -10.442 -10.441 -10.440 -10.440
-10.440 -10.440 -10.439 -10.437 -10.437 -10.437 -10.437 -10.436
-10.436 -10.434 -10.434 -10.433 -10.432 -10.431 -10.431 -10.431
-10.431 -10.428 -10.428 -10.428 -10.427 -10.427 -10.426 -10.426
-10.426 -10.425 -10.425 -10.424 -10.424 -10.424 -10.423 -10.421
-10.421 -10.419 -10.418 -10.410 -10.409 -10.408 -10.407 -10.404
-10.403 -10.397 -10.396 -10.394 -10.394 -10.392  -6.895  -6.889
 -1.169  -1.059  -1.018  -1.014  -0.993  -0.989  -0.989  -0.943
 -0.938  -0.932  -0.930  -0.922  -0.919  -0.915  -0.910  -0.910
 -0.907  -0.894  -0.893  -0.879  -0.870  -0.863  -0.860  -0.843
 -0.834  -0.834  -0.833  -0.827  -0.826  -0.825  -0.824  -0.822
 -0.820  -0.799  -0.794  -0.789  -0.786  -0.775  -0.774  -0.768
 -0.767  -0.765  -0.741  -0.735  -0.731  -0.717  -0.708  -0.706
 -0.703  -0.695  -0.694  -0.688  -0.688  -0.679  -0.676  -0.670
 -0.665  -0.664  -0.657  -0.655  -0.651  -0.649  -0.638  -0.635
 -0.623  -0.619  -0.616  -0.615  -0.606  -0.605  -0.600  -0.590
 -0.587  -0.575  -0.572  -0.571  -0.567  -0.567  -0.564  -0.559
 -0.556  -0.551  -0.551  -0.547  -0.546  -0.543  -0.539  -0.536
 -0.532  -0.524  -0.523  -0.520  -0.517  -0.515  -0.505  -0.504
 -0.503  -0.503  -0.498  -0.495  -0.492  -0.492  -0.483  -0.483
 -0.481  -0.481  -0.481  -0.477  -0.475  -0.473  -0.470  -0.468
 -0.467  -0.467  -0.465  -0.465  -0.464  -0.461  -0.460  -0.460
 -0.459  -0.459  -0.456  -0.455  -0.453  -0.453  -0.449  -0.443
 -0.442  -0.441  -0.440  -0.431  -0.427  -0.421  -0.418  -0.417
 -0.415  -0.413  -0.410  -0.409  -0.407  -0.405  -0.403  -0.402
 -0.401  -0.397  -0.396  -0.394  -0.391  -0.389  -0.386  -0.382
 -0.378  -0.376  -0.376  -0.374  -0.373  -0.372  -0.369  -0.366
 -0.366  -0.360  -0.359  -0.352  -0.352  -0.346  -0.346  -0.344
 -0.342  -0.338  -0.332  -0.323  -0.322  -0.313  -0.310  -0.296
 -0.290  -0.286  -0.283  -0.281  -0.276  -0.276  -0.274  -0.261
 -0.258  -0.248  -0.242  -0.232  -0.227  -0.200  -0.141

 Beta MOs
 -- Occupied --
-14.767 -14.649 -10.556 -10.549 -10.548 -10.503 -10.503 -10.503
-10.503 -10.499 -10.498 -10.498 -10.497 -10.497 -10.496 -10.492
-10.490 -10.490 -10.488 -10.473 -10.473 -10.472 -10.458 -10.448
-10.445 -10.443 -10.442 -10.442 -10.442 -10.441 -10.441 -10.441
-10.440 -10.439 -10.439 -10.438 -10.438 -10.436 -10.436 -10.436
-10.435 -10.435 -10.435 -10.433 -10.432 -10.431 -10.431 -10.431
-10.431 -10.428 -10.428 -10.427 -10.427 -10.427 -10.426 -10.426
-10.426 -10.425 -10.424 -10.424 -10.423 -10.423 -10.423 -10.421
-10.421 -10.420 -10.419 -10.410 -10.410 -10.407 -10.407 -10.403
-10.403 -10.397 -10.396 -10.393 -10.393 -10.392  -6.892  -6.887
 -1.156  -1.059  -1.017  -1.010  -0.989  -0.988  -0.987  -0.943
 -0.937  -0.931  -0.929  -0.921  -0.919  -0.910  -0.910  -0.909
 -0.906  -0.892  -0.891  -0.877  -0.870  -0.862  -0.857  -0.843
 -0.834  -0.832  -0.828  -0.826  -0.824  -0.823  -0.823  -0.822
 -0.820  -0.799  -0.791  -0.787  -0.785  -0.774  -0.773  -0.768
 -0.764  -0.760  -0.739  -0.733  -0.729  -0.716  -0.707  -0.704
 -0.702  -0.694  -0.694  -0.688  -0.686  -0.679  -0.675  -0.669
 -0.664  -0.664  -0.656  -0.654  -0.648  -0.646  -0.636  -0.633
 -0.622  -0.618  -0.616  -0.613  -0.605  -0.603  -0.590  -0.587
 -0.586  -0.573  -0.571  -0.570  -0.567  -0.566  -0.562  -0.559
 -0.555  -0.550  -0.550  -0.545  -0.544  -0.542  -0.538  -0.536
 -0.532  -0.523  -0.520  -0.518  -0.516  -0.514  -0.504  -0.503
 -0.502  -0.497  -0.494  -0.494  -0.491  -0.486  -0.481  -0.481
 -0.480  -0.480  -0.477  -0.476  -0.474  -0.472  -0.469  -0.467
 -0.467  -0.465  -0.465  -0.464  -0.463  -0.460  -0.459  -0.458
 -0.457  -0.456  -0.454  -0.453  -0.452  -0.451  -0.449  -0.443
 -0.442  -0.440  -0.433  -0.430  -0.426  -0.420  -0.417  -0.417
 -0.413  -0.413  -0.408  -0.407  -0.405  -0.404  -0.402  -0.401
 -0.396  -0.396  -0.392  -0.389  -0.388  -0.386  -0.385  -0.382
 -0.378  -0.376  -0.375  -0.372  -0.371  -0.371  -0.368  -0.365
 -0.364  -0.359  -0.356  -0.349  -0.346  -0.344  -0.343  -0.340
 -0.336  -0.332  -0.321  -0.320  -0.318  -0.308  -0.304  -0.289
 -0.286  -0.285  -0.281  -0.276  -0.272  -0.272  -0.260  -0.248
 -0.248  -0.234  -0.229  -0.220  -0.200

          Ground-State Mulliken Net Atomic Charges

     Atom                 Charge (a.u.)    Spin (a.u.)
  --------------------------------------------------------
      1 C                    -0.131155      -0.005276
      2 C                    -0.405296       0.015560
      3 H                     0.177230      -0.002993
      4 C                     0.103316       0.008073
      5 C                     0.076120       0.108192
      6 C                    -0.393140      -0.067225
      7 H                     0.222120       0.002855
      8 C                    -0.142417       0.074437
      9 C                     0.199084      -0.033021
     10 C                    -0.395750       0.053637
     11 H                     0.188542      -0.003246
     12 C                    -0.075851       0.021459
     13 C                     0.254120      -0.034092
     14 C                     0.196639      -0.058966
     15 C                    -0.385313       0.085019
     16 H                     0.211256      -0.005051
     17 C                    -0.199510      -0.037677
     18 H                     0.208431       0.001930
     19 C                    -0.346011       0.050653
     20 H                     0.209512      -0.002982
     21 C                    -0.343194       0.077202
     22 H                     0.208741      -0.004654
     23 C                    -0.202132      -0.051628
     24 H                     0.216794       0.002524
     25 B                     0.496718       0.374569
     26 C                    -0.121666       0.007074
     27 C                    -0.406855       0.018756
     28 H                     0.180556      -0.002749
     29 C                     0.100461       0.006147
     30 C                     0.076083       0.123756
     31 C                    -0.396146      -0.072336
     32 H                     0.222597       0.003061
     33 C                    -0.138602       0.083445
     34 C                     0.201091      -0.036052
     35 C                    -0.396028       0.058466
     36 H                     0.190385      -0.003534
     37 C                    -0.076298       0.025187
     38 C                     0.252383      -0.038488
     39 C                     0.197914      -0.065047
     40 C                    -0.386867       0.095564
     41 H                     0.213426      -0.005683
     42 C                    -0.199420      -0.041478
     43 H                     0.208882       0.002129
     44 C                    -0.345445       0.055438
     45 H                     0.209562      -0.003259
     46 C                    -0.342110       0.087987
     47 H                     0.208942      -0.005293
     48 C                    -0.202005      -0.057922
     49 H                     0.217321       0.002817
     50 B                     0.560136       0.260743
     51 C                    -0.202404      -0.025316
     52 C                     0.069609       0.004145
     53 C                    -0.339775      -0.001420
     54 H                     0.222070       0.000373
     55 C                     0.286943       0.001972
     56 C                    -0.349471      -0.001476
     57 H                     0.225630       0.000351
     58 C                     0.060173       0.004405
     59 N                    -0.672198       0.000892
     60 C                     0.290194      -0.000200
     61 C                    -0.273186       0.000331
     62 H                     0.242560      -0.000017
     63 C                    -0.215107      -0.000235
     64 H                     0.215677       0.000011
     65 C                    -0.238324       0.000404
     66 H                     0.213076      -0.000023
     67 C                    -0.214251      -0.000249
     68 H                     0.216174       0.000015
     69 C                    -0.274549       0.000352
     70 H                     0.244175      -0.000020
     71 C                     0.306073      -0.000223
     72 C                    -0.289939       0.000365
     73 H                     0.244895      -0.000020
     74 C                    -0.212573      -0.000256
     75 H                     0.214675       0.000013
     76 C                    -0.241605       0.000447
     77 H                     0.211551      -0.000025
     78 C                    -0.212550      -0.000273
     79 H                     0.215710       0.000015
     80 C                    -0.279666       0.000380
     81 H                     0.244954      -0.000021
     82 C                    -0.543295       0.003467
     83 H                     0.221163       0.000321
     84 H                     0.258020      -0.002446
     85 C                    -0.539749       0.002726
     86 H                     0.220068       0.000319
     87 H                     0.255495      -0.001718
     88 C                    -0.646004      -0.000192
     89 H                     0.245133      -0.000198
     90 H                     0.209570       0.000006
     91 H                     0.212985      -0.000058
     92 C                    -0.643727      -0.000231
     93 H                     0.247255      -0.000208
     94 H                     0.213077      -0.000047
     95 H                     0.204667       0.000011
     96 C                    -0.123952       0.375439
     97 C                     0.095657      -0.074009
     98 C                    -0.355186       0.112988
     99 H                     0.264990      -0.006241
    100 C                     0.340280       0.099544
    101 C                    -0.359749       0.105853
    102 H                     0.265873      -0.005904
    103 C                     0.079787      -0.076768
    104 N                    -0.601118       0.288504
    105 C                     0.269168      -0.064117
    106 C                    -0.259486       0.079648
    107 H                     0.270470      -0.004199
    108 C                    -0.217688      -0.054932
    109 H                     0.247770       0.003107
    110 C                    -0.217061       0.085280
    111 H                     0.244823      -0.004761
    112 C                    -0.216717      -0.050739
    113 H                     0.244874       0.002600
    114 C                    -0.257083       0.075967
    115 H                     0.260590      -0.004074
    116 C                     0.239928      -0.057915
    117 C                    -0.246550       0.070276
    118 H                     0.267947      -0.003720
    119 C                    -0.218468      -0.048079
    120 H                     0.249873       0.002793
    121 C                    -0.215465       0.074060
    122 H                     0.245494      -0.004140
    123 C                    -0.218871      -0.043613
    124 H                     0.245070       0.002297
    125 C                    -0.246918       0.066513
    126 H                     0.257765      -0.003623
    127 C                    -0.550075       0.007623
    128 H                     0.225121       0.000524
    129 H                     0.299407      -0.002526
    130 C                    -0.541647       0.006891
    131 H                     0.222977      -0.000140
    132 H                     0.288188      -0.001797
    133 C                    -0.652492      -0.001049
    134 H                     0.278967      -0.000746
    135 H                     0.230654      -0.000466
    136 H                     0.202513      -0.000139
    137 C                    -0.656015       0.000462
    138 H                     0.279351      -0.001047
    139 H                     0.232453      -0.000175
    140 H                     0.204207       0.000072
  --------------------------------------------------------
  Sum of atomic charges =    -0.000000

                    Cartesian Multipole Moments
 -----------------------------------------------------------------
    Charge (ESU x 10^10)
                -0.0000
    Dipole Moment (Debye)
         X      18.3216      Y      -1.3351      Z      11.0459
       Tot      21.4354
    Quadrupole Moments (Debye-Ang)
        XX    -334.2499     XY      -4.5676     YY    -455.3762
        XZ      40.8966     YZ     -10.6423     ZZ    -449.5476

 Total job time:  132602.53s(wall), 380618.51s(cpu)
        *  Thank you very much for using Q-Chem.  Have a nice day.  *
